<event>
 4    1  0.1820060E+004  0.2122385E+02  0.7546771E-02  0.1516093E+00
         21   -1    0    0  503  502  0.00000000000E+00  0.00000000000E+00  0.88517416850E+02  0.88517416850E+02  0.00000000000E+00 0.  1.
         21   -1    0    0  501  503 -0.00000000000E+00 -0.00000000000E+00 -0.97527656109E+01  0.97527656109E+01  0.00000000000E+00 0. -1.
          2    1    1    2  501    0 -0.14888957640E+02  0.15125163072E+02  0.54038930475E+01  0.21900997183E+02  0.00000000000E+00 0. -1.
         -2    1    1    2    0  502  0.14888957640E+02 -0.15125163072E+02  0.73360758192E+02  0.76369185278E+02  0.00000000000E+00 0.  1.
</event>
<event>
 4    1  0.1820060E+004  0.2454687E+02  0.7546771E-02  0.1473937E+00
         21   -1    0    0  501  502  0.00000000000E+00  0.00000000000E+00  0.74268772423E+02  0.74268772423E+02  0.00000000000E+00 0. -1.
         21   -1    0    0  502  503 -0.00000000000E+00 -0.00000000000E+00 -0.10149493988E+02  0.10149493988E+02  0.00000000000E+00 0.  1.
          2    1    1    2  501    0  0.21323215391E+02  0.12160148672E+02  0.50966391418E+02  0.56569618918E+02  0.00000000000E+00 0. -1.
         -2    1    1    2    0  503 -0.21323215391E+02 -0.12160148672E+02  0.13152887017E+02  0.27848647494E+02  0.00000000000E+00 0.  1.
</event>
<event>
 4    1  0.1820060E+004  0.8547947E+02  0.7546771E-02  0.1191668E+00
         21   -1    0    0  503  502  0.00000000000E+00  0.00000000000E+00  0.94455782208E+03  0.94455782208E+03  0.00000000000E+00 0. -1.
         21   -1    0    0  501  503 -0.00000000000E+00 -0.00000000000E+00 -0.29291113645E+02  0.29291113645E+02  0.00000000000E+00 0.  1.
          2    1    1    2  501    0 -0.25248021436E+02  0.81665644960E+02  0.39925496211E+02  0.94343973845E+02  0.00000000000E+00 0.  1.
         -2    1    1    2    0  502  0.25248021436E+02 -0.81665644960E+02  0.87534121222E+03  0.87950496188E+03  0.00000000000E+00 0. -1.
</event>
<event>
 4    1  0.1820060E+004  0.2685111E+02  0.7546771E-02  0.1449109E+00
         21   -1    0    0  501  502  0.00000000000E+00  0.00000000000E+00  0.74261055700E+02  0.74261055700E+02  0.00000000000E+00 0. -1.
         21   -1    0    0  502  503 -0.00000000000E+00 -0.00000000000E+00 -0.30675921270E+02  0.30675921270E+02  0.00000000000E+00 0.  1.
          2    1    1    2  501    0 -0.22906557352E+02  0.14009705465E+02  0.65170578808E+02  0.70485364149E+02  0.00000000000E+00 0. -1.
         -2    1    1    2    0  503  0.22906557352E+02 -0.14009705465E+02 -0.21585444379E+02  0.34451612821E+02  0.00000000000E+00 0.  1.
</event>
<event>
 4    1  0.1820060E+004  0.2073065E+02  0.7546771E-02  0.1523146E+00
         21   -1    0    0  503  502  0.00000000000E+00  0.00000000000E+00  0.53383153485E+02  0.53383153485E+02  0.00000000000E+00 0.  1.
         21   -1    0    0  501  503 -0.00000000000E+00 -0.00000000000E+00 -0.90522511118E+01  0.90522511118E+01  0.00000000000E+00 0. -1.
          2    1    1    2  501    0 -0.14910690950E+02 -0.14402465040E+02  0.32550490170E+02  0.38591373572E+02  0.00000000000E+00 0.  1.
         -2    1    1    2    0  502  0.14910690950E+02  0.14402465040E+02  0.11780412203E+02  0.23844031025E+02  0.00000000000E+00 0. -1.
</event>
<event>
 4    1  0.1820060E+004  0.2350203E+02  0.7546771E-02  0.1486289E+00
         21   -1    0    0  503  502  0.00000000000E+00  0.00000000000E+00  0.46903689525E+00  0.46903689525E+00  0.00000000000E+00 0. -1.
         21   -1    0    0  501  503 -0.00000000000E+00 -0.00000000000E+00 -0.14498873396E+04  0.14498873396E+04  0.00000000000E+00 0.  1.
          2    1    1    2  501    0 -0.19818969196E+02 -0.12631466036E+02 -0.10389613763E+04  0.10392271584E+04  0.00000000000E+00 0. -1.
         -2    1    1    2    0  502  0.19818969196E+02  0.12631466036E+02 -0.41045692644E+03  0.41112921805E+03  0.00000000000E+00 0.  1.
</event>
<event>
 4    1  0.1820060E+004  0.2015922E+02  0.7546771E-02  0.1531616E+00
         21   -1    0    0  503  502  0.00000000000E+00  0.00000000000E+00  0.10108889568E+04  0.10108889568E+04  0.00000000000E+00 0.  1.
         21   -1    0    0  501  503 -0.00000000000E+00 -0.00000000000E+00 -0.41177618366E+00  0.41177618366E+00  0.00000000000E+00 0. -1.
          2    1    1    2  501    0  0.20156047175E+02  0.35780086552E+00  0.42739322386E+03  0.42786839339E+03  0.00000000000E+00 0. -1.
         -2    1    1    2    0  502 -0.20156047175E+02 -0.35780086552E+00  0.58308395679E+03  0.58343233963E+03  0.00000000000E+00 0.  1.
</event>
<event>
 4    1  0.1820060E+004  0.3055392E+02  0.7546771E-02  0.1414843E+00
         21   -1    0    0  501  502  0.00000000000E+00  0.00000000000E+00  0.81920106695E+01  0.81920106695E+01  0.00000000000E+00 0. -1.
         21   -1    0    0  502  503 -0.00000000000E+00 -0.00000000000E+00 -0.14538592765E+03  0.14538592765E+03  0.00000000000E+00 0.  1.
          2    1    1    2  501    0 -0.25247551128E+02 -0.17207644566E+02 -0.32894486067E+02  0.44895312484E+02  0.00000000000E+00 0. -1.
         -2    1    1    2    0  503  0.25247551128E+02  0.17207644566E+02 -0.10429943091E+03  0.10868262583E+03  0.00000000000E+00 0.  1.
</event>
<event>
 4    1  0.1820060E+004  0.3028944E+02  0.7546771E-02  0.1417097E+00
         21   -1    0    0  501  502  0.00000000000E+00  0.00000000000E+00  0.47483752915E+03  0.47483752915E+03  0.00000000000E+00 0. -1.
         21   -1    0    0  502  503 -0.00000000000E+00 -0.00000000000E+00 -0.26347660274E+01  0.26347660274E+01  0.00000000000E+00 0.  1.
          2    1    1    2  501    0 -0.30196984748E+02  0.23648281164E+01  0.35938652847E+03  0.36066068145E+03  0.00000000000E+00 0.  1.
         -2    1    1    2    0  503  0.30196984748E+02 -0.23648281164E+01  0.11281623465E+03  0.11681161373E+03  0.00000000000E+00 0. -1.
</event>
<event>
 4    1  0.1820060E+004  0.2356120E+02  0.7546771E-02  0.1485569E+00
         21   -1    0    0  501  502  0.00000000000E+00  0.00000000000E+00  0.74365544135E+01  0.74365544135E+01  0.00000000000E+00 0.  1.
         21   -1    0    0  502  503 -0.00000000000E+00 -0.00000000000E+00 -0.85588936558E+02  0.85588936558E+02  0.00000000000E+00 0. -1.
          2    1    1    2  501    0  0.19006612486E+02 -0.13924040810E+02 -0.22446907069E+02  0.32542185969E+02  0.00000000000E+00 0.  1.
         -2    1    1    2    0  503 -0.19006612486E+02  0.13924040810E+02 -0.55705475076E+02  0.60483305003E+02  0.00000000000E+00 0. -1.
</event>
<event>
 4    1  0.1820060E+004  0.2077997E+02  0.7546771E-02  0.1522430E+00
         21   -1    0    0  503  502  0.00000000000E+00  0.00000000000E+00  0.32612650181E+02  0.32612650181E+02  0.00000000000E+00 0.  1.
         21   -1    0    0  501  503 -0.00000000000E+00 -0.00000000000E+00 -0.14169211877E+02  0.14169211877E+02  0.00000000000E+00 0. -1.
          2    1    1    2  501    0 -0.20268253823E+02  0.45831258124E+01  0.32331958251E+01  0.21029995494E+02  0.00000000000E+00 0. -1.
         -2    1    1    2    0  502  0.20268253823E+02 -0.45831258124E+01  0.15210242479E+02  0.25751866564E+02  0.00000000000E+00 0.  1.
</event>
<event>
 4    1  0.1820060E+004  0.2093907E+02  0.7546771E-02  0.1520137E+00
         21   -1    0    0  503  502  0.00000000000E+00  0.00000000000E+00  0.20705702821E+03  0.20705702821E+03  0.00000000000E+00 0. -1.
         21   -1    0    0  501  503 -0.00000000000E+00 -0.00000000000E+00 -0.28498939863E+01  0.28498939863E+01  0.00000000000E+00 0.  1.
          2    1    1    2  501    0  0.20899335580E+02 -0.12893412013E+01  0.48898519763E+02  0.53193137371E+02  0.00000000000E+00 0.  1.
         -2    1    1    2    0  502 -0.20899335580E+02  0.12893412013E+01  0.15530861446E+03  0.15671378483E+03  0.00000000000E+00 0. -1.
</event>
<event>
 4    1  0.1820060E+004  0.2043117E+02  0.7546771E-02  0.1527543E+00
         21   -1    0    0  501  502  0.00000000000E+00  0.00000000000E+00  0.24150373437E+01  0.24150373437E+01  0.00000000000E+00 0. -1.
         21   -1    0    0  502  503 -0.00000000000E+00 -0.00000000000E+00 -0.19316299581E+03  0.19316299581E+03  0.00000000000E+00 0.  1.
          2    1    1    2  501    0 -0.12976722294E+02 -0.15780924088E+02 -0.63660560073E+02  0.66858804921E+02  0.00000000000E+00 0. -1.
         -2    1    1    2    0  503  0.12976722294E+02  0.15780924088E+02 -0.12708739839E+03  0.12871922823E+03  0.00000000000E+00 0.  1.
</event>
<event>
 4    1  0.1820060E+004  0.2404506E+02  0.7546771E-02  0.1479776E+00
         21   -1    0    0  503  502  0.00000000000E+00  0.00000000000E+00  0.72766981352E+01  0.72766981352E+01  0.00000000000E+00 0.  1.
         21   -1    0    0  501  503 -0.00000000000E+00 -0.00000000000E+00 -0.15599449551E+03  0.15599449551E+03  0.00000000000E+00 0. -1.
          2    1    1    2  501    0 -0.14626643832E+02  0.19084715292E+02 -0.13154225940E+03  0.13372184217E+03  0.00000000000E+00 0. -1.
         -2    1    1    2    0  502  0.14626643832E+02 -0.19084715292E+02 -0.17175537983E+02  0.29549351475E+02  0.00000000000E+00 0.  1.
</event>
<event>
 4    1  0.1820060E+004  0.2491473E+02  0.7546771E-02  0.1469760E+00
         21   -1    0    0  503  502  0.00000000000E+00  0.00000000000E+00  0.16309988064E+03  0.16309988064E+03  0.00000000000E+00 0.  1.
         21   -1    0    0  501  503 -0.00000000000E+00 -0.00000000000E+00 -0.17158854760E+02  0.17158854760E+02  0.00000000000E+00 0. -1.
          2    1    1    2  501    0  0.18289209517E+02  0.16918878950E+02 -0.65374603489E+01  0.25758145071E+02  0.00000000000E+00 0. -1.
         -2    1    1    2    0  502 -0.18289209517E+02 -0.16918878950E+02  0.15247848623E+03  0.15450059033E+03  0.00000000000E+00 0.  1.
</event>
<event>
 4    1  0.1820060E+004  0.2416617E+02  0.7546771E-02  0.1478352E+00
         21   -1    0    0  501  502  0.00000000000E+00  0.00000000000E+00  0.38905424129E+03  0.38905424129E+03  0.00000000000E+00 0. -1.
         21   -1    0    0  502  503 -0.00000000000E+00 -0.00000000000E+00 -0.75475668478E+01  0.75475668478E+01  0.00000000000E+00 0.  1.
          2    1    1    2  501    0  0.20608742327E+02  0.12620758055E+02  0.36824279323E+03  0.36903490155E+03  0.00000000000E+00 0. -1.
         -2    1    1    2    0  503 -0.20608742327E+02 -0.12620758055E+02  0.13263881212E+02  0.27566906591E+02  0.00000000000E+00 0.  1.
</event>
<event>
 4    1  0.1820060E+004  0.2305188E+02  0.7546771E-02  0.1491848E+00
         21   -1    0    0  501  502  0.00000000000E+00  0.00000000000E+00  0.31715699407E+03  0.31715699407E+03  0.00000000000E+00 0.  1.
         21   -1    0    0  502  503 -0.00000000000E+00 -0.00000000000E+00 -0.21456149127E+01  0.21456149127E+01  0.00000000000E+00 0. -1.
          2    1    1    2  501    0  0.75144130629E+00 -0.23039630845E+02  0.23223813829E+03  0.23337939525E+03  0.00000000000E+00 0.  1.
         -2    1    1    2    0  503 -0.75144130629E+00  0.23039630845E+02  0.82773240872E+02  0.85923213732E+02  0.00000000000E+00 0. -1.
</event>
<event>
 4    1  0.1820060E+004  0.2050741E+02  0.7546771E-02  0.1526415E+00
         21   -1    0    0  501  502  0.00000000000E+00  0.00000000000E+00  0.10615180522E+03  0.10615180522E+03  0.00000000000E+00 0.  1.
         21   -1    0    0  502  503 -0.00000000000E+00 -0.00000000000E+00 -0.67524873357E+02  0.67524873357E+02  0.00000000000E+00 0. -1.
          2    1    1    2  501    0  0.83523479451E+01 -0.18729443757E+02  0.10356581413E+03  0.10557666236E+03  0.00000000000E+00 0.  1.
         -2    1    1    2    0  503 -0.83523479451E+01  0.18729443757E+02 -0.64938882261E+02  0.68100016218E+02  0.00000000000E+00 0. -1.
</event>
<event>
 4    1  0.1820060E+004  0.2221463E+02  0.7546771E-02  0.1502603E+00
         21   -1    0    0  503  502  0.00000000000E+00  0.00000000000E+00  0.32183815138E+02  0.32183815138E+02  0.00000000000E+00 0.  1.
         21   -1    0    0  501  503 -0.00000000000E+00 -0.00000000000E+00 -0.32256086255E+02  0.32256086255E+02  0.00000000000E+00 0. -1.
          2    1    1    2  501    0  0.19448427277E+02  0.10735383132E+02 -0.23373548174E+02  0.32246124244E+02  0.00000000000E+00 0. -1.
         -2    1    1    2    0  502 -0.19448427277E+02 -0.10735383132E+02  0.23301277057E+02  0.32193777148E+02  0.00000000000E+00 0.  1.
</event>
<event>
 4    1  0.1820060E+004  0.5394218E+02  0.7546771E-02  0.1281929E+00
         21   -1    0    0  501  502  0.00000000000E+00  0.00000000000E+00  0.32083978042E+02  0.32083978042E+02  0.00000000000E+00 0. -1.
         21   -1    0    0  502  503 -0.00000000000E+00 -0.00000000000E+00 -0.10390254354E+03  0.10390254354E+03  0.00000000000E+00 0.  1.
          2    1    1    2  501    0 -0.19176054738E+02 -0.50418622890E+02 -0.11664745150E+02  0.55188992461E+02  0.00000000000E+00 0. -1.
         -2    1    1    2    0  503  0.19176054738E+02  0.50418622890E+02 -0.60153820343E+02  0.80797529116E+02  0.00000000000E+00 0.  1.
</event>
<event>
 4    1  0.1820060E+004  0.3357540E+02  0.7546771E-02  0.1390865E+00
         21   -1    0    0  501  502  0.00000000000E+00  0.00000000000E+00  0.12738702102E+04  0.12738702102E+04  0.00000000000E+00 0.  1.
         21   -1    0    0  502  503 -0.00000000000E+00 -0.00000000000E+00 -0.20462077035E+01  0.20462077035E+01  0.00000000000E+00 0. -1.
          2    1    1    2  501    0  0.20636918077E+02 -0.26484430318E+02  0.11165103390E+04  0.11170150602E+04  0.00000000000E+00 0.  1.
         -2    1    1    2    0  503 -0.20636918077E+02  0.26484430318E+02  0.15531366345E+03  0.15890135774E+03  0.00000000000E+00 0. -1.
</event>
<event>
 4    1  0.1820060E+004  0.2047778E+02  0.7546771E-02  0.1526853E+00
         21   -1    0    0  503  502  0.00000000000E+00  0.00000000000E+00  0.35186326982E+02  0.35186326982E+02  0.00000000000E+00 0. -1.
         21   -1    0    0  501  503 -0.00000000000E+00 -0.00000000000E+00 -0.23175844833E+02  0.23175844833E+02  0.00000000000E+00 0.  1.
          2    1    1    2  501    0 -0.19106323529E+02 -0.73680238883E+01 -0.14333190990E+02  0.24995594387E+02  0.00000000000E+00 0.  1.
         -2    1    1    2    0  502  0.19106323529E+02  0.73680238883E+01  0.26343673139E+02  0.33366577428E+02  0.00000000000E+00 0. -1.
</event>
<event>
 4    1  0.1820060E+004  0.2171413E+02  0.7546771E-02  0.1509308E+00
         21   -1    0    0  501  502  0.00000000000E+00  0.00000000000E+00  0.80489270578E+00  0.80489270578E+00  0.00000000000E+00 0. -1.
         21   -1    0    0  502  503 -0.00000000000E+00 -0.00000000000E+00 -0.64598259998E+03  0.64598259998E+03  0.00000000000E+00 0.  1.
          2    1    1    2  501    0  0.28604266648E+01 -0.21524900455E+02 -0.22387705105E+03  0.22492762695E+03  0.00000000000E+00 0. -1.
         -2    1    1    2    0  503 -0.28604266648E+01  0.21524900455E+02 -0.42130065622E+03  0.42185986573E+03  0.00000000000E+00 0.  1.
</event>
<event>
 4    1  0.1820060E+004  0.2351882E+02  0.7546771E-02  0.1486084E+00
         21   -1    0    0  503  502  0.00000000000E+00  0.00000000000E+00  0.35714163643E+02  0.35714163643E+02  0.00000000000E+00 0. -1.
         21   -1    0    0  501  503 -0.00000000000E+00 -0.00000000000E+00 -0.19369225654E+02  0.19369225654E+02  0.00000000000E+00 0.  1.
          2    1    1    2  501    0  0.20076292404E+02 -0.12250601015E+02 -0.41565558344E+01  0.23883293289E+02  0.00000000000E+00 0.  1.
         -2    1    1    2    0  502 -0.20076292404E+02  0.12250601015E+02  0.20501493823E+02  0.31200096008E+02  0.00000000000E+00 0. -1.
</event>
<event>
 4    1  0.1820060E+004  0.3450405E+02  0.7546771E-02  0.1384084E+00
         21   -1    0    0  501  502  0.00000000000E+00  0.00000000000E+00  0.83482312556E+02  0.83482312556E+02  0.00000000000E+00 0.  1.
         21   -1    0    0  502  503 -0.00000000000E+00 -0.00000000000E+00 -0.73379610454E+02  0.73379610454E+02  0.00000000000E+00 0. -1.
          2    1    1    2  501    0  0.15648273234E+01 -0.34468543431E+02  0.75449700838E+02  0.82964971689E+02  0.00000000000E+00 0.  1.
         -2    1    1    2    0  503 -0.15648273234E+01  0.34468543431E+02 -0.65346998735E+02  0.73896951321E+02  0.00000000000E+00 0. -1.
</event>
<event>
 4    1  0.1820060E+004  0.2151562E+02  0.7546771E-02  0.1512029E+00
         21   -1    0    0  501  502  0.00000000000E+00  0.00000000000E+00  0.29880685004E+01  0.29880685004E+01  0.00000000000E+00 0. -1.
         21   -1    0    0  502  503 -0.00000000000E+00 -0.00000000000E+00 -0.15667805307E+03  0.15667805307E+03  0.00000000000E+00 0.  1.
          2    1    1    2  501    0 -0.20960680252E+02 -0.48550881798E+01 -0.68396809625E+02  0.71701084823E+02  0.00000000000E+00 0.  1.
         -2    1    1    2    0  503  0.20960680252E+02  0.48550881798E+01 -0.85293174943E+02  0.87965036747E+02  0.00000000000E+00 0. -1.
</event>
<event>
 4    1  0.1820060E+004  0.2215824E+02  0.7546771E-02  0.1503348E+00
         21   -1    0    0  503  502  0.00000000000E+00  0.00000000000E+00  0.61159956179E+02  0.61159956179E+02  0.00000000000E+00 0. -1.
         21   -1    0    0  501  503 -0.00000000000E+00 -0.00000000000E+00 -0.11351202862E+02  0.11351202862E+02  0.00000000000E+00 0.  1.
          2    1    1    2  501    0  0.19728892284E+02  0.10087529811E+02  0.52871624128E+01  0.22780288296E+02  0.00000000000E+00 0.  1.
         -2    1    1    2    0  502 -0.19728892284E+02 -0.10087529811E+02  0.44521590904E+02  0.49730870746E+02  0.00000000000E+00 0. -1.
</event>
<event>
 4    1  0.1820060E+004  0.2146377E+02  0.7546771E-02  0.1512745E+00
         21   -1    0    0  501  502  0.00000000000E+00  0.00000000000E+00  0.12866231453E+03  0.12866231453E+03  0.00000000000E+00 0. -1.
         21   -1    0    0  502  503 -0.00000000000E+00 -0.00000000000E+00 -0.62290880913E+01  0.62290880913E+01  0.00000000000E+00 0.  1.
          2    1    1    2  501    0 -0.11752464640E+02 -0.17960316482E+02  0.10519484811E+03  0.10736223481E+03  0.00000000000E+00 0. -1.
         -2    1    1    2    0  503  0.11752464640E+02  0.17960316482E+02  0.17238378326E+02  0.27529167814E+02  0.00000000000E+00 0.  1.
</event>
<event>
 4    1  0.1820060E+004  0.2033170E+02  0.7546771E-02  0.1529024E+00
         21   -1    0    0  503  502  0.00000000000E+00  0.00000000000E+00  0.48909955984E+02  0.48909955984E+02  0.00000000000E+00 0. -1.
         21   -1    0    0  501  503 -0.00000000000E+00 -0.00000000000E+00 -0.91206907333E+01  0.91206907333E+01  0.00000000000E+00 0.  1.
          2    1    1    2  501    0 -0.42358238749E+01 -0.19885572874E+02  0.27752129079E+02  0.34402890589E+02  0.00000000000E+00 0.  1.
         -2    1    1    2    0  502  0.42358238749E+01  0.19885572874E+02  0.12037136171E+02  0.23627756128E+02  0.00000000000E+00 0. -1.
</event>
<event>
 4    1  0.1820060E+004  0.2326207E+02  0.7546771E-02  0.1489233E+00
         21   -1    0    0  503  502  0.00000000000E+00  0.00000000000E+00  0.81890088925E+01  0.81890088925E+01  0.00000000000E+00 0.  1.
         21   -1    0    0  501  503 -0.00000000000E+00 -0.00000000000E+00 -0.66079340369E+02  0.66079340369E+02  0.00000000000E+00 0. -1.
          2    1    1    2  501    0 -0.15851023960E+02 -0.17025535510E+02 -0.28980354013E+02  0.37161603016E+02  0.00000000000E+00 0. -1.
         -2    1    1    2    0  502  0.15851023960E+02  0.17025535510E+02 -0.28909977463E+02  0.37106746245E+02  0.00000000000E+00 0.  1.
</event>
<event>
 4    1  0.1820060E+004  0.2273774E+02  0.7546771E-02  0.1495818E+00
         21   -1    0    0  503  502  0.00000000000E+00  0.00000000000E+00  0.70590928165E+02  0.70590928165E+02  0.00000000000E+00 0. -1.
         21   -1    0    0  501  503 -0.00000000000E+00 -0.00000000000E+00 -0.77147517393E+01  0.77147517393E+01  0.00000000000E+00 0.  1.
          2    1    1    2  501    0  0.22675347210E+00  0.22736607814E+02  0.22626017210E+02  0.32077116560E+02  0.00000000000E+00 0.  1.
         -2    1    1    2    0  502 -0.22675347210E+00 -0.22736607814E+02  0.40250159216E+02  0.46228563344E+02  0.00000000000E+00 0. -1.
</event>
<event>
 4    1  0.1820060E+004  0.3565361E+02  0.7546771E-02  0.1376026E+00
         21   -1    0    0  501  502  0.00000000000E+00  0.00000000000E+00  0.10871392436E+02  0.10871392436E+02  0.00000000000E+00 0. -1.
         21   -1    0    0  502  503 -0.00000000000E+00 -0.00000000000E+00 -0.17517459460E+03  0.17517459460E+03  0.00000000000E+00 0.  1.
          2    1    1    2  501    0  0.35597158480E+02 -0.20054938326E+01 -0.13579135227E+03  0.14039398509E+03  0.00000000000E+00 0.  1.
         -2    1    1    2    0  503 -0.35597158480E+02  0.20054938326E+01 -0.28511849889E+02  0.45652001943E+02  0.00000000000E+00 0. -1.
</event>
<event>
 4    1  0.1820060E+004  0.4451969E+02  0.7546771E-02  0.1323859E+00
         21   -1    0    0  501  502  0.00000000000E+00  0.00000000000E+00  0.25308989423E+03  0.25308989423E+03  0.00000000000E+00 0.  1.
         21   -1    0    0  502  503 -0.00000000000E+00 -0.00000000000E+00 -0.10041017336E+02  0.10041017336E+02  0.00000000000E+00 0. -1.
          2    1    1    2  501    0  0.31938780243E+02  0.31014791672E+02  0.18324489150E+03  0.18857543119E+03  0.00000000000E+00 0. -1.
         -2    1    1    2    0  503 -0.31938780243E+02 -0.31014791672E+02  0.59803985393E+02  0.74555480381E+02  0.00000000000E+00 0.  1.
</event>
<event>
 4    1  0.1820060E+004  0.4440402E+02  0.7546771E-02  0.1324447E+00
         21   -1    0    0  501  502  0.00000000000E+00  0.00000000000E+00  0.32787069128E+02  0.32787069128E+02  0.00000000000E+00 0. -1.
         21   -1    0    0  502  503 -0.00000000000E+00 -0.00000000000E+00 -0.35758808869E+03  0.35758808869E+03  0.00000000000E+00 0.  1.
          2    1    1    2  501    0  0.41176630169E+02  0.16619337471E+02  0.15619330975E+02  0.47071018155E+02  0.00000000000E+00 0. -1.
         -2    1    1    2    0  503 -0.41176630169E+02 -0.16619337471E+02 -0.34042035054E+03  0.34330413966E+03  0.00000000000E+00 0.  1.
</event>
<event>
 4    1  0.1820060E+004  0.2146265E+02  0.7546771E-02  0.1512761E+00
         21   -1    0    0  501  502  0.00000000000E+00  0.00000000000E+00  0.53020169474E+01  0.53020169474E+01  0.00000000000E+00 0.  1.
         21   -1    0    0  502  503 -0.00000000000E+00 -0.00000000000E+00 -0.87856421124E+02  0.87856421124E+02  0.00000000000E+00 0. -1.
          2    1    1    2  501    0 -0.20111207950E+02 -0.74956494466E+01 -0.36369668796E+02  0.42230300190E+02  0.00000000000E+00 0. -1.
         -2    1    1    2    0  503  0.20111207950E+02  0.74956494466E+01 -0.46184735381E+02  0.50928137882E+02  0.00000000000E+00 0.  1.
</event>
<event>
 4    1  0.1820060E+004  0.2092070E+02  0.7546771E-02  0.1520400E+00
         21   -1    0    0  503  502  0.00000000000E+00  0.00000000000E+00  0.13605284119E+04  0.13605284119E+04  0.00000000000E+00 0. -1.
         21   -1    0    0  501  503 -0.00000000000E+00 -0.00000000000E+00 -0.17622969138E+01  0.17622969138E+01  0.00000000000E+00 0.  1.
          2    1    1    2  501    0  0.14635534531E+02  0.14949144251E+02  0.63536970754E+02  0.66892618706E+02  0.00000000000E+00 0.  1.
         -2    1    1    2    0  502 -0.14635534531E+02 -0.14949144251E+02  0.12952291442E+04  0.12953980901E+04  0.00000000000E+00 0. -1.
</event>
<event>
 4    1  0.1820060E+004  0.2267308E+02  0.7546771E-02  0.1496645E+00
         21   -1    0    0  503  502  0.00000000000E+00  0.00000000000E+00  0.69218877858E+03  0.69218877858E+03  0.00000000000E+00 0.  1.
         21   -1    0    0  501  503 -0.00000000000E+00 -0.00000000000E+00 -0.88213637849E+00  0.88213637849E+00  0.00000000000E+00 0. -1.
          2    1    1    2  501    0 -0.85476742424E+01  0.21000142484E+02  0.20786494034E+03  0.20909782912E+03  0.00000000000E+00 0. -1.
         -2    1    1    2    0  502  0.85476742424E+01 -0.21000142484E+02  0.48344170186E+03  0.48397308584E+03  0.00000000000E+00 0.  1.
</event>
<event>
 4    1  0.1820060E+004  0.2078890E+02  0.7546771E-02  0.1522300E+00
         21   -1    0    0  501  502  0.00000000000E+00  0.00000000000E+00  0.46876916813E+01  0.46876916813E+01  0.00000000000E+00 0.  1.
         21   -1    0    0  502  503 -0.00000000000E+00 -0.00000000000E+00 -0.95121060761E+02  0.95121060761E+02  0.00000000000E+00 0. -1.
          2    1    1    2  501    0  0.15941958601E+02  0.13342882110E+02 -0.53970399798E+02  0.57835824550E+02  0.00000000000E+00 0.  1.
         -2    1    1    2    0  503 -0.15941958601E+02 -0.13342882110E+02 -0.36462969282E+02  0.41972927893E+02  0.00000000000E+00 0. -1.
</event>
<event>
 4    1  0.1820060E+004  0.4984088E+02  0.7546771E-02  0.1298864E+00
         21   -1    0    0  503  502  0.00000000000E+00  0.00000000000E+00  0.36925451373E+02  0.36925451373E+02  0.00000000000E+00 0.  1.
         21   -1    0    0  501  503 -0.00000000000E+00 -0.00000000000E+00 -0.11031710677E+03  0.11031710677E+03  0.00000000000E+00 0. -1.
          2    1    1    2  501    0  0.48212531786E+02 -0.12635854769E+02 -0.82682826391E+02  0.96543062034E+02  0.00000000000E+00 0. -1.
         -2    1    1    2    0  502 -0.48212531786E+02  0.12635854769E+02  0.92911709965E+01  0.50699496106E+02  0.00000000000E+00 0.  1.
</event>
<event>
 4    1  0.1820060E+004  0.2285852E+02  0.7546771E-02  0.1494282E+00
         21   -1    0    0  501  502  0.00000000000E+00  0.00000000000E+00  0.70255155356E+01  0.70255155356E+01  0.00000000000E+00 0. -1.
         21   -1    0    0  502  503 -0.00000000000E+00 -0.00000000000E+00 -0.82363790656E+02  0.82363790656E+02  0.00000000000E+00 0.  1.
          2    1    1    2  501    0  0.22665623936E+02  0.29633524882E+01 -0.23748166786E+02  0.32961908198E+02  0.00000000000E+00 0. -1.
         -2    1    1    2    0  503 -0.22665623936E+02 -0.29633524882E+01 -0.51590108334E+02  0.56427397993E+02  0.00000000000E+00 0.  1.
</event>
<event>
 4    1  0.1820060E+004  0.7841338E+02  0.7546771E-02  0.1207580E+00
         21   -1    0    0  501  502  0.00000000000E+00  0.00000000000E+00  0.44808843065E+03  0.44808843065E+03  0.00000000000E+00 0. -1.
         21   -1    0    0  502  503 -0.00000000000E+00 -0.00000000000E+00 -0.50454411617E+02  0.50454411617E+02  0.00000000000E+00 0.  1.
          2    1    1    2  501    0  0.76163126885E+02 -0.18650369430E+02  0.41150735981E+03  0.41891164385E+03  0.00000000000E+00 0. -1.
         -2    1    1    2    0  503 -0.76163126885E+02  0.18650369430E+02 -0.13873340777E+02  0.79631198415E+02  0.00000000000E+00 0.  1.
</event>
<event>
 4    1  0.1820060E+004  0.2096509E+02  0.7546771E-02  0.1519764E+00
         21   -1    0    0  501  502  0.00000000000E+00  0.00000000000E+00  0.91984136659E+01  0.91984136659E+01  0.00000000000E+00 0.  1.
         21   -1    0    0  502  503 -0.00000000000E+00 -0.00000000000E+00 -0.13048408196E+03  0.13048408196E+03  0.00000000000E+00 0. -1.
          2    1    1    2  501    0  0.19521723482E+02  0.76444412982E+01 -0.50413076841E+01  0.21562698199E+02  0.00000000000E+00 0.  1.
         -2    1    1    2    0  503 -0.19521723482E+02 -0.76444412982E+01 -0.11624436061E+03  0.11811979743E+03  0.00000000000E+00 0. -1.
</event>
<event>
 4    1  0.1820060E+004  0.2214027E+02  0.7546771E-02  0.1503585E+00
         21   -1    0    0  503  502  0.00000000000E+00  0.00000000000E+00  0.16051058389E+01  0.16051058389E+01  0.00000000000E+00 0.  1.
         21   -1    0    0  501  503 -0.00000000000E+00 -0.00000000000E+00 -0.31636407128E+03  0.31636407128E+03  0.00000000000E+00 0. -1.
          2    1    1    2  501    0 -0.72943616837E+00  0.22128252773E+02 -0.12777605100E+03  0.12968003261E+03  0.00000000000E+00 0.  1.
         -2    1    1    2    0  502  0.72943616837E+00 -0.22128252773E+02 -0.18698291444E+03  0.18828914451E+03  0.00000000000E+00 0. -1.
</event>
<event>
 4    1  0.1820060E+004  0.2226534E+02  0.7546771E-02  0.1501935E+00
         21   -1    0    0  503  502  0.00000000000E+00  0.00000000000E+00  0.68762283127E+02  0.68762283127E+02  0.00000000000E+00 0.  1.
         21   -1    0    0  501  503 -0.00000000000E+00 -0.00000000000E+00 -0.15405778604E+02  0.15405778604E+02  0.00000000000E+00 0. -1.
          2    1    1    2  501    0 -0.21397320269E+01 -0.22162288167E+02 -0.40177911423E+01  0.22624944544E+02  0.00000000000E+00 0. -1.
         -2    1    1    2    0  502  0.21397320269E+01  0.22162288167E+02  0.57374295666E+02  0.61543117187E+02  0.00000000000E+00 0.  1.
</event>
<event>
 4    1  0.1820060E+004  0.3353016E+02  0.7546771E-02  0.1391202E+00
         21   -1    0    0  503  502  0.00000000000E+00  0.00000000000E+00  0.14876765936E+01  0.14876765936E+01  0.00000000000E+00 0. -1.
         21   -1    0    0  501  503 -0.00000000000E+00 -0.00000000000E+00 -0.75630438147E+03  0.75630438147E+03  0.00000000000E+00 0.  1.
          2    1    1    2  501    0 -0.29468237688E+02  0.15996696860E+02 -0.38791396265E+03  0.38936039059E+03  0.00000000000E+00 0.  1.
         -2    1    1    2    0  502  0.29468237688E+02 -0.15996696860E+02 -0.36690274224E+03  0.36843166748E+03  0.00000000000E+00 0. -1.
</event>
<event>
 4    1  0.1820060E+004  0.2790683E+02  0.7546771E-02  0.1438705E+00
         21   -1    0    0  503  502  0.00000000000E+00  0.00000000000E+00  0.27164022844E+01  0.27164022844E+01  0.00000000000E+00 0.  1.
         21   -1    0    0  501  503 -0.00000000000E+00 -0.00000000000E+00 -0.30928179005E+03  0.30928179005E+03  0.00000000000E+00 0. -1.
          2    1    1    2  501    0  0.39761584094E+01  0.27622118691E+02 -0.19543569925E+03  0.19741809394E+03  0.00000000000E+00 0. -1.
         -2    1    1    2    0  502 -0.39761584094E+01 -0.27622118691E+02 -0.11112968851E+03  0.11458009839E+03  0.00000000000E+00 0.  1.
</event>
<event>
 4    1  0.1820060E+004  0.2091881E+02  0.7546771E-02  0.1520427E+00
         21   -1    0    0  503  502  0.00000000000E+00  0.00000000000E+00  0.35578261737E+03  0.35578261737E+03  0.00000000000E+00 0.  1.
         21   -1    0    0  501  503 -0.00000000000E+00 -0.00000000000E+00 -0.15055349862E+02  0.15055349862E+02  0.00000000000E+00 0. -1.
          2    1    1    2  501    0 -0.18802062948E+02 -0.91694568303E+01 -0.73200487192E+01  0.22162572570E+02  0.00000000000E+00 0. -1.
         -2    1    1    2    0  502  0.18802062948E+02  0.91694568303E+01  0.34804731623E+03  0.34867539466E+03  0.00000000000E+00 0.  1.
</event>
<event>
 4    1  0.1820060E+004  0.2880364E+02  0.7546771E-02  0.1430286E+00
         21   -1    0    0  501  502  0.00000000000E+00  0.00000000000E+00  0.10603375102E+02  0.10603375102E+02  0.00000000000E+00 0.  1.
         21   -1    0    0  502  503 -0.00000000000E+00 -0.00000000000E+00 -0.32129071388E+03  0.32129071388E+03  0.00000000000E+00 0. -1.
          2    1    1    2  501    0 -0.19425191529E+02  0.21267620228E+02 -0.11010757050E+02  0.30836447703E+02  0.00000000000E+00 0.  1.
         -2    1    1    2    0  503  0.19425191529E+02 -0.21267620228E+02 -0.29967658173E+03  0.30105764128E+03  0.00000000000E+00 0. -1.
</event>
<event>
 4    1  0.1820060E+004  0.2408600E+02  0.7546771E-02  0.1479294E+00
         21   -1    0    0  501  502  0.00000000000E+00  0.00000000000E+00  0.34863387354E+01  0.34863387354E+01  0.00000000000E+00 0. -1.
         21   -1    0    0  502  503 -0.00000000000E+00 -0.00000000000E+00 -0.30700355783E+03  0.30700355783E+03  0.00000000000E+00 0.  1.
          2    1    1    2  501    0 -0.23218081075E+02 -0.64075216569E+01 -0.46697978683E+02  0.52543665990E+02  0.00000000000E+00 0. -1.
         -2    1    1    2    0  503  0.23218081075E+02  0.64075216569E+01 -0.25681924041E+03  0.25794623058E+03  0.00000000000E+00 0.  1.
</event>
<event>
 4    1  0.1820060E+004  0.2394522E+02  0.7546771E-02  0.1480958E+00
         21   -1    0    0  501  502  0.00000000000E+00  0.00000000000E+00  0.23189191188E+02  0.23189191188E+02  0.00000000000E+00 0.  1.
         21   -1    0    0  502  503 -0.00000000000E+00 -0.00000000000E+00 -0.29011299155E+02  0.29011299155E+02  0.00000000000E+00 0. -1.
          2    1    1    2  501    0  0.15774411495E+02  0.18015034395E+02  0.71202376548E+01  0.24981419226E+02  0.00000000000E+00 0.  1.
         -2    1    1    2    0  503 -0.15774411495E+02 -0.18015034395E+02 -0.12942345622E+02  0.27219071117E+02  0.00000000000E+00 0. -1.
</event>
<event>
 4    1  0.1820060E+004  0.1044384E+03  0.7546771E-02  0.1156332E+00
         21   -1    0    0  503  502  0.00000000000E+00  0.00000000000E+00  0.10985591044E+03  0.10985591044E+03  0.00000000000E+00 0.  1.
         21   -1    0    0  501  503 -0.00000000000E+00 -0.00000000000E+00 -0.99288468977E+02  0.99288468977E+02  0.00000000000E+00 0. -1.
          2    1    1    2  501    0  0.94596990328E+02  0.44258257297E+02  0.50803895571E+01  0.10456191599E+03  0.00000000000E+00 0. -1.
         -2    1    1    2    0  502 -0.94596990328E+02 -0.44258257297E+02  0.54870519108E+01  0.10458246343E+03  0.00000000000E+00 0.  1.
</event>
<event>
 4    1  0.1820060E+004  0.2547989E+02  0.7546771E-02  0.1463506E+00
         21   -1    0    0  501  502  0.00000000000E+00  0.00000000000E+00  0.38626955938E+03  0.38626955938E+03  0.00000000000E+00 0.  1.
         21   -1    0    0  502  503 -0.00000000000E+00 -0.00000000000E+00 -0.21810781980E+01  0.21810781980E+01  0.00000000000E+00 0. -1.
          2    1    1    2  501    0 -0.36883502428E+01  0.25211519007E+02  0.28506832502E+03  0.28620477730E+03  0.00000000000E+00 0.  1.
         -2    1    1    2    0  503  0.36883502428E+01 -0.25211519007E+02  0.99020156166E+02  0.10224586028E+03  0.00000000000E+00 0. -1.
</event>
<event>
 4    1  0.1820060E+004  0.2715052E+02  0.7546771E-02  0.1446102E+00
         21   -1    0    0  501  502  0.00000000000E+00  0.00000000000E+00  0.27852922354E+03  0.27852922354E+03  0.00000000000E+00 0.  1.
         21   -1    0    0  502  503 -0.00000000000E+00 -0.00000000000E+00 -0.78873454478E+01  0.78873454478E+01  0.00000000000E+00 0. -1.
          2    1    1    2  501    0  0.42369705663E+01 -0.26817882925E+02  0.25205563058E+03  0.25351369129E+03  0.00000000000E+00 0.  1.
         -2    1    1    2    0  503 -0.42369705663E+01  0.26817882925E+02  0.18586247508E+02  0.32902877695E+02  0.00000000000E+00 0. -1.
</event>
<event>
 4    1  0.1820060E+004  0.2308525E+02  0.7546771E-02  0.1491430E+00
         21   -1    0    0  501  502  0.00000000000E+00  0.00000000000E+00  0.26813157412E+02  0.26813157412E+02  0.00000000000E+00 0. -1.
         21   -1    0    0  502  503 -0.00000000000E+00 -0.00000000000E+00 -0.29327233191E+02  0.29327233191E+02  0.00000000000E+00 0.  1.
          2    1    1    2  501    0  0.22596426596E+02 -0.47254750458E+01  0.14678342883E+02  0.27356577986E+02  0.00000000000E+00 0. -1.
         -2    1    1    2    0  503 -0.22596426596E+02  0.47254750458E+01 -0.17192418662E+02  0.28783812617E+02  0.00000000000E+00 0.  1.
</event>
<event>
 4    1  0.1820060E+004  0.2252614E+02  0.7546771E-02  0.1498536E+00
         21   -1    0    0  501  502  0.00000000000E+00  0.00000000000E+00  0.63009334691E+00  0.63009334691E+00  0.00000000000E+00 0. -1.
         21   -1    0    0  502  503 -0.00000000000E+00 -0.00000000000E+00 -0.80613982306E+03  0.80613982306E+03  0.00000000000E+00 0.  1.
          2    1    1    2  501    0  0.20493998917E+02  0.93500208523E+01 -0.38989224547E+03  0.39054243042E+03  0.00000000000E+00 0. -1.
         -2    1    1    2    0  503 -0.20493998917E+02 -0.93500208523E+01 -0.41561748424E+03  0.41622748598E+03  0.00000000000E+00 0.  1.
</event>
<event>
 4    1  0.1820060E+004  0.2029092E+02  0.7546771E-02  0.1529634E+00
         21   -1    0    0  501  502  0.00000000000E+00  0.00000000000E+00  0.14225072555E+01  0.14225072555E+01  0.00000000000E+00 0. -1.
         21   -1    0    0  502  503 -0.00000000000E+00 -0.00000000000E+00 -0.72908462346E+03  0.72908462346E+03  0.00000000000E+00 0.  1.
          2    1    1    2  501    0 -0.54341284379E+01 -0.19549723971E+02 -0.80196256767E+02  0.82723400913E+02  0.00000000000E+00 0. -1.
         -2    1    1    2    0  503  0.54341284379E+01  0.19549723971E+02 -0.64746585944E+03  0.64778372981E+03  0.00000000000E+00 0.  1.
</event>
<event>
 4    1  0.1820060E+004  0.2110567E+02  0.7546771E-02  0.1517761E+00
         21   -1    0    0  501  502  0.00000000000E+00  0.00000000000E+00  0.35516431514E+02  0.35516431514E+02  0.00000000000E+00 0.  1.
         21   -1    0    0  502  503 -0.00000000000E+00 -0.00000000000E+00 -0.16516673646E+02  0.16516673646E+02  0.00000000000E+00 0. -1.
          2    1    1    2  501    0 -0.20809706897E+02 -0.35221057032E+01  0.22262387461E+02  0.30676750565E+02  0.00000000000E+00 0.  1.
         -2    1    1    2    0  503  0.20809706897E+02  0.35221057032E+01 -0.32626295935E+01  0.21356354595E+02  0.00000000000E+00 0. -1.
</event>
<event>
 4    1  0.1820060E+004  0.3048387E+02  0.7546771E-02  0.1415437E+00
         21   -1    0    0  501  502  0.00000000000E+00  0.00000000000E+00  0.29768861171E+02  0.29768861171E+02  0.00000000000E+00 0.  1.
         21   -1    0    0  502  503 -0.00000000000E+00 -0.00000000000E+00 -0.61460419248E+02  0.61460419248E+02  0.00000000000E+00 0. -1.
          2    1    1    2  501    0 -0.25398777073E+02 -0.16857297348E+02  0.16152655962E+02  0.34498907886E+02  0.00000000000E+00 0.  1.
         -2    1    1    2    0  503  0.25398777073E+02  0.16857297348E+02 -0.47844214039E+02  0.56730372533E+02  0.00000000000E+00 0. -1.
</event>
<event>
 4    1  0.1820060E+004  0.2000962E+02  0.7546771E-02  0.1533889E+00
         21   -1    0    0  501  502  0.00000000000E+00  0.00000000000E+00  0.80283642177E+01  0.80283642177E+01  0.00000000000E+00 0.  1.
         21   -1    0    0  502  503 -0.00000000000E+00 -0.00000000000E+00 -0.76978380002E+02  0.76978380002E+02  0.00000000000E+00 0. -1.
          2    1    1    2  501    0  0.17244463703E+02  0.10149547919E+02 -0.92529521481E+01  0.22045452475E+02  0.00000000000E+00 0.  1.
         -2    1    1    2    0  503 -0.17244463703E+02 -0.10149547919E+02 -0.59697063636E+02  0.62961291745E+02  0.00000000000E+00 0. -1.
</event>
<event>
 4    1  0.1820060E+004  0.2273918E+02  0.7546771E-02  0.1495800E+00
         21   -1    0    0  501  502  0.00000000000E+00  0.00000000000E+00  0.27703448604E+02  0.27703448604E+02  0.00000000000E+00 0.  1.
         21   -1    0    0  502  503 -0.00000000000E+00 -0.00000000000E+00 -0.20786815830E+03  0.20786815830E+03  0.00000000000E+00 0. -1.
          2    1    1    2  501    0  0.22453204312E+02 -0.35949716476E+01  0.22291107694E+02  0.31842796473E+02  0.00000000000E+00 0.  1.
         -2    1    1    2    0  503 -0.22453204312E+02  0.35949716476E+01 -0.20245581739E+03  0.20372881043E+03  0.00000000000E+00 0. -1.
</event>
<event>
 4    1  0.1820060E+004  0.3253041E+02  0.7546771E-02  0.1398809E+00
         21   -1    0    0  501  502  0.00000000000E+00  0.00000000000E+00  0.20403015483E+03  0.20403015483E+03  0.00000000000E+00 0.  1.
         21   -1    0    0  502  503 -0.00000000000E+00 -0.00000000000E+00 -0.59275097809E+01  0.59275097809E+01  0.00000000000E+00 0. -1.
          2    1    1    2  501    0 -0.99028872543E+01 -0.30986453666E+02  0.13616564452E+03  0.13999753653E+03  0.00000000000E+00 0.  1.
         -2    1    1    2    0  503  0.99028872543E+01  0.30986453666E+02  0.61937000538E+02  0.69960128090E+02  0.00000000000E+00 0. -1.
</event>
<event>
 4    1  0.1820060E+004  0.2186222E+02  0.7546771E-02  0.1507302E+00
         21   -1    0    0  501  502  0.00000000000E+00  0.00000000000E+00  0.52636007032E+00  0.52636007032E+00  0.00000000000E+00 0.  1.
         21   -1    0    0  502  503 -0.00000000000E+00 -0.00000000000E+00 -0.91597427671E+03  0.91597427671E+03  0.00000000000E+00 0. -1.
          2    1    1    2  501    0 -0.19267535474E+02  0.10330472302E+02 -0.41507735040E+03  0.41565269564E+03  0.00000000000E+00 0.  1.
         -2    1    1    2    0  503  0.19267535474E+02 -0.10330472302E+02 -0.50037056624E+03  0.50084794113E+03  0.00000000000E+00 0. -1.
</event>
<event>
 4    1  0.1820060E+004  0.2105264E+02  0.7546771E-02  0.1518515E+00
         21   -1    0    0  501  502  0.00000000000E+00  0.00000000000E+00  0.37204581268E+02  0.37204581268E+02  0.00000000000E+00 0. -1.
         21   -1    0    0  502  503 -0.00000000000E+00 -0.00000000000E+00 -0.14590538888E+02  0.14590538888E+02  0.00000000000E+00 0.  1.
          2    1    1    2  501    0  0.13687376387E+02  0.15995912695E+02  0.22401356325E+02  0.30741409540E+02  0.00000000000E+00 0. -1.
         -2    1    1    2    0  503 -0.13687376387E+02 -0.15995912695E+02  0.21268605499E+00  0.21053710615E+02  0.00000000000E+00 0.  1.
</event>
<event>
 4    1  0.1820060E+004  0.2293752E+02  0.7546771E-02  0.1493284E+00
         21   -1    0    0  501  502  0.00000000000E+00  0.00000000000E+00  0.10641476814E+02  0.10641476814E+02  0.00000000000E+00 0.  1.
         21   -1    0    0  502  503 -0.00000000000E+00 -0.00000000000E+00 -0.64645667298E+02  0.64645667298E+02  0.00000000000E+00 0. -1.
          2    1    1    2  501    0 -0.13878024524E+02  0.18262804682E+02 -0.87461742976E+01  0.24548424886E+02  0.00000000000E+00 0.  1.
         -2    1    1    2    0  503  0.13878024524E+02 -0.18262804682E+02 -0.45258016187E+02  0.50738719226E+02  0.00000000000E+00 0. -1.
</event>
<event>
 4    1  0.1820060E+004  0.3319227E+02  0.7546771E-02  0.1393738E+00
         21   -1    0    0  503  502  0.00000000000E+00  0.00000000000E+00  0.52331814849E+01  0.52331814849E+01  0.00000000000E+00 0.  1.
         21   -1    0    0  501  503 -0.00000000000E+00 -0.00000000000E+00 -0.24226480165E+03  0.24226480165E+03  0.00000000000E+00 0. -1.
          2    1    1    2  501    0  0.31909649683E+02 -0.91378979298E+01 -0.73725535761E+02  0.80852838816E+02  0.00000000000E+00 0.  1.
         -2    1    1    2    0  502 -0.31909649683E+02  0.91378979298E+01 -0.16330608440E+03  0.16664514432E+03  0.00000000000E+00 0. -1.
</event>
<event>
 4    1  0.1820060E+004  0.2213946E+02  0.7546771E-02  0.1503596E+00
         21   -1    0    0  503  502  0.00000000000E+00  0.00000000000E+00  0.16055551898E+03  0.16055551898E+03  0.00000000000E+00 0. -1.
         21   -1    0    0  501  503 -0.00000000000E+00 -0.00000000000E+00 -0.52997642482E+01  0.52997642482E+01  0.00000000000E+00 0.  1.
          2    1    1    2  501    0  0.10089355377E+02 -0.19706862407E+02  0.23631811284E+02  0.32382372094E+02  0.00000000000E+00 0.  1.
         -2    1    1    2    0  502 -0.10089355377E+02  0.19706862407E+02  0.13162394345E+03  0.13347291113E+03  0.00000000000E+00 0. -1.
</event>
<event>
 4    1  0.1820060E+004  0.2797248E+02  0.7546771E-02  0.1438077E+00
         21   -1    0    0  501  502  0.00000000000E+00  0.00000000000E+00  0.40832221176E+02  0.40832221176E+02  0.00000000000E+00 0.  1.
         21   -1    0    0  502  503 -0.00000000000E+00 -0.00000000000E+00 -0.35221956588E+02  0.35221956588E+02  0.00000000000E+00 0. -1.
          2    1    1    2  501    0  0.66708634399E+00 -0.27964528513E+02  0.28482331522E+02  0.39921210754E+02  0.00000000000E+00 0.  1.
         -2    1    1    2    0  503 -0.66708634399E+00  0.27964528513E+02 -0.22872066934E+02  0.36132967010E+02  0.00000000000E+00 0. -1.
</event>
<event>
 4    1  0.1820060E+004  0.2755594E+02  0.7546771E-02  0.1442102E+00
         21   -1    0    0  501  502  0.00000000000E+00  0.00000000000E+00  0.26276421998E+03  0.26276421998E+03  0.00000000000E+00 0. -1.
         21   -1    0    0  502  503 -0.00000000000E+00 -0.00000000000E+00 -0.45838895740E+01  0.45838895740E+01  0.00000000000E+00 0.  1.
          2    1    1    2  501    0 -0.27541058040E+02  0.90554996733E+00  0.47825597317E+02  0.55196174301E+02  0.00000000000E+00 0.  1.
         -2    1    1    2    0  503  0.27541058040E+02 -0.90554996733E+00  0.21035473309E+03  0.21215193525E+03  0.00000000000E+00 0. -1.
</event>
<event>
 4    1  0.1820060E+004  0.2044662E+02  0.7546771E-02  0.1527314E+00
         21   -1    0    0  503  502  0.00000000000E+00  0.00000000000E+00  0.32920162205E+02  0.32920162205E+02  0.00000000000E+00 0. -1.
         21   -1    0    0  501  503 -0.00000000000E+00 -0.00000000000E+00 -0.12699711751E+02  0.12699711751E+02  0.00000000000E+00 0.  1.
          2    1    1    2  501    0 -0.88247168689E+01  0.18444202542E+02  0.99863239679E+01  0.22755019262E+02  0.00000000000E+00 0. -1.
         -2    1    1    2    0  502  0.88247168689E+01 -0.18444202542E+02  0.10234126485E+02  0.22864854694E+02  0.00000000000E+00 0.  1.
</event>
<event>
 4    1  0.1820060E+004  0.2625518E+02  0.7546771E-02  0.1455237E+00
         21   -1    0    0  503  502  0.00000000000E+00  0.00000000000E+00  0.53983677911E+02  0.53983677911E+02  0.00000000000E+00 0.  1.
         21   -1    0    0  501  503 -0.00000000000E+00 -0.00000000000E+00 -0.19774360393E+02  0.19774360393E+02  0.00000000000E+00 0. -1.
          2    1    1    2  501    0  0.26229701767E+02 -0.11564689486E+01 -0.48452928070E+01  0.26698530626E+02  0.00000000000E+00 0. -1.
         -2    1    1    2    0  502 -0.26229701767E+02  0.11564689486E+01  0.39054610325E+02  0.47059507678E+02  0.00000000000E+00 0.  1.
</event>
<event>
 4    1  0.1820060E+004  0.2446998E+02  0.7546771E-02  0.1474821E+00
         21   -1    0    0  503  502  0.00000000000E+00  0.00000000000E+00  0.97402731964E+03  0.97402731964E+03  0.00000000000E+00 0. -1.
         21   -1    0    0  501  503 -0.00000000000E+00 -0.00000000000E+00 -0.13406110443E+01  0.13406110443E+01  0.00000000000E+00 0.  1.
          2    1    1    2  501    0 -0.24404577939E+02  0.17879387047E+01  0.12749183372E+03  0.12981890392E+03  0.00000000000E+00 0.  1.
         -2    1    1    2    0  502  0.24404577939E+02 -0.17879387047E+01  0.84519487487E+03  0.84554902676E+03  0.00000000000E+00 0. -1.
</event>
<event>
 4    1  0.1820060E+004  0.2416850E+02  0.7546771E-02  0.1478324E+00
         21   -1    0    0  503  502  0.00000000000E+00  0.00000000000E+00  0.27414516670E+03  0.27414516670E+03  0.00000000000E+00 0.  1.
         21   -1    0    0  501  503 -0.00000000000E+00 -0.00000000000E+00 -0.74460293472E+01  0.74460293472E+01  0.00000000000E+00 0. -1.
          2    1    1    2  501    0  0.10093500401E+02 -0.21959905228E+02  0.14391877172E+02  0.28129029782E+02  0.00000000000E+00 0. -1.
         -2    1    1    2    0  502 -0.10093500401E+02  0.21959905228E+02  0.25230726018E+03  0.25346216626E+03  0.00000000000E+00 0.  1.
</event>
<event>
 4    1  0.1820060E+004  0.4204010E+02  0.7546771E-02  0.1336928E+00
         21   -1    0    0  501  502  0.00000000000E+00  0.00000000000E+00  0.44703543698E+03  0.44703543698E+03  0.00000000000E+00 0. -1.
         21   -1    0    0  502  503 -0.00000000000E+00 -0.00000000000E+00 -0.51969514032E+01  0.51969514032E+01  0.00000000000E+00 0.  1.
          2    1    1    2  501    0 -0.41740849178E+02  0.50071148310E+01  0.33152197441E+03  0.33417688311E+03  0.00000000000E+00 0. -1.
         -2    1    1    2    0  503  0.41740849178E+02 -0.50071148310E+01  0.11031651116E+03  0.11805550527E+03  0.00000000000E+00 0.  1.
</event>
<event>
 4    1  0.1820060E+004  0.4082714E+02  0.7546771E-02  0.1343706E+00
         21   -1    0    0  503  502  0.00000000000E+00  0.00000000000E+00  0.89423417903E+02  0.89423417903E+02  0.00000000000E+00 0.  1.
         21   -1    0    0  501  503 -0.00000000000E+00 -0.00000000000E+00 -0.33308082940E+02  0.33308082940E+02  0.00000000000E+00 0. -1.
          2    1    1    2  501    0 -0.34652211784E+02 -0.21588879587E+02 -0.12665112100E+02  0.42746468484E+02  0.00000000000E+00 0. -1.
         -2    1    1    2    0  502  0.34652211784E+02  0.21588879587E+02  0.68780447063E+02  0.79985032360E+02  0.00000000000E+00 0.  1.
</event>
<event>
 4    1  0.1820060E+004  0.2566369E+02  0.7546771E-02  0.1461514E+00
         21   -1    0    0  503  502  0.00000000000E+00  0.00000000000E+00  0.12072113162E+01  0.12072113162E+01  0.00000000000E+00 0. -1.
         21   -1    0    0  501  503 -0.00000000000E+00 -0.00000000000E+00 -0.60234217455E+03  0.60234217455E+03  0.00000000000E+00 0.  1.
          2    1    1    2  501    0  0.65359151971E+01  0.24817469747E+02 -0.20792553528E+03  0.20950334893E+03  0.00000000000E+00 0.  1.
         -2    1    1    2    0  502 -0.65359151971E+01 -0.24817469747E+02 -0.39320942796E+03  0.39404603694E+03  0.00000000000E+00 0. -1.
</event>
<event>
 4    1  0.1820060E+004  0.3061220E+02  0.7546771E-02  0.1414350E+00
         21   -1    0    0  503  502  0.00000000000E+00  0.00000000000E+00  0.16636536496E+03  0.16636536496E+03  0.00000000000E+00 0.  1.
         21   -1    0    0  501  503 -0.00000000000E+00 -0.00000000000E+00 -0.20825999036E+02  0.20825999036E+02  0.00000000000E+00 0. -1.
          2    1    1    2  501    0 -0.14547279562E+02  0.26934794607E+02 -0.71727182821E+01  0.31441284813E+02  0.00000000000E+00 0. -1.
         -2    1    1    2    0  502  0.14547279562E+02 -0.26934794607E+02  0.15271208420E+03  0.15575007918E+03  0.00000000000E+00 0.  1.
</event>
<event>
 4    1  0.1820060E+004  0.2460946E+02  0.7546771E-02  0.1473220E+00
         21   -1    0    0  501  502  0.00000000000E+00  0.00000000000E+00  0.37610597174E+02  0.37610597174E+02  0.00000000000E+00 0.  1.
         21   -1    0    0  502  503 -0.00000000000E+00 -0.00000000000E+00 -0.16636292671E+02  0.16636292671E+02  0.00000000000E+00 0. -1.
          2    1    1    2  501    0 -0.16300674488E+02  0.18436740834E+02  0.56287367803E+01  0.25244961459E+02  0.00000000000E+00 0.  1.
         -2    1    1    2    0  503  0.16300674488E+02 -0.18436740834E+02  0.15345567723E+02  0.29001928386E+02  0.00000000000E+00 0. -1.
</event>
<event>
 4    1  0.1820060E+004  0.6508304E+02  0.7546771E-02  0.1243476E+00
         21   -1    0    0  501  502  0.00000000000E+00  0.00000000000E+00  0.61405335308E+02  0.61405335308E+02  0.00000000000E+00 0.  1.
         21   -1    0    0  502  503 -0.00000000000E+00 -0.00000000000E+00 -0.10022337848E+03  0.10022337848E+03  0.00000000000E+00 0. -1.
          2    1    1    2  501    0 -0.25698056360E+02  0.59794752117E+02  0.25711688753E+02  0.69977806624E+02  0.00000000000E+00 0.  1.
         -2    1    1    2    0  503  0.25698056360E+02 -0.59794752117E+02 -0.64529731921E+02  0.91650907160E+02  0.00000000000E+00 0. -1.
</event>
<event>
 4    1  0.1820060E+004  0.5608480E+02  0.7546771E-02  0.1273748E+00
         21   -1    0    0  501  502  0.00000000000E+00  0.00000000000E+00  0.15019310097E+03  0.15019310097E+03  0.00000000000E+00 0. -1.
         21   -1    0    0  502  503 -0.00000000000E+00 -0.00000000000E+00 -0.20949250570E+02  0.20949250570E+02  0.00000000000E+00 0.  1.
          2    1    1    2  501    0 -0.17449764616E+02  0.53301126478E+02  0.66091927095E+02  0.86681296691E+02  0.00000000000E+00 0. -1.
         -2    1    1    2    0  503  0.17449764616E+02 -0.53301126478E+02  0.63151923305E+02  0.84461054848E+02  0.00000000000E+00 0.  1.
</event>
<event>
 4    1  0.1820060E+004  0.2167367E+02  0.7546771E-02  0.1509860E+00
         21   -1    0    0  501  502  0.00000000000E+00  0.00000000000E+00  0.28286784114E+01  0.28286784114E+01  0.00000000000E+00 0.  1.
         21   -1    0    0  502  503 -0.00000000000E+00 -0.00000000000E+00 -0.53770278136E+03  0.53770278136E+03  0.00000000000E+00 0. -1.
          2    1    1    2  501    0 -0.16648098237E+02  0.13877639858E+02 -0.42749491574E+02  0.47929814237E+02  0.00000000000E+00 0.  1.
         -2    1    1    2    0  503  0.16648098237E+02 -0.13877639858E+02 -0.49212461138E+03  0.49260164554E+03  0.00000000000E+00 0. -1.
</event>
<event>
 4    1  0.1820060E+004  0.2355470E+02  0.7546771E-02  0.1485648E+00
         21   -1    0    0  501  502  0.00000000000E+00  0.00000000000E+00  0.17019451959E+03  0.17019451959E+03  0.00000000000E+00 0.  1.
         21   -1    0    0  502  503 -0.00000000000E+00 -0.00000000000E+00 -0.34968505469E+01  0.34968505469E+01  0.00000000000E+00 0. -1.
          2    1    1    2  501    0 -0.95804327827E+01 -0.21518347889E+02  0.60743988559E+02  0.65151025581E+02  0.00000000000E+00 0. -1.
         -2    1    1    2    0  503  0.95804327827E+01  0.21518347889E+02  0.10595368049E+03  0.10854034456E+03  0.00000000000E+00 0.  1.
</event>
<event>
 4    1  0.1820060E+004  0.3129718E+02  0.7546771E-02  0.1408649E+00
         21   -1    0    0  501  502  0.00000000000E+00  0.00000000000E+00  0.94615519838E+01  0.94615519838E+01  0.00000000000E+00 0. -1.
         21   -1    0    0  502  503 -0.00000000000E+00 -0.00000000000E+00 -0.71628299276E+03  0.71628299276E+03  0.00000000000E+00 0.  1.
          2    1    1    2  501    0  0.15345644167E+02  0.27276812464E+02 -0.17784619429E+02  0.35997305195E+02  0.00000000000E+00 0. -1.
         -2    1    1    2    0  503 -0.15345644167E+02 -0.27276812464E+02 -0.68903682135E+03  0.68974723955E+03  0.00000000000E+00 0.  1.
</event>
<event>
 4    1  0.1820060E+004  0.2330945E+02  0.7546771E-02  0.1488649E+00
         21   -1    0    0  503  502  0.00000000000E+00  0.00000000000E+00  0.13360640609E+02  0.13360640609E+02  0.00000000000E+00 0. -1.
         21   -1    0    0  501  503 -0.00000000000E+00 -0.00000000000E+00 -0.63385989700E+02  0.63385989700E+02  0.00000000000E+00 0.  1.
          2    1    1    2  501    0 -0.23251467966E+02 -0.16430501615E+01 -0.47986433025E+02  0.53348178328E+02  0.00000000000E+00 0.  1.
         -2    1    1    2    0  502  0.23251467966E+02  0.16430501615E+01 -0.20389160649E+01  0.23398451981E+02  0.00000000000E+00 0. -1.
</event>
<event>
 4    1  0.1820060E+004  0.2188511E+02  0.7546771E-02  0.1506993E+00
         21   -1    0    0  503  502  0.00000000000E+00  0.00000000000E+00  0.11194228862E+01  0.11194228862E+01  0.00000000000E+00 0. -1.
         21   -1    0    0  501  503 -0.00000000000E+00 -0.00000000000E+00 -0.77802419251E+03  0.77802419251E+03  0.00000000000E+00 0.  1.
          2    1    1    2  501    0  0.52622213338E+01 -0.21243052202E+02 -0.64980433701E+03  0.65017277291E+03  0.00000000000E+00 0.  1.
         -2    1    1    2    0  502 -0.52622213338E+01  0.21243052202E+02 -0.12710043261E+03  0.12897084248E+03  0.00000000000E+00 0. -1.
</event>
<event>
 4    1  0.1820060E+004  0.3093236E+02  0.7546771E-02  0.1411663E+00
         21   -1    0    0  503  502  0.00000000000E+00  0.00000000000E+00  0.45144540752E+02  0.45144540752E+02  0.00000000000E+00 0. -1.
         21   -1    0    0  501  503 -0.00000000000E+00 -0.00000000000E+00 -0.22546121068E+02  0.22546121068E+02  0.00000000000E+00 0.  1.
          2    1    1    2  501    0  0.89269307012E+01  0.29616230016E+02  0.30120179780E+01  0.31078665100E+02  0.00000000000E+00 0. -1.
         -2    1    1    2    0  502 -0.89269307012E+01 -0.29616230016E+02  0.19586401706E+02  0.36611996720E+02  0.00000000000E+00 0.  1.
</event>
<event>
 4    1  0.1820060E+004  0.2362837E+02  0.7546771E-02  0.1484755E+00
         21   -1    0    0  503  502  0.00000000000E+00  0.00000000000E+00  0.14244135555E+01  0.14244135555E+01  0.00000000000E+00 0. -1.
         21   -1    0    0  501  503 -0.00000000000E+00 -0.00000000000E+00 -0.47888077282E+03  0.47888077282E+03  0.00000000000E+00 0.  1.
          2    1    1    2  501    0  0.23029791034E+02 -0.52847481863E+01 -0.34104774642E+03  0.34186527343E+03  0.00000000000E+00 0.  1.
         -2    1    1    2    0  502 -0.23029791034E+02  0.52847481863E+01 -0.13640861284E+03  0.13843991294E+03  0.00000000000E+00 0. -1.
</event>
<event>
 4    1  0.1820060E+004  0.2470658E+02  0.7546771E-02  0.1472113E+00
         21   -1    0    0  503  502  0.00000000000E+00  0.00000000000E+00  0.53276857000E+02  0.53276857000E+02  0.00000000000E+00 0. -1.
         21   -1    0    0  501  503 -0.00000000000E+00 -0.00000000000E+00 -0.15617518784E+02  0.15617518784E+02  0.00000000000E+00 0.  1.
          2    1    1    2  501    0  0.22799765762E+01  0.24601152908E+02  0.10509740821E+01  0.24728921613E+02  0.00000000000E+00 0.  1.
         -2    1    1    2    0  502 -0.22799765762E+01 -0.24601152908E+02  0.36608364134E+02  0.44165454171E+02  0.00000000000E+00 0. -1.
</event>
<event>
 4    1  0.1820060E+004  0.2166333E+02  0.7546771E-02  0.1510001E+00
         21   -1    0    0  501  502  0.00000000000E+00  0.00000000000E+00  0.28104158551E+02  0.28104158551E+02  0.00000000000E+00 0. -1.
         21   -1    0    0  502  503 -0.00000000000E+00 -0.00000000000E+00 -0.16796049275E+02  0.16796049275E+02  0.00000000000E+00 0.  1.
          2    1    1    2  501    0  0.21132444482E+02 -0.47664973493E+01  0.73642094382E+01  0.22880806092E+02  0.00000000000E+00 0. -1.
         -2    1    1    2    0  503 -0.21132444482E+02  0.47664973493E+01  0.39438998376E+01  0.22019401734E+02  0.00000000000E+00 0.  1.
</event>
<event>
 4    1  0.1820060E+004  0.2640282E+02  0.7546771E-02  0.1453701E+00
         21   -1    0    0  503  502  0.00000000000E+00  0.00000000000E+00  0.16686766711E+03  0.16686766711E+03  0.00000000000E+00 0. -1.
         21   -1    0    0  501  503 -0.00000000000E+00 -0.00000000000E+00 -0.11879760188E+02  0.11879760188E+02  0.00000000000E+00 0.  1.
          2    1    1    2  501    0  0.15457254430E+02  0.21405187185E+02  0.55305263939E+01  0.26975831315E+02  0.00000000000E+00 0.  1.
         -2    1    1    2    0  502 -0.15457254430E+02 -0.21405187185E+02  0.14945738053E+03  0.15177159598E+03  0.00000000000E+00 0. -1.
</event>
<event>
 4    1  0.1820060E+004  0.3869376E+02  0.7546771E-02  0.1356315E+00
         21   -1    0    0  503  502  0.00000000000E+00  0.00000000000E+00  0.17299187016E+02  0.17299187016E+02  0.00000000000E+00 0.  1.
         21   -1    0    0  501  503 -0.00000000000E+00 -0.00000000000E+00 -0.27768650655E+03  0.27768650655E+03  0.00000000000E+00 0. -1.
          2    1    1    2  501    0 -0.30702246876E+02  0.23549504343E+02 -0.25256165798E+03  0.25550850905E+03  0.00000000000E+00 0. -1.
         -2    1    1    2    0  502  0.30702246876E+02 -0.23549504343E+02 -0.78256615517E+01  0.39477184509E+02  0.00000000000E+00 0.  1.
</event>
<event>
 4    1  0.1820060E+004  0.2100449E+02  0.7546771E-02  0.1519201E+00
         21   -1    0    0  501  502  0.00000000000E+00  0.00000000000E+00  0.44566056159E+01  0.44566056159E+01  0.00000000000E+00 0.  1.
         21   -1    0    0  502  503 -0.00000000000E+00 -0.00000000000E+00 -0.10665514595E+03  0.10665514595E+03  0.00000000000E+00 0. -1.
          2    1    1    2  501    0  0.68017751693E+00  0.20993472556E+02 -0.65986503096E+02  0.69248878130E+02  0.00000000000E+00 0. -1.
         -2    1    1    2    0  503 -0.68017751693E+00 -0.20993472556E+02 -0.36212037240E+02  0.41862873438E+02  0.00000000000E+00 0.  1.
</event>
<event>
 4    1  0.1820060E+004  0.2153338E+02  0.7546771E-02  0.1511784E+00
         21   -1    0    0  501  502  0.00000000000E+00  0.00000000000E+00  0.14665754580E+03  0.14665754580E+03  0.00000000000E+00 0.  1.
         21   -1    0    0  502  503 -0.00000000000E+00 -0.00000000000E+00 -0.10731430081E+02  0.10731430081E+02  0.00000000000E+00 0. -1.
          2    1    1    2  501    0 -0.14959003540E+02 -0.15489184422E+02  0.13405611132E+03  0.13577454697E+03  0.00000000000E+00 0.  1.
         -2    1    1    2    0  503  0.14959003540E+02  0.15489184422E+02  0.18700043989E+01  0.21614428918E+02  0.00000000000E+00 0. -1.
</event>
<event>
 4    1  0.1820060E+004  0.2399358E+02  0.7546771E-02  0.1480385E+00
         21   -1    0    0  503  502  0.00000000000E+00  0.00000000000E+00  0.23392962142E+01  0.23392962142E+01  0.00000000000E+00 0.  1.
         21   -1    0    0  501  503 -0.00000000000E+00 -0.00000000000E+00 -0.24614918106E+03  0.24614918106E+03  0.00000000000E+00 0. -1.
          2    1    1    2  501    0  0.16098012382E+02 -0.17791735624E+02 -0.12372810189E+03  0.12603307128E+03  0.00000000000E+00 0. -1.
         -2    1    1    2    0  502 -0.16098012382E+02  0.17791735624E+02 -0.12008178295E+03  0.12245540599E+03  0.00000000000E+00 0.  1.
</event>
<event>
 4    1  0.1820060E+004  0.2522116E+02  0.7546771E-02  0.1466344E+00
         21   -1    0    0  503  502  0.00000000000E+00  0.00000000000E+00  0.14737884485E+02  0.14737884485E+02  0.00000000000E+00 0. -1.
         21   -1    0    0  501  503 -0.00000000000E+00 -0.00000000000E+00 -0.58064841557E+02  0.58064841557E+02  0.00000000000E+00 0.  1.
          2    1    1    2  501    0  0.58556380454E+01 -0.24531988684E+02 -0.40105352965E+02  0.47376643002E+02  0.00000000000E+00 0.  1.
         -2    1    1    2    0  502 -0.58556380454E+01  0.24531988684E+02 -0.32216041072E+01  0.25426083039E+02  0.00000000000E+00 0. -1.
</event>
<event>
 4    1  0.1820060E+004  0.3283796E+02  0.7546771E-02  0.1396435E+00
         21   -1    0    0  501  502  0.00000000000E+00  0.00000000000E+00  0.64627780999E+01  0.64627780999E+01  0.00000000000E+00 0. -1.
         21   -1    0    0  502  503 -0.00000000000E+00 -0.00000000000E+00 -0.22047871382E+03  0.22047871382E+03  0.00000000000E+00 0.  1.
          2    1    1    2  501    0  0.34820850821E+01  0.32652821313E+02 -0.51046572542E+02  0.60696657440E+02  0.00000000000E+00 0. -1.
         -2    1    1    2    0  503 -0.34820850821E+01 -0.32652821313E+02 -0.16296936317E+03  0.16624483448E+03  0.00000000000E+00 0.  1.
</event>
<event>
 4    1  0.1820060E+004  0.2671653E+02  0.7546771E-02  0.1450477E+00
         21   -1    0    0  501  502  0.00000000000E+00  0.00000000000E+00  0.89565247096E+01  0.89565247096E+01  0.00000000000E+00 0. -1.
         21   -1    0    0  502  503 -0.00000000000E+00 -0.00000000000E+00 -0.14427811991E+03  0.14427811991E+03  0.00000000000E+00 0.  1.
          2    1    1    2  501    0  0.24782070377E+02  0.99810815584E+01 -0.16399131983E+02  0.31348118461E+02  0.00000000000E+00 0. -1.
         -2    1    1    2    0  503 -0.24782070377E+02 -0.99810815584E+01 -0.11892246322E+03  0.12188652616E+03  0.00000000000E+00 0.  1.
</event>
<event>
 4    1  0.1820060E+004  0.6216764E+02  0.7546771E-02  0.1252640E+00
         21   -1    0    0  501  502  0.00000000000E+00  0.00000000000E+00  0.38587779624E+02  0.38587779624E+02  0.00000000000E+00 0. -1.
         21   -1    0    0  502  503 -0.00000000000E+00 -0.00000000000E+00 -0.10286488380E+03  0.10286488380E+03  0.00000000000E+00 0.  1.
          2    1    1    2  501    0 -0.19106818299E+02 -0.59158640628E+02 -0.20662139173E+02  0.65511367423E+02  0.00000000000E+00 0. -1.
         -2    1    1    2    0  503  0.19106818299E+02  0.59158640628E+02 -0.43614965008E+02  0.75941296006E+02  0.00000000000E+00 0.  1.
</event>
<event>
 4    1  0.1820060E+004  0.2414030E+02  0.7546771E-02  0.1478655E+00
         21   -1    0    0  501  502  0.00000000000E+00  0.00000000000E+00  0.12189258570E+03  0.12189258570E+03  0.00000000000E+00 0.  1.
         21   -1    0    0  502  503 -0.00000000000E+00 -0.00000000000E+00 -0.70120464278E+01  0.70120464278E+01  0.00000000000E+00 0. -1.
          2    1    1    2  501    0 -0.97737630966E+01 -0.22073230794E+02  0.93796764828E+02  0.96853430786E+02  0.00000000000E+00 0.  1.
         -2    1    1    2    0  503  0.97737630966E+01  0.22073230794E+02  0.21083774449E+02  0.32051201347E+02  0.00000000000E+00 0. -1.
</event>
<event>
 4    1  0.1820060E+004  0.2516531E+02  0.7546771E-02  0.1466962E+00
         21   -1    0    0  503  502  0.00000000000E+00  0.00000000000E+00  0.42420977414E+03  0.42420977414E+03  0.00000000000E+00 0. -1.
         21   -1    0    0  501  503 -0.00000000000E+00 -0.00000000000E+00 -0.74296134409E+01  0.74296134409E+01  0.00000000000E+00 0.  1.
          2    1    1    2  501    0 -0.23094686949E+02 -0.99964167675E+01  0.15468035654E+02  0.29539008793E+02  0.00000000000E+00 0.  1.
         -2    1    1    2    0  502  0.23094686949E+02  0.99964167675E+01  0.40131212505E+03  0.40210037879E+03  0.00000000000E+00 0. -1.
</event>
<event>
 4    1  0.1820060E+004  0.2206616E+02  0.7546771E-02  0.1504570E+00
         21   -1    0    0  501  502  0.00000000000E+00  0.00000000000E+00  0.10247660524E+02  0.10247660524E+02  0.00000000000E+00 0.  1.
         21   -1    0    0  502  503 -0.00000000000E+00 -0.00000000000E+00 -0.47610953780E+02  0.47610953780E+02  0.00000000000E+00 0. -1.
          2    1    1    2  501    0  0.41014351384E+01  0.21681640694E+02 -0.19981869374E+02  0.29768950554E+02  0.00000000000E+00 0.  1.
         -2    1    1    2    0  503 -0.41014351384E+01 -0.21681640694E+02 -0.17381423882E+02  0.28089663749E+02  0.00000000000E+00 0. -1.
</event>
<event>
 4    1  0.1820060E+004  0.2168226E+02  0.7546771E-02  0.1509743E+00
         21   -1    0    0  501  502  0.00000000000E+00  0.00000000000E+00  0.71711140594E+02  0.71711140594E+02  0.00000000000E+00 0. -1.
         21   -1    0    0  502  503 -0.00000000000E+00 -0.00000000000E+00 -0.67623827524E+01  0.67623827524E+01  0.00000000000E+00 0.  1.
          2    1    1    2  501    0 -0.15039060486E+02  0.15618804357E+02  0.39333077101E+02  0.44913376004E+02  0.00000000000E+00 0.  1.
         -2    1    1    2    0  503  0.15039060486E+02 -0.15618804357E+02  0.25615680741E+02  0.33560147342E+02  0.00000000000E+00 0. -1.
</event>
<event>
 4    1  0.1820060E+004  0.2298322E+02  0.7546771E-02  0.1492709E+00
         21   -1    0    0  501  502  0.00000000000E+00  0.00000000000E+00  0.18216421004E+02  0.18216421004E+02  0.00000000000E+00 0.  1.
         21   -1    0    0  502  503 -0.00000000000E+00 -0.00000000000E+00 -0.21005218151E+03  0.21005218151E+03  0.00000000000E+00 0. -1.
          2    1    1    2  501    0 -0.17592376700E+02 -0.14789751846E+02  0.10045940623E+02  0.25082850728E+02  0.00000000000E+00 0.  1.
         -2    1    1    2    0  503  0.17592376700E+02  0.14789751846E+02 -0.20188170113E+03  0.20318575178E+03  0.00000000000E+00 0. -1.
</event>
<event>
 4    1  0.1820060E+004  0.2169732E+02  0.7546771E-02  0.1509537E+00
         21   -1    0    0  501  502  0.00000000000E+00  0.00000000000E+00  0.16056856664E+02  0.16056856664E+02  0.00000000000E+00 0.  1.
         21   -1    0    0  502  503 -0.00000000000E+00 -0.00000000000E+00 -0.42368171731E+02  0.42368171731E+02  0.00000000000E+00 0. -1.
          2    1    1    2  501    0  0.10730083715E+02  0.18858389653E+02  0.30563903537E+01  0.21911528446E+02  0.00000000000E+00 0. -1.
         -2    1    1    2    0  503 -0.10730083715E+02 -0.18858389653E+02 -0.29367705421E+02  0.36513499949E+02  0.00000000000E+00 0.  1.
</event>
<event>
 4    1  0.1820060E+004  0.3432220E+02  0.7546771E-02  0.1385392E+00
         21   -1    0    0  503  502  0.00000000000E+00  0.00000000000E+00  0.16571916189E+03  0.16571916189E+03  0.00000000000E+00 0. -1.
         21   -1    0    0  501  503 -0.00000000000E+00 -0.00000000000E+00 -0.83662029337E+01  0.83662029337E+01  0.00000000000E+00 0.  1.
          2    1    1    2  501    0 -0.20909227793E+02 -0.27217969989E+02  0.44927696883E+02  0.56537701089E+02  0.00000000000E+00 0. -1.
         -2    1    1    2    0  502  0.20909227793E+02  0.27217969989E+02  0.11242526207E+03  0.11754766373E+03  0.00000000000E+00 0.  1.
</event>
<event>
 4    1  0.1820060E+004  0.4357082E+02  0.7546771E-02  0.1328742E+00
         21   -1    0    0  501  502  0.00000000000E+00  0.00000000000E+00  0.22248925852E+03  0.22248925852E+03  0.00000000000E+00 0.  1.
         21   -1    0    0  502  503 -0.00000000000E+00 -0.00000000000E+00 -0.98569268376E+01  0.98569268376E+01  0.00000000000E+00 0. -1.
          2    1    1    2  501    0 -0.41573802281E+02 -0.13039753032E+02  0.14889847122E+03  0.15514242143E+03  0.00000000000E+00 0.  1.
         -2    1    1    2    0  503  0.41573802281E+02  0.13039753032E+02  0.63733860460E+02  0.77203763926E+02  0.00000000000E+00 0. -1.
</event>
<event>
 4    1  0.1820060E+004  0.2107056E+02  0.7546771E-02  0.1518260E+00
         21   -1    0    0  501  502  0.00000000000E+00  0.00000000000E+00  0.97307374537E+02  0.97307374537E+02  0.00000000000E+00 0.  1.
         21   -1    0    0  502  503 -0.00000000000E+00 -0.00000000000E+00 -0.74105601464E+01  0.74105601464E+01  0.00000000000E+00 0. -1.
          2    1    1    2  501    0 -0.41666334750E+01 -0.20654483681E+02  0.77407567814E+02  0.80224061761E+02  0.00000000000E+00 0.  1.
         -2    1    1    2    0  503  0.41666334750E+01  0.20654483681E+02  0.12489246577E+02  0.24493872922E+02  0.00000000000E+00 0. -1.
</event>
<event>
 4    1  0.1820060E+004  0.2287931E+02  0.7546771E-02  0.1494019E+00
         21   -1    0    0  501  502  0.00000000000E+00  0.00000000000E+00  0.22940266560E+00  0.22940266560E+00  0.00000000000E+00 0. -1.
         21   -1    0    0  502  503 -0.00000000000E+00 -0.00000000000E+00 -0.24305774985E+04  0.24305774985E+04  0.00000000000E+00 0.  1.
          2    1    1    2  501    0 -0.47727536152E+01 -0.22375960102E+02 -0.91452523934E+03  0.91481138830E+03  0.00000000000E+00 0.  1.
         -2    1    1    2    0  503  0.47727536152E+01  0.22375960102E+02 -0.15158228565E+04  0.15159955129E+04  0.00000000000E+00 0. -1.
</event>
<event>
 4    1  0.1820060E+004  0.3446800E+02  0.7546771E-02  0.1384342E+00
         21   -1    0    0  503  502  0.00000000000E+00  0.00000000000E+00  0.10106985361E+02  0.10106985361E+02  0.00000000000E+00 0.  1.
         21   -1    0    0  501  503 -0.00000000000E+00 -0.00000000000E+00 -0.13485764019E+03  0.13485764019E+03  0.00000000000E+00 0. -1.
          2    1    1    2  501    0  0.30957673737E+02 -0.15154717015E+02 -0.88344272080E+02  0.94830129286E+02  0.00000000000E+00 0. -1.
         -2    1    1    2    0  502 -0.30957673737E+02  0.15154717015E+02 -0.36406382753E+02  0.50134496269E+02  0.00000000000E+00 0.  1.
</event>
<event>
 4    1  0.1820060E+004  0.2130060E+02  0.7546771E-02  0.1515016E+00
         21   -1    0    0  501  502  0.00000000000E+00  0.00000000000E+00  0.52243432866E+02  0.52243432866E+02  0.00000000000E+00 0.  1.
         21   -1    0    0  502  503 -0.00000000000E+00 -0.00000000000E+00 -0.21554697107E+02  0.21554697107E+02  0.00000000000E+00 0. -1.
          2    1    1    2  501    0  0.23912245258E+01  0.21165954709E+02  0.43856820452E+02  0.48755884708E+02  0.00000000000E+00 0.  1.
         -2    1    1    2    0  503 -0.23912245258E+01 -0.21165954709E+02 -0.13168084693E+02  0.25042245266E+02  0.00000000000E+00 0. -1.
</event>
<event>
 4    1  0.1820060E+004  0.2474877E+02  0.7546771E-02  0.1471634E+00
         21   -1    0    0  501  502  0.00000000000E+00  0.00000000000E+00  0.44157891237E+01  0.44157891237E+01  0.00000000000E+00 0. -1.
         21   -1    0    0  502  503 -0.00000000000E+00 -0.00000000000E+00 -0.13873666600E+03  0.13873666600E+03  0.00000000000E+00 0.  1.
          2    1    1    2  501    0  0.24404400386E+02  0.41142263449E+01 -0.68204072248E+02  0.72555475933E+02  0.00000000000E+00 0. -1.
         -2    1    1    2    0  503 -0.24404400386E+02 -0.41142263449E+01 -0.66116804625E+02  0.70596979188E+02  0.00000000000E+00 0.  1.
</event>
<event>
 4    1  0.1820060E+004  0.3336865E+02  0.7546771E-02  0.1392410E+00
         21   -1    0    0  503  502  0.00000000000E+00  0.00000000000E+00  0.24179232147E+02  0.24179232147E+02  0.00000000000E+00 0. -1.
         21   -1    0    0  501  503 -0.00000000000E+00 -0.00000000000E+00 -0.11741132717E+03  0.11741132717E+03  0.00000000000E+00 0.  1.
          2    1    1    2  501    0  0.22969863835E+02  0.24204389335E+02 -0.10180842056E+03  0.10713739592E+03  0.00000000000E+00 0.  1.
         -2    1    1    2    0  502 -0.22969863835E+02 -0.24204389335E+02  0.85763255434E+01  0.34453163389E+02  0.00000000000E+00 0. -1.
</event>
<event>
 4    1  0.1820060E+004  0.2403696E+02  0.7546771E-02  0.1479872E+00
         21   -1    0    0  503  502  0.00000000000E+00  0.00000000000E+00  0.10912871016E+03  0.10912871016E+03  0.00000000000E+00 0.  1.
         21   -1    0    0  501  503 -0.00000000000E+00 -0.00000000000E+00 -0.12379935320E+02  0.12379935320E+02  0.00000000000E+00 0. -1.
          2    1    1    2  501    0  0.50536872423E+01  0.23499691762E+02  0.24119402896E+01  0.24157663869E+02  0.00000000000E+00 0. -1.
         -2    1    1    2    0  502 -0.50536872423E+01 -0.23499691762E+02  0.94336834547E+02  0.97350981607E+02  0.00000000000E+00 0.  1.
</event>
<event>
 4    1  0.1820060E+004  0.4624165E+02  0.7546771E-02  0.1315345E+00
         21   -1    0    0  503  502  0.00000000000E+00  0.00000000000E+00  0.15594045509E+02  0.15594045509E+02  0.00000000000E+00 0.  1.
         21   -1    0    0  501  503 -0.00000000000E+00 -0.00000000000E+00 -0.21018191905E+03  0.21018191905E+03  0.00000000000E+00 0. -1.
          2    1    1    2  501    0 -0.36215289675E+02  0.28753141210E+02 -0.30737672706E+02  0.55525623446E+02  0.00000000000E+00 0.  1.
         -2    1    1    2    0  502  0.36215289675E+02 -0.28753141210E+02 -0.16385020084E+03  0.17025034111E+03  0.00000000000E+00 0. -1.
</event>
<event>
 4    1  0.1820060E+004  0.2292972E+02  0.7546771E-02  0.1493383E+00
         21   -1    0    0  503  502  0.00000000000E+00  0.00000000000E+00  0.15394807621E+01  0.15394807621E+01  0.00000000000E+00 0.  1.
         21   -1    0    0  501  503 -0.00000000000E+00 -0.00000000000E+00 -0.39050001530E+03  0.39050001530E+03  0.00000000000E+00 0. -1.
          2    1    1    2  501    0 -0.19595785511E+02  0.11907022898E+02 -0.26389860007E+03  0.26489288991E+03  0.00000000000E+00 0. -1.
         -2    1    1    2    0  502  0.19595785511E+02 -0.11907022898E+02 -0.12506193447E+03  0.12714660616E+03  0.00000000000E+00 0.  1.
</event>
<event>
 4    1  0.1820060E+004  0.3180889E+02  0.7546771E-02  0.1404502E+00
         21   -1    0    0  501  502  0.00000000000E+00  0.00000000000E+00  0.12825058908E+02  0.12825058908E+02  0.00000000000E+00 0.  1.
         21   -1    0    0  502  503 -0.00000000000E+00 -0.00000000000E+00 -0.89895949819E+02  0.89895949819E+02  0.00000000000E+00 0. -1.
          2    1    1    2  501    0 -0.25795594749E+02  0.18611631358E+02 -0.20566747106E+02  0.37878709282E+02  0.00000000000E+00 0. -1.
         -2    1    1    2    0  503  0.25795594749E+02 -0.18611631358E+02 -0.56504143805E+02  0.64842299446E+02  0.00000000000E+00 0.  1.
</event>
<event>
 4    1  0.1820060E+004  0.2006002E+02  0.7546771E-02  0.1533120E+00
         21   -1    0    0  503  502  0.00000000000E+00  0.00000000000E+00  0.28281474274E+02  0.28281474274E+02  0.00000000000E+00 0.  1.
         21   -1    0    0  501  503 -0.00000000000E+00 -0.00000000000E+00 -0.14502649300E+02  0.14502649300E+02  0.00000000000E+00 0. -1.
          2    1    1    2  501    0  0.19714133260E+02 -0.37090761633E+01  0.39484802089E+01  0.20444920938E+02  0.00000000000E+00 0. -1.
         -2    1    1    2    0  502 -0.19714133260E+02  0.37090761633E+01  0.98303447656E+01  0.22339202636E+02  0.00000000000E+00 0.  1.
</event>
<event>
 4    1  0.1820060E+004  0.2966103E+02  0.7546771E-02  0.1422565E+00
         21   -1    0    0  503  502  0.00000000000E+00  0.00000000000E+00  0.69871933495E+01  0.69871933495E+01  0.00000000000E+00 0.  1.
         21   -1    0    0  501  503 -0.00000000000E+00 -0.00000000000E+00 -0.13155890504E+03  0.13155890504E+03  0.00000000000E+00 0. -1.
          2    1    1    2  501    0 -0.26810595914E+02  0.12687338939E+02 -0.76636822882E+02  0.82176512727E+02  0.00000000000E+00 0. -1.
         -2    1    1    2    0  502  0.26810595914E+02 -0.12687338939E+02 -0.47934888808E+02  0.56369585661E+02  0.00000000000E+00 0.  1.
</event>
<event>
 4    1  0.1820060E+004  0.2179861E+02  0.7546771E-02  0.1508161E+00
         21   -1    0    0  501  502  0.00000000000E+00  0.00000000000E+00  0.24818893959E+03  0.24818893959E+03  0.00000000000E+00 0. -1.
         21   -1    0    0  502  503 -0.00000000000E+00 -0.00000000000E+00 -0.45522602395E+01  0.45522602395E+01  0.00000000000E+00 0.  1.
          2    1    1    2  501    0 -0.57889604244E+01 -0.21015883678E+02  0.21801122813E+03  0.21909832273E+03  0.00000000000E+00 0. -1.
         -2    1    1    2    0  503  0.57889604244E+01  0.21015883678E+02  0.25625451212E+02  0.33642877097E+02  0.00000000000E+00 0.  1.
</event>
<event>
 4    1  0.1820060E+004  0.2052159E+02  0.7546771E-02  0.1526206E+00
         21   -1    0    0  503  502  0.00000000000E+00  0.00000000000E+00  0.13231512081E+02  0.13231512081E+02  0.00000000000E+00 0.  1.
         21   -1    0    0  501  503 -0.00000000000E+00 -0.00000000000E+00 -0.54193413642E+02  0.54193413642E+02  0.00000000000E+00 0. -1.
          2    1    1    2  501    0  0.20395187622E+02 -0.22741645103E+01 -0.42138212262E+02  0.46869653669E+02  0.00000000000E+00 0. -1.
         -2    1    1    2    0  502 -0.20395187622E+02  0.22741645103E+01  0.11763107011E+01  0.20555272055E+02  0.00000000000E+00 0.  1.
</event>
<event>
 4    1  0.1820060E+004  0.3074226E+02  0.7546771E-02  0.1413254E+00
         21   -1    0    0  501  502  0.00000000000E+00  0.00000000000E+00  0.24069927661E+02  0.24069927661E+02  0.00000000000E+00 0. -1.
         21   -1    0    0  502  503 -0.00000000000E+00 -0.00000000000E+00 -0.39265214904E+02  0.39265214904E+02  0.00000000000E+00 0.  1.
          2    1    1    2  501    0  0.19109410869E+02 -0.24081461259E+02 -0.74363366667E+01  0.31628870722E+02  0.00000000000E+00 0. -1.
         -2    1    1    2    0  503 -0.19109410869E+02  0.24081461259E+02 -0.77589505767E+01  0.31706271843E+02  0.00000000000E+00 0.  1.
</event>
<event>
 4    1  0.1820060E+004  0.2394369E+02  0.7546771E-02  0.1480976E+00
         21   -1    0    0  503  502  0.00000000000E+00  0.00000000000E+00  0.15200953974E+03  0.15200953974E+03  0.00000000000E+00 0. -1.
         21   -1    0    0  501  503 -0.00000000000E+00 -0.00000000000E+00 -0.15220911168E+02  0.15220911168E+02  0.00000000000E+00 0.  1.
          2    1    1    2  501    0 -0.15704465170E+02  0.18074012915E+02 -0.41255680452E+01  0.24296511701E+02  0.00000000000E+00 0.  1.
         -2    1    1    2    0  502  0.15704465170E+02 -0.18074012915E+02  0.14091419662E+03  0.14293393921E+03  0.00000000000E+00 0. -1.
</event>
<event>
 4    1  0.1820060E+004  0.2083136E+02  0.7546771E-02  0.1521686E+00
         21   -1    0    0  501  502  0.00000000000E+00  0.00000000000E+00  0.31476800747E+01  0.31476800747E+01  0.00000000000E+00 0.  1.
         21   -1    0    0  502  503 -0.00000000000E+00 -0.00000000000E+00 -0.84119904718E+03  0.84119904718E+03  0.00000000000E+00 0. -1.
          2    1    1    2  501    0 -0.20766289203E+02  0.16452685363E+01 -0.32993805732E+02  0.39019698775E+02  0.00000000000E+00 0.  1.
         -2    1    1    2    0  503  0.20766289203E+02 -0.16452685363E+01 -0.80505756137E+03  0.80532702848E+03  0.00000000000E+00 0. -1.
</event>
<event>
 4    1  0.1820060E+004  0.2127129E+02  0.7546771E-02  0.1515427E+00
         21   -1    0    0  503  502  0.00000000000E+00  0.00000000000E+00  0.26047130708E+01  0.26047130708E+01  0.00000000000E+00 0.  1.
         21   -1    0    0  501  503 -0.00000000000E+00 -0.00000000000E+00 -0.19362724077E+03  0.19362724077E+03  0.00000000000E+00 0. -1.
          2    1    1    2  501    0  0.85638896052E+01 -0.19471201861E+02 -0.12697843469E+03  0.12874777972E+03  0.00000000000E+00 0. -1.
         -2    1    1    2    0  502 -0.85638896052E+01  0.19471201861E+02 -0.64044093010E+02  0.67484174120E+02  0.00000000000E+00 0.  1.
</event>
<event>
 4    1  0.1820060E+004  0.2482733E+02  0.7546771E-02  0.1470744E+00
         21   -1    0    0  501  502  0.00000000000E+00  0.00000000000E+00  0.18400835335E+02  0.18400835335E+02  0.00000000000E+00 0.  1.
         21   -1    0    0  502  503 -0.00000000000E+00 -0.00000000000E+00 -0.36397589473E+02  0.36397589473E+02  0.00000000000E+00 0. -1.
          2    1    1    2  501    0  0.80717554128E+01 -0.23478563117E+02 -0.12653459387E+01  0.24859550717E+02  0.00000000000E+00 0.  1.
         -2    1    1    2    0  503 -0.80717554128E+01  0.23478563117E+02 -0.16731408200E+02  0.29938874091E+02  0.00000000000E+00 0. -1.
</event>
<event>
 4    1  0.1820060E+004  0.2268123E+02  0.7546771E-02  0.1496540E+00
         21   -1    0    0  501  502  0.00000000000E+00  0.00000000000E+00  0.51532026991E+01  0.51532026991E+01  0.00000000000E+00 0. -1.
         21   -1    0    0  502  503 -0.00000000000E+00 -0.00000000000E+00 -0.43020880049E+03  0.43020880049E+03  0.00000000000E+00 0.  1.
          2    1    1    2  501    0  0.15550007451E+02  0.16511680691E+02 -0.21767620555E+02  0.31436724314E+02  0.00000000000E+00 0. -1.
         -2    1    1    2    0  503 -0.15550007451E+02 -0.16511680691E+02 -0.40328797724E+03  0.40392527887E+03  0.00000000000E+00 0.  1.
</event>
<event>
 4    1  0.1820060E+004  0.3456514E+02  0.7546771E-02  0.1383646E+00
         21   -1    0    0  503  502  0.00000000000E+00  0.00000000000E+00  0.13304073180E+03  0.13304073180E+03  0.00000000000E+00 0.  1.
         21   -1    0    0  501  503 -0.00000000000E+00 -0.00000000000E+00 -0.89847385153E+01  0.89847385153E+01  0.00000000000E+00 0. -1.
          2    1    1    2  501    0  0.10048382085E+02 -0.33072329019E+02  0.60453993421E+02  0.69637879418E+02  0.00000000000E+00 0.  1.
         -2    1    1    2    0  502 -0.10048382085E+02  0.33072329019E+02  0.63601999861E+02  0.72387590895E+02  0.00000000000E+00 0. -1.
</event>
<event>
 4    1  0.1820060E+004  0.3200061E+02  0.7546771E-02  0.1402972E+00
         21   -1    0    0  503  502  0.00000000000E+00  0.00000000000E+00  0.91480657925E+01  0.91480657925E+01  0.00000000000E+00 0.  1.
         21   -1    0    0  501  503 -0.00000000000E+00 -0.00000000000E+00 -0.12494961269E+03  0.12494961269E+03  0.00000000000E+00 0. -1.
          2    1    1    2  501    0 -0.82729337281E+01  0.30912742918E+02 -0.79535307996E+02  0.85731583009E+02  0.00000000000E+00 0. -1.
         -2    1    1    2    0  502  0.82729337281E+01 -0.30912742918E+02 -0.36266238897E+02  0.48366095469E+02  0.00000000000E+00 0.  1.
</event>
<event>
 4    1  0.1820060E+004  0.2210259E+02  0.7546771E-02  0.1504085E+00
         21   -1    0    0  501  502  0.00000000000E+00  0.00000000000E+00  0.27005011646E+02  0.27005011646E+02  0.00000000000E+00 0. -1.
         21   -1    0    0  502  503 -0.00000000000E+00 -0.00000000000E+00 -0.78451956727E+02  0.78451956727E+02  0.00000000000E+00 0.  1.
          2    1    1    2  501    0  0.17913081675E+02  0.12947824386E+02  0.20527888767E+02  0.30164861489E+02  0.00000000000E+00 0. -1.
         -2    1    1    2    0  503 -0.17913081675E+02 -0.12947824386E+02 -0.71974833849E+02  0.75292106884E+02  0.00000000000E+00 0.  1.
</event>
<event>
 4    1  0.1820060E+004  0.3042780E+02  0.7546771E-02  0.1415915E+00
         21   -1    0    0  503  502  0.00000000000E+00  0.00000000000E+00  0.24509029092E+03  0.24509029092E+03  0.00000000000E+00 0. -1.
         21   -1    0    0  501  503 -0.00000000000E+00 -0.00000000000E+00 -0.11936854247E+02  0.11936854247E+02  0.00000000000E+00 0.  1.
          2    1    1    2  501    0  0.62803890710E+01 -0.29772596272E+02  0.10326572468E+02  0.32132364909E+02  0.00000000000E+00 0.  1.
         -2    1    1    2    0  502 -0.62803890710E+01  0.29772596272E+02  0.22282686420E+03  0.22489478026E+03  0.00000000000E+00 0. -1.
</event>
<event>
 4    1  0.1820060E+004  0.2415454E+02  0.7546771E-02  0.1478488E+00
         21   -1    0    0  503  502  0.00000000000E+00  0.00000000000E+00  0.75111031047E+02  0.75111031047E+02  0.00000000000E+00 0.  1.
         21   -1    0    0  501  503 -0.00000000000E+00 -0.00000000000E+00 -0.10718385556E+02  0.10718385556E+02  0.00000000000E+00 0. -1.
          2    1    1    2  501    0  0.24152811208E+02 -0.28928147789E+00  0.96798184783E+01  0.26021930343E+02  0.00000000000E+00 0. -1.
         -2    1    1    2    0  502 -0.24152811208E+02  0.28928147789E+00  0.54712827012E+02  0.59807486260E+02  0.00000000000E+00 0.  1.
</event>
<event>
 4    1  0.1820060E+004  0.2514055E+02  0.7546771E-02  0.1467237E+00
         21   -1    0    0  501  502  0.00000000000E+00  0.00000000000E+00  0.97656980197E+03  0.97656980197E+03  0.00000000000E+00 0.  1.
         21   -1    0    0  502  503 -0.00000000000E+00 -0.00000000000E+00 -0.14996518707E+01  0.14996518707E+01  0.00000000000E+00 0. -1.
          2    1    1    2  501    0  0.39642477110E+01 -0.24826032941E+02  0.85623791849E+03  0.85660692283E+03  0.00000000000E+00 0.  1.
         -2    1    1    2    0  503 -0.39642477110E+01  0.24826032941E+02  0.11883223161E+03  0.12146253102E+03  0.00000000000E+00 0. -1.
</event>
<event>
 4    1  0.1820060E+004  0.2872482E+02  0.7546771E-02  0.1431011E+00
         21   -1    0    0  501  502  0.00000000000E+00  0.00000000000E+00  0.42106560992E+02  0.42106560992E+02  0.00000000000E+00 0. -1.
         21   -1    0    0  502  503 -0.00000000000E+00 -0.00000000000E+00 -0.47175431479E+02  0.47175431479E+02  0.00000000000E+00 0.  1.
          2    1    1    2  501    0 -0.26550045700E+02  0.10964047707E+02  0.31598175544E+02  0.42703161083E+02  0.00000000000E+00 0. -1.
         -2    1    1    2    0  503  0.26550045700E+02 -0.10964047707E+02 -0.36667046031E+02  0.46578831388E+02  0.00000000000E+00 0.  1.
</event>
<event>
 4    1  0.1820060E+004  0.3960535E+02  0.7546771E-02  0.1350814E+00
         21   -1    0    0  501  502  0.00000000000E+00  0.00000000000E+00  0.11451362923E+02  0.11451362923E+02  0.00000000000E+00 0.  1.
         21   -1    0    0  502  503 -0.00000000000E+00 -0.00000000000E+00 -0.22050581572E+03  0.22050581572E+03  0.00000000000E+00 0. -1.
          2    1    1    2  501    0 -0.37335451441E+02  0.13215434540E+02 -0.33146063265E+02  0.51645378829E+02  0.00000000000E+00 0.  1.
         -2    1    1    2    0  503  0.37335451441E+02 -0.13215434540E+02 -0.17590838953E+03  0.18031179981E+03  0.00000000000E+00 0. -1.
</event>
<event>
 4    1  0.1820060E+004  0.2190986E+02  0.7546771E-02  0.1506660E+00
         21   -1    0    0  501  502  0.00000000000E+00  0.00000000000E+00  0.75327893009E+02  0.75327893009E+02  0.00000000000E+00 0. -1.
         21   -1    0    0  502  503 -0.00000000000E+00 -0.00000000000E+00 -0.85975661068E+01  0.85975661068E+01  0.00000000000E+00 0.  1.
          2    1    1    2  501    0  0.21318773839E+02  0.50548917124E+01  0.54711724924E+02  0.58935684372E+02  0.00000000000E+00 0. -1.
         -2    1    1    2    0  503 -0.21318773839E+02 -0.50548917124E+01  0.12018601978E+02  0.24989774744E+02  0.00000000000E+00 0.  1.
</event>
<event>
 4    1  0.1820060E+004  0.3357126E+02  0.7546771E-02  0.1390896E+00
         21   -1    0    0  501  502  0.00000000000E+00  0.00000000000E+00  0.13701857972E+02  0.13701857972E+02  0.00000000000E+00 0.  1.
         21   -1    0    0  502  503 -0.00000000000E+00 -0.00000000000E+00 -0.84233662156E+02  0.84233662156E+02  0.00000000000E+00 0. -1.
          2    1    1    2  501    0 -0.32512428349E+02  0.83648973905E+01 -0.27758530472E+02  0.43561055077E+02  0.00000000000E+00 0. -1.
         -2    1    1    2    0  503  0.32512428349E+02 -0.83648973905E+01 -0.42773273713E+02  0.54374465051E+02  0.00000000000E+00 0.  1.
</event>
<event>
 4    1  0.1820060E+004  0.2023519E+02  0.7546771E-02  0.1530470E+00
         21   -1    0    0  501  502  0.00000000000E+00  0.00000000000E+00  0.20509150372E+02  0.20509150372E+02  0.00000000000E+00 0.  1.
         21   -1    0    0  502  503 -0.00000000000E+00 -0.00000000000E+00 -0.20732621479E+02  0.20732621479E+02  0.00000000000E+00 0. -1.
          2    1    1    2  501    0  0.17576920931E+02  0.10025714297E+02  0.38563644019E+01  0.20599384529E+02  0.00000000000E+00 0.  1.
         -2    1    1    2    0  503 -0.17576920931E+02 -0.10025714297E+02 -0.40798355084E+01  0.20642387322E+02  0.00000000000E+00 0. -1.
</event>
<event>
 4    1  0.1820060E+004  0.2710178E+02  0.7546771E-02  0.1446588E+00
         21   -1    0    0  501  502  0.00000000000E+00  0.00000000000E+00  0.17709478587E+03  0.17709478587E+03  0.00000000000E+00 0.  1.
         21   -1    0    0  502  503 -0.00000000000E+00 -0.00000000000E+00 -0.69570421256E+01  0.69570421256E+01  0.00000000000E+00 0. -1.
          2    1    1    2  501    0 -0.63361490364E+01 -0.26350705296E+02  0.14354963791E+03  0.14608560845E+03  0.00000000000E+00 0.  1.
         -2    1    1    2    0  503  0.63361490364E+01  0.26350705296E+02  0.26588105836E+02  0.37966219540E+02  0.00000000000E+00 0. -1.
</event>
<event>
 4    1  0.1820060E+004  0.2205791E+02  0.7546771E-02  0.1504679E+00
         21   -1    0    0  503  502  0.00000000000E+00  0.00000000000E+00  0.20993017817E+02  0.20993017817E+02  0.00000000000E+00 0.  1.
         21   -1    0    0  501  503 -0.00000000000E+00 -0.00000000000E+00 -0.26668944077E+02  0.26668944077E+02  0.00000000000E+00 0. -1.
          2    1    1    2  501    0 -0.19428566910E+02  0.10444232785E+02 -0.11461479433E+02  0.24857930755E+02  0.00000000000E+00 0. -1.
         -2    1    1    2    0  502  0.19428566910E+02 -0.10444232785E+02  0.57855531738E+01  0.22804031139E+02  0.00000000000E+00 0.  1.
</event>
<event>
 4    1  0.1820060E+004  0.2126066E+02  0.7546771E-02  0.1515576E+00
         21   -1    0    0  503  502  0.00000000000E+00  0.00000000000E+00  0.13080416009E+03  0.13080416009E+03  0.00000000000E+00 0. -1.
         21   -1    0    0  501  503 -0.00000000000E+00 -0.00000000000E+00 -0.51902953737E+01  0.51902953737E+01  0.00000000000E+00 0.  1.
          2    1    1    2  501    0  0.20813595780E+02 -0.43370248879E+01  0.23497347677E+02  0.31688182372E+02  0.00000000000E+00 0.  1.
         -2    1    1    2    0  502 -0.20813595780E+02  0.43370248879E+01  0.10211651703E+03  0.10430627309E+03  0.00000000000E+00 0. -1.
</event>
<event>
 4    1  0.1820060E+004  0.2040353E+02  0.7546771E-02  0.1527954E+00
         21   -1    0    0  501  502  0.00000000000E+00  0.00000000000E+00  0.63250395407E+01  0.63250395407E+01  0.00000000000E+00 0.  1.
         21   -1    0    0  502  503 -0.00000000000E+00 -0.00000000000E+00 -0.79321498713E+03  0.79321498713E+03  0.00000000000E+00 0. -1.
          2    1    1    2  501    0  0.13831633354E+02 -0.14999670810E+02 -0.10619897237E+02  0.23001878683E+02  0.00000000000E+00 0.  1.
         -2    1    1    2    0  503 -0.13831633354E+02  0.14999670810E+02 -0.77627005035E+03  0.77653814798E+03  0.00000000000E+00 0. -1.
</event>
<event>
 4    1  0.1820060E+004  0.2066788E+02  0.7546771E-02  0.1524060E+00
         21   -1    0    0  501  502  0.00000000000E+00  0.00000000000E+00  0.38025331809E+02  0.38025331809E+02  0.00000000000E+00 0. -1.
         21   -1    0    0  502  503 -0.00000000000E+00 -0.00000000000E+00 -0.11260501713E+02  0.11260501713E+02  0.00000000000E+00 0.  1.
          2    1    1    2  501    0 -0.18601472625E+02  0.90081255574E+01  0.14587056692E+02  0.25297101273E+02  0.00000000000E+00 0. -1.
         -2    1    1    2    0  503  0.18601472625E+02 -0.90081255574E+01  0.12177773404E+02  0.23988732249E+02  0.00000000000E+00 0.  1.
</event>
<event>
 4    1  0.1820060E+004  0.2237295E+02  0.7546771E-02  0.1500526E+00
         21   -1    0    0  501  502  0.00000000000E+00  0.00000000000E+00  0.36539940502E+02  0.36539940502E+02  0.00000000000E+00 0.  1.
         21   -1    0    0  502  503 -0.00000000000E+00 -0.00000000000E+00 -0.37201342454E+02  0.37201342454E+02  0.00000000000E+00 0. -1.
          2    1    1    2  501    0  0.19944043252E+02  0.10138239539E+02  0.28975529931E+02  0.36607787381E+02  0.00000000000E+00 0.  1.
         -2    1    1    2    0  503 -0.19944043252E+02 -0.10138239539E+02 -0.29636931883E+02  0.37133495575E+02  0.00000000000E+00 0. -1.
</event>
<event>
 4    1  0.1820060E+004  0.7573592E+02  0.7546771E-02  0.1214108E+00
         21   -1    0    0  501  502  0.00000000000E+00  0.00000000000E+00  0.18056241315E+04  0.18056241315E+04  0.00000000000E+00 0.  1.
         21   -1    0    0  502  503 -0.00000000000E+00 -0.00000000000E+00 -0.44621462147E+01  0.44621462147E+01  0.00000000000E+00 0. -1.
          2    1    1    2  501    0  0.64545705616E+02  0.39620469155E+02  0.13863435185E+04  0.13884107033E+04  0.00000000000E+00 0.  1.
         -2    1    1    2    0  503 -0.64545705616E+02 -0.39620469155E+02  0.41481846671E+03  0.42167557437E+03  0.00000000000E+00 0. -1.
</event>
<event>
 4    1  0.1820060E+004  0.2386924E+02  0.7546771E-02  0.1481862E+00
         21   -1    0    0  503  502  0.00000000000E+00  0.00000000000E+00  0.19397786986E+02  0.19397786986E+02  0.00000000000E+00 0.  1.
         21   -1    0    0  501  503 -0.00000000000E+00 -0.00000000000E+00 -0.59683125082E+02  0.59683125082E+02  0.00000000000E+00 0. -1.
          2    1    1    2  501    0 -0.10532037012E+02 -0.21420011343E+02 -0.48321373861E+02  0.53895230414E+02  0.00000000000E+00 0.  1.
         -2    1    1    2    0  502  0.10532037012E+02  0.21420011343E+02  0.80360357654E+01  0.25185681654E+02  0.00000000000E+00 0. -1.
</event>
<event>
 4    1  0.1820060E+004  0.2710533E+02  0.7546771E-02  0.1446553E+00
         21   -1    0    0  501  502  0.00000000000E+00  0.00000000000E+00  0.17117044094E+03  0.17117044094E+03  0.00000000000E+00 0. -1.
         21   -1    0    0  502  503 -0.00000000000E+00 -0.00000000000E+00 -0.49305363727E+01  0.49305363727E+01  0.00000000000E+00 0.  1.
          2    1    1    2  501    0 -0.88661959960E+01 -0.25614242824E+02  0.11480156612E+03  0.11795803682E+03  0.00000000000E+00 0. -1.
         -2    1    1    2    0  503  0.88661959960E+01  0.25614242824E+02  0.51438338444E+02  0.58142940489E+02  0.00000000000E+00 0.  1.
</event>
<event>
 4    1  0.1820060E+004  0.3265489E+02  0.7546771E-02  0.1397845E+00
         21   -1    0    0  503  502  0.00000000000E+00  0.00000000000E+00  0.24787266991E+03  0.24787266991E+03  0.00000000000E+00 0.  1.
         21   -1    0    0  501  503 -0.00000000000E+00 -0.00000000000E+00 -0.56199029539E+01  0.56199029539E+01  0.00000000000E+00 0. -1.
          2    1    1    2  501    0  0.31282509314E+02 -0.93673222759E+01  0.59747835099E+02  0.68089249625E+02  0.00000000000E+00 0. -1.
         -2    1    1    2    0  502 -0.31282509314E+02  0.93673222759E+01  0.18250493185E+03  0.18540332324E+03  0.00000000000E+00 0.  1.
</event>
<event>
 4    1  0.1820060E+004  0.2157814E+02  0.7546771E-02  0.1511168E+00
         21   -1    0    0  503  502  0.00000000000E+00  0.00000000000E+00  0.59660087677E+03  0.59660087677E+03  0.00000000000E+00 0. -1.
         21   -1    0    0  501  503 -0.00000000000E+00 -0.00000000000E+00 -0.14662512195E+01  0.14662512195E+01  0.00000000000E+00 0.  1.
          2    1    1    2  501    0 -0.18298639464E+02  0.11435735478E+02  0.93056935875E+02  0.95525962788E+02  0.00000000000E+00 0.  1.
         -2    1    1    2    0  502  0.18298639464E+02 -0.11435735478E+02  0.50207768968E+03  0.50254116520E+03  0.00000000000E+00 0. -1.
</event>
<event>
 4    1  0.1820060E+004  0.2574238E+02  0.7546771E-02  0.1460667E+00
         21   -1    0    0  503  502  0.00000000000E+00  0.00000000000E+00  0.22043701956E+03  0.22043701956E+03  0.00000000000E+00 0.  1.
         21   -1    0    0  501  503 -0.00000000000E+00 -0.00000000000E+00 -0.31237970884E+01  0.31237970884E+01  0.00000000000E+00 0. -1.
          2    1    1    2  501    0  0.24306965755E+02  0.84759388593E+01  0.13034796185E+03  0.13286557598E+03  0.00000000000E+00 0. -1.
         -2    1    1    2    0  502 -0.24306965755E+02 -0.84759388593E+01  0.86965260626E+02  0.90695240666E+02  0.00000000000E+00 0.  1.
</event>
<event>
 4    1  0.1820060E+004  0.2514310E+02  0.7546771E-02  0.1467209E+00
         21   -1    0    0  503  502  0.00000000000E+00  0.00000000000E+00  0.81770379368E+03  0.81770379368E+03  0.00000000000E+00 0. -1.
         21   -1    0    0  501  503 -0.00000000000E+00 -0.00000000000E+00 -0.92905183103E+00  0.92905183103E+00  0.00000000000E+00 0.  1.
          2    1    1    2  501    0  0.89063231021E+01 -0.23512822289E+02  0.24069249522E+03  0.24200217490E+03  0.00000000000E+00 0.  1.
         -2    1    1    2    0  502 -0.89063231021E+01  0.23512822289E+02  0.57608224663E+03  0.57663067061E+03  0.00000000000E+00 0. -1.
</event>
<event>
 4    1  0.1820060E+004  0.2043635E+02  0.7546771E-02  0.1527467E+00
         21   -1    0    0  501  502  0.00000000000E+00  0.00000000000E+00  0.52325495690E+00  0.52325495690E+00  0.00000000000E+00 0. -1.
         21   -1    0    0  502  503 -0.00000000000E+00 -0.00000000000E+00 -0.10968966005E+04  0.10968966005E+04  0.00000000000E+00 0.  1.
          2    1    1    2  501    0  0.79333329175E+01  0.18833656078E+02 -0.26183498313E+03  0.26263130575E+03  0.00000000000E+00 0. -1.
         -2    1    1    2    0  503 -0.79333329175E+01 -0.18833656078E+02 -0.83453836246E+03  0.83478854975E+03  0.00000000000E+00 0.  1.
</event>
<event>
 4    1  0.1820060E+004  0.3162958E+02  0.7546771E-02  0.1405945E+00
         21   -1    0    0  503  502  0.00000000000E+00  0.00000000000E+00  0.72804651003E+02  0.72804651003E+02  0.00000000000E+00 0. -1.
         21   -1    0    0  501  503 -0.00000000000E+00 -0.00000000000E+00 -0.14293366121E+02  0.14293366121E+02  0.00000000000E+00 0.  1.
          2    1    1    2  501    0  0.28741868073E+02 -0.13203607156E+02  0.20696931940E+02  0.37799381132E+02  0.00000000000E+00 0.  1.
         -2    1    1    2    0  502 -0.28741868073E+02  0.13203607156E+02  0.37814352943E+02  0.49298635992E+02  0.00000000000E+00 0. -1.
</event>
<event>
 4    1  0.1820060E+004  0.2092636E+02  0.7546771E-02  0.1520319E+00
         21   -1    0    0  501  502  0.00000000000E+00  0.00000000000E+00  0.14535800021E+02  0.14535800021E+02  0.00000000000E+00 0.  1.
         21   -1    0    0  502  503 -0.00000000000E+00 -0.00000000000E+00 -0.52333569539E+02  0.52333569539E+02  0.00000000000E+00 0. -1.
          2    1    1    2  501    0 -0.19540326030E+02 -0.74891960045E+01  0.28808675691E+01  0.21123725905E+02  0.00000000000E+00 0.  1.
         -2    1    1    2    0  503  0.19540326030E+02  0.74891960045E+01 -0.40678637088E+02  0.45745643655E+02  0.00000000000E+00 0. -1.
</event>
<event>
 4    1  0.1820060E+004  0.2735023E+02  0.7546771E-02  0.1444121E+00
         21   -1    0    0  503  502  0.00000000000E+00  0.00000000000E+00  0.24614770333E+01  0.24614770333E+01  0.00000000000E+00 0. -1.
         21   -1    0    0  501  503 -0.00000000000E+00 -0.00000000000E+00 -0.46718711691E+03  0.46718711691E+03  0.00000000000E+00 0.  1.
          2    1    1    2  501    0  0.17851712832E+02  0.20720800689E+02 -0.37119101865E+03  0.37219726969E+03  0.00000000000E+00 0.  1.
         -2    1    1    2    0  502 -0.17851712832E+02 -0.20720800689E+02 -0.93534621223E+02  0.97451324257E+02  0.00000000000E+00 0. -1.
</event>
<event>
 4    1  0.1820060E+004  0.5062936E+02  0.7546771E-02  0.1295467E+00
         21   -1    0    0  501  502  0.00000000000E+00  0.00000000000E+00  0.70329028807E+02  0.70329028807E+02  0.00000000000E+00 0.  1.
         21   -1    0    0  502  503 -0.00000000000E+00 -0.00000000000E+00 -0.82854240593E+02  0.82854240593E+02  0.00000000000E+00 0. -1.
          2    1    1    2  501    0  0.48353231675E+02  0.15009900328E+02  0.51058361846E+02  0.71904717757E+02  0.00000000000E+00 0.  1.
         -2    1    1    2    0  503 -0.48353231675E+02 -0.15009900328E+02 -0.63583573632E+02  0.81278551642E+02  0.00000000000E+00 0. -1.
</event>
<event>
 4    1  0.1820060E+004  0.2027701E+02  0.7546771E-02  0.1529842E+00
         21   -1    0    0  501  502  0.00000000000E+00  0.00000000000E+00  0.11627899050E+03  0.11627899050E+03  0.00000000000E+00 0.  1.
         21   -1    0    0  502  503 -0.00000000000E+00 -0.00000000000E+00 -0.36654717564E+01  0.36654717564E+01  0.00000000000E+00 0. -1.
          2    1    1    2  501    0 -0.17981891790E+02  0.93706326305E+01  0.67580019770E+02  0.70556475680E+02  0.00000000000E+00 0.  1.
         -2    1    1    2    0  503  0.17981891790E+02 -0.93706326305E+01  0.45033498972E+02  0.49387986574E+02  0.00000000000E+00 0. -1.
</event>
<event>
 4    1  0.1820060E+004  0.2102066E+02  0.7546771E-02  0.1518970E+00
         21   -1    0    0  501  502  0.00000000000E+00  0.00000000000E+00  0.59120135011E+03  0.59120135011E+03  0.00000000000E+00 0. -1.
         21   -1    0    0  502  503 -0.00000000000E+00 -0.00000000000E+00 -0.32017091392E+01  0.32017091392E+01  0.00000000000E+00 0.  1.
          2    1    1    2  501    0 -0.70314895443E+01  0.19809752032E+02  0.55420989164E+03  0.55460839527E+03  0.00000000000E+00 0. -1.
         -2    1    1    2    0  503  0.70314895443E+01 -0.19809752032E+02  0.33789749331E+02  0.39794663972E+02  0.00000000000E+00 0.  1.
</event>
<event>
 4    1  0.1820060E+004  0.2661326E+02  0.7546771E-02  0.1451532E+00
         21   -1    0    0  503  502  0.00000000000E+00  0.00000000000E+00  0.79709421068E+02  0.79709421068E+02  0.00000000000E+00 0.  1.
         21   -1    0    0  501  503 -0.00000000000E+00 -0.00000000000E+00 -0.88923667763E+01  0.88923667763E+01  0.00000000000E+00 0. -1.
          2    1    1    2  501    0  0.18852378933E+02 -0.18784393658E+02  0.34186013250E+02  0.43323771055E+02  0.00000000000E+00 0. -1.
         -2    1    1    2    0  502 -0.18852378933E+02  0.18784393658E+02  0.36631041042E+02  0.45278016789E+02  0.00000000000E+00 0.  1.
</event>
<event>
 4    1  0.1820060E+004  0.2120974E+02  0.7546771E-02  0.1516291E+00
         21   -1    0    0  501  502  0.00000000000E+00  0.00000000000E+00  0.61979781697E+03  0.61979781697E+03  0.00000000000E+00 0.  1.
         21   -1    0    0  502  503 -0.00000000000E+00 -0.00000000000E+00 -0.11843537001E+01  0.11843537001E+01  0.00000000000E+00 0. -1.
          2    1    1    2  501    0  0.17025006816E+02  0.12649199486E+02  0.50250382357E+03  0.50295123602E+03  0.00000000000E+00 0.  1.
         -2    1    1    2    0  503 -0.17025006816E+02 -0.12649199486E+02  0.11610963969E+03  0.11803093465E+03  0.00000000000E+00 0. -1.
</event>
<event>
 4    1  0.1820060E+004  0.2697328E+02  0.7546771E-02  0.1447877E+00
         21   -1    0    0  503  502  0.00000000000E+00  0.00000000000E+00  0.26178730372E+01  0.26178730372E+01  0.00000000000E+00 0. -1.
         21   -1    0    0  501  503 -0.00000000000E+00 -0.00000000000E+00 -0.70943677319E+03  0.70943677319E+03  0.00000000000E+00 0.  1.
          2    1    1    2  501    0 -0.23115592313E+02  0.13900614180E+02 -0.63107731936E+03  0.63165349733E+03  0.00000000000E+00 0.  1.
         -2    1    1    2    0  502  0.23115592313E+02 -0.13900614180E+02 -0.75741580796E+02  0.80401148898E+02  0.00000000000E+00 0. -1.
</event>
<event>
 4    1  0.1820060E+004  0.2681873E+02  0.7546771E-02  0.1449438E+00
         21   -1    0    0  503  502  0.00000000000E+00  0.00000000000E+00  0.16072872033E+03  0.16072872033E+03  0.00000000000E+00 0. -1.
         21   -1    0    0  501  503 -0.00000000000E+00 -0.00000000000E+00 -0.66548157631E+01  0.66548157631E+01  0.00000000000E+00 0.  1.
          2    1    1    2  501    0  0.26630490263E+02  0.31719414211E+01  0.29137005535E+02  0.39600622667E+02  0.00000000000E+00 0.  1.
         -2    1    1    2    0  502 -0.26630490263E+02 -0.31719414211E+01  0.12493689903E+03  0.12778291343E+03  0.00000000000E+00 0. -1.
</event>
<event>
 4    1  0.1820060E+004  0.2050500E+02  0.7546771E-02  0.1526451E+00
         21   -1    0    0  501  502  0.00000000000E+00  0.00000000000E+00  0.27124455657E+02  0.27124455657E+02  0.00000000000E+00 0.  1.
         21   -1    0    0  502  503 -0.00000000000E+00 -0.00000000000E+00 -0.18954464190E+02  0.18954464190E+02  0.00000000000E+00 0. -1.
          2    1    1    2  501    0 -0.67025549050E+01  0.19378616033E+02  0.13919370744E+02  0.24783137080E+02  0.00000000000E+00 0.  1.
         -2    1    1    2    0  503  0.67025549050E+01 -0.19378616033E+02 -0.57493792759E+01  0.21295782767E+02  0.00000000000E+00 0. -1.
</event>
<event>
 4    1  0.1820060E+004  0.2215910E+02  0.7546771E-02  0.1503336E+00
         21   -1    0    0  503  502  0.00000000000E+00  0.00000000000E+00  0.35251181276E+01  0.35251181276E+01  0.00000000000E+00 0.  1.
         21   -1    0    0  501  503 -0.00000000000E+00 -0.00000000000E+00 -0.86035376686E+03  0.86035376686E+03  0.00000000000E+00 0. -1.
          2    1    1    2  501    0  0.32024541729E+01 -0.21926463122E+02 -0.82384482092E+03  0.82414277553E+03  0.00000000000E+00 0. -1.
         -2    1    1    2    0  502 -0.32024541729E+01  0.21926463122E+02 -0.32983827805E+02  0.39736109453E+02  0.00000000000E+00 0.  1.
</event>
<event>
 4    1  0.1820060E+004  0.2024704E+02  0.7546771E-02  0.1530292E+00
         21   -1    0    0  501  502  0.00000000000E+00  0.00000000000E+00  0.14096259022E+03  0.14096259022E+03  0.00000000000E+00 0. -1.
         21   -1    0    0  502  503 -0.00000000000E+00 -0.00000000000E+00 -0.41463215131E+01  0.41463215131E+01  0.00000000000E+00 0.  1.
          2    1    1    2  501    0 -0.17540083563E+02 -0.10113755980E+02  0.10805603766E+03  0.10993657202E+03  0.00000000000E+00 0. -1.
         -2    1    1    2    0  503  0.17540083563E+02  0.10113755980E+02  0.28760231044E+02  0.35172339716E+02  0.00000000000E+00 0.  1.
</event>
<event>
 4    1  0.1820060E+004  0.2414223E+02  0.7546771E-02  0.1478633E+00
         21   -1    0    0  501  502  0.00000000000E+00  0.00000000000E+00  0.31612620349E+02  0.31612620349E+02  0.00000000000E+00 0. -1.
         21   -1    0    0  502  503 -0.00000000000E+00 -0.00000000000E+00 -0.18536430536E+02  0.18536430536E+02  0.00000000000E+00 0.  1.
          2    1    1    2  501    0 -0.12864186806E+02  0.20429385200E+02  0.47031628181E+01  0.24596073311E+02  0.00000000000E+00 0. -1.
         -2    1    1    2    0  503  0.12864186806E+02 -0.20429385200E+02  0.83730269946E+01  0.25552977574E+02  0.00000000000E+00 0.  1.
</event>
<event>
 4    1  0.1820060E+004  0.3066849E+02  0.7546771E-02  0.1413875E+00
         21   -1    0    0  503  502  0.00000000000E+00  0.00000000000E+00  0.10752046256E+03  0.10752046256E+03  0.00000000000E+00 0. -1.
         21   -1    0    0  501  503 -0.00000000000E+00 -0.00000000000E+00 -0.24788200916E+02  0.24788200916E+02  0.00000000000E+00 0.  1.
          2    1    1    2  501    0 -0.43328725058E+01  0.30360867180E+02 -0.11850188753E+02  0.32878306123E+02  0.00000000000E+00 0.  1.
         -2    1    1    2    0  502  0.43328725058E+01 -0.30360867180E+02  0.94582450392E+02  0.99430357348E+02  0.00000000000E+00 0. -1.
</event>
<event>
 4    1  0.1820060E+004  0.2573739E+02  0.7546771E-02  0.1460721E+00
         21   -1    0    0  501  502  0.00000000000E+00  0.00000000000E+00  0.31156871084E+02  0.31156871084E+02  0.00000000000E+00 0. -1.
         21   -1    0    0  502  503 -0.00000000000E+00 -0.00000000000E+00 -0.38670548387E+02  0.38670548387E+02  0.00000000000E+00 0.  1.
          2    1    1    2  501    0  0.86466380981E+01  0.24241470628E+02  0.19669519757E+02  0.32392950716E+02  0.00000000000E+00 0. -1.
         -2    1    1    2    0  503 -0.86466380981E+01 -0.24241470628E+02 -0.27183197059E+02  0.37434468755E+02  0.00000000000E+00 0.  1.
</event>
<event>
 4    1  0.1820060E+004  0.2268153E+02  0.7546771E-02  0.1496536E+00
         21   -1    0    0  503  502  0.00000000000E+00  0.00000000000E+00  0.32378152659E+02  0.32378152659E+02  0.00000000000E+00 0.  1.
         21   -1    0    0  501  503 -0.00000000000E+00 -0.00000000000E+00 -0.32271709693E+02  0.32271709693E+02  0.00000000000E+00 0. -1.
          2    1    1    2  501    0 -0.11283346889E+02 -0.19675814259E+02 -0.22978239548E+02  0.32287010956E+02  0.00000000000E+00 0. -1.
         -2    1    1    2    0  502  0.11283346889E+02  0.19675814259E+02  0.23084682513E+02  0.32362851396E+02  0.00000000000E+00 0.  1.
</event>
<event>
 4    1  0.1820060E+004  0.2185766E+02  0.7546771E-02  0.1507363E+00
         21   -1    0    0  501  502  0.00000000000E+00  0.00000000000E+00  0.29085014768E+01  0.29085014768E+01  0.00000000000E+00 0.  1.
         21   -1    0    0  502  503 -0.00000000000E+00 -0.00000000000E+00 -0.47241385748E+03  0.47241385748E+03  0.00000000000E+00 0. -1.
          2    1    1    2  501    0  0.27234761249E+01 -0.21687323786E+02 -0.42806676015E+02  0.48064215864E+02  0.00000000000E+00 0.  1.
         -2    1    1    2    0  503 -0.27234761249E+01  0.21687323786E+02 -0.42669867999E+03  0.42725814310E+03  0.00000000000E+00 0. -1.
</event>
<event>
 4    1  0.1820060E+004  0.2724794E+02  0.7546771E-02  0.1445133E+00
         21   -1    0    0  503  502  0.00000000000E+00  0.00000000000E+00  0.83428521588E+02  0.83428521588E+02  0.00000000000E+00 0.  1.
         21   -1    0    0  501  503 -0.00000000000E+00 -0.00000000000E+00 -0.89422790791E+01  0.89422790791E+01  0.00000000000E+00 0. -1.
          2    1    1    2  501    0  0.81073636986E+01 -0.26013857085E+02  0.34038829625E+02  0.43601514066E+02  0.00000000000E+00 0. -1.
         -2    1    1    2    0  502 -0.81073636986E+01  0.26013857085E+02  0.40447412884E+02  0.48769286601E+02  0.00000000000E+00 0.  1.
</event>
<event>
 4    1  0.1820060E+004  0.2226032E+02  0.7546771E-02  0.1502001E+00
         21   -1    0    0  503  502  0.00000000000E+00  0.00000000000E+00  0.87645650692E+00  0.87645650692E+00  0.00000000000E+00 0. -1.
         21   -1    0    0  501  503 -0.00000000000E+00 -0.00000000000E+00 -0.78679591995E+03  0.78679591995E+03  0.00000000000E+00 0.  1.
          2    1    1    2  501    0  0.24770512341E+00 -0.22258937671E+02 -0.60188906363E+03  0.60230056166E+03  0.00000000000E+00 0.  1.
         -2    1    1    2    0  502 -0.24770512341E+00  0.22258937671E+02 -0.18403039981E+03  0.18537181479E+03  0.00000000000E+00 0. -1.
</event>
<event>
 4    1  0.1820060E+004  0.2286157E+02  0.7546771E-02  0.1494244E+00
         21   -1    0    0  503  502  0.00000000000E+00  0.00000000000E+00  0.16966479378E+02  0.16966479378E+02  0.00000000000E+00 0. -1.
         21   -1    0    0  501  503 -0.00000000000E+00 -0.00000000000E+00 -0.62327310549E+02  0.62327310549E+02  0.00000000000E+00 0.  1.
          2    1    1    2  501    0 -0.22412869152E+02 -0.45071757701E+01 -0.50875892096E+02  0.55776408397E+02  0.00000000000E+00 0.  1.
         -2    1    1    2    0  502  0.22412869152E+02  0.45071757701E+01  0.55150609258E+01  0.23517381531E+02  0.00000000000E+00 0. -1.
</event>
<event>
 4    1  0.1820060E+004  0.2939978E+02  0.7546771E-02  0.1424885E+00
         21   -1    0    0  501  502  0.00000000000E+00  0.00000000000E+00  0.42470458799E+02  0.42470458799E+02  0.00000000000E+00 0.  1.
         21   -1    0    0  502  503 -0.00000000000E+00 -0.00000000000E+00 -0.84887593179E+02  0.84887593179E+02  0.00000000000E+00 0. -1.
          2    1    1    2  501    0  0.11328889908E+02  0.27129379456E+02  0.34314684185E+02  0.45186773805E+02  0.00000000000E+00 0.  1.
         -2    1    1    2    0  503 -0.11328889908E+02 -0.27129379456E+02 -0.76731818565E+02  0.82171278172E+02  0.00000000000E+00 0. -1.
</event>
<event>
 4    1  0.1820060E+004  0.3222518E+02  0.7546771E-02  0.1401196E+00
         21   -1    0    0  503  502  0.00000000000E+00  0.00000000000E+00  0.34146567862E+02  0.34146567862E+02  0.00000000000E+00 0.  1.
         21   -1    0    0  501  503 -0.00000000000E+00 -0.00000000000E+00 -0.18823080806E+03  0.18823080806E+03  0.00000000000E+00 0. -1.
          2    1    1    2  501    0  0.21651226050E+02 -0.23868109141E+02 -0.17885313357E+03  0.18173306141E+03  0.00000000000E+00 0. -1.
         -2    1    1    2    0  502 -0.21651226050E+02  0.23868109141E+02  0.24768893368E+02  0.40644314511E+02  0.00000000000E+00 0.  1.
</event>
<event>
 4    1  0.1820060E+004  0.3826126E+02  0.7546771E-02  0.1358987E+00
         21   -1    0    0  503  502  0.00000000000E+00  0.00000000000E+00  0.75359253906E+02  0.75359253906E+02  0.00000000000E+00 0. -1.
         21   -1    0    0  501  503 -0.00000000000E+00 -0.00000000000E+00 -0.30901178055E+02  0.30901178055E+02  0.00000000000E+00 0.  1.
          2    1    1    2  501    0  0.37872410605E+01  0.38073361434E+02 -0.10147841665E+02  0.39584122274E+02  0.00000000000E+00 0.  1.
         -2    1    1    2    0  502 -0.37872410605E+01 -0.38073361434E+02  0.54605917515E+02  0.66676309687E+02  0.00000000000E+00 0. -1.
</event>
<event>
 4    1  0.1820060E+004  0.2762932E+02  0.7546771E-02  0.1441387E+00
         21   -1    0    0  503  502  0.00000000000E+00  0.00000000000E+00  0.79802636096E+01  0.79802636096E+01  0.00000000000E+00 0.  1.
         21   -1    0    0  501  503 -0.00000000000E+00 -0.00000000000E+00 -0.13269043748E+03  0.13269043748E+03  0.00000000000E+00 0. -1.
          2    1    1    2  501    0 -0.80357360002E+01 -0.26434946805E+02 -0.99512244780E+02  0.10327664948E+03  0.00000000000E+00 0. -1.
         -2    1    1    2    0  502  0.80357360002E+01  0.26434946805E+02 -0.25197929089E+02  0.37394051613E+02  0.00000000000E+00 0.  1.
</event>
<event>
 4    1  0.1820060E+004  0.2035328E+02  0.7546771E-02  0.1528702E+00
         21   -1    0    0  501  502  0.00000000000E+00  0.00000000000E+00  0.67040787327E+02  0.67040787327E+02  0.00000000000E+00 0. -1.
         21   -1    0    0  502  503 -0.00000000000E+00 -0.00000000000E+00 -0.62570633357E+01  0.62570633357E+01  0.00000000000E+00 0.  1.
          2    1    1    2  501    0  0.15264967265E+02  0.13462417590E+02  0.26302577941E+02  0.33257803886E+02  0.00000000000E+00 0.  1.
         -2    1    1    2    0  503 -0.15264967265E+02 -0.13462417590E+02  0.34481146050E+02  0.40040046777E+02  0.00000000000E+00 0. -1.
</event>
<event>
 4    1  0.1820060E+004  0.2242372E+02  0.7546771E-02  0.1499864E+00
         21   -1    0    0  501  502  0.00000000000E+00  0.00000000000E+00  0.38164708987E+01  0.38164708987E+01  0.00000000000E+00 0. -1.
         21   -1    0    0  502  503 -0.00000000000E+00 -0.00000000000E+00 -0.32739472683E+03  0.32739472683E+03  0.00000000000E+00 0.  1.
          2    1    1    2  501    0 -0.11704164132E+02  0.19126828820E+02 -0.33770733252E+02  0.40537457532E+02  0.00000000000E+00 0. -1.
         -2    1    1    2    0  503  0.11704164132E+02 -0.19126828820E+02 -0.28980752268E+03  0.29067374020E+03  0.00000000000E+00 0.  1.
</event>
<event>
 4    1  0.1820060E+004  0.2530598E+02  0.7546771E-02  0.1465409E+00
         21   -1    0    0  501  502  0.00000000000E+00  0.00000000000E+00  0.24773669139E+01  0.24773669139E+01  0.00000000000E+00 0.  1.
         21   -1    0    0  502  503 -0.00000000000E+00 -0.00000000000E+00 -0.33683623496E+03  0.33683623496E+03  0.00000000000E+00 0. -1.
          2    1    1    2  501    0 -0.22215492049E+02  0.12118776643E+02 -0.85361123756E+02  0.89033220110E+02  0.00000000000E+00 0. -1.
         -2    1    1    2    0  503  0.22215492049E+02 -0.12118776643E+02 -0.24899774429E+03  0.25028038177E+03  0.00000000000E+00 0.  1.
</event>
<event>
 4    1  0.1820060E+004  0.3895197E+02  0.7546771E-02  0.1354739E+00
         21   -1    0    0  503  502  0.00000000000E+00  0.00000000000E+00  0.33193206894E+02  0.33193206894E+02  0.00000000000E+00 0.  1.
         21   -1    0    0  501  503 -0.00000000000E+00 -0.00000000000E+00 -0.45972002041E+02  0.45972002041E+02  0.00000000000E+00 0. -1.
          2    1    1    2  501    0  0.32917194867E+02 -0.20825805339E+02 -0.93785620097E+01  0.40065113394E+02  0.00000000000E+00 0.  1.
         -2    1    1    2    0  502 -0.32917194867E+02  0.20825805339E+02 -0.34002331374E+01  0.39100095541E+02  0.00000000000E+00 0. -1.
</event>
<event>
 4    1  0.1820060E+004  0.2534411E+02  0.7546771E-02  0.1464990E+00
         21   -1    0    0  501  502  0.00000000000E+00  0.00000000000E+00  0.91979251373E+01  0.91979251373E+01  0.00000000000E+00 0. -1.
         21   -1    0    0  502  503 -0.00000000000E+00 -0.00000000000E+00 -0.18483620683E+03  0.18483620683E+03  0.00000000000E+00 0.  1.
          2    1    1    2  501    0 -0.13274212121E+02 -0.21589797875E+02 -0.11293233968E+02  0.27746372973E+02  0.00000000000E+00 0. -1.
         -2    1    1    2    0  503  0.13274212121E+02  0.21589797875E+02 -0.16434504772E+03  0.16628775899E+03  0.00000000000E+00 0.  1.
</event>
<event>
 4    1  0.1820060E+004  0.2009493E+02  0.7546771E-02  0.1532590E+00
         21   -1    0    0  503  502  0.00000000000E+00  0.00000000000E+00  0.93507129291E+01  0.93507129291E+01  0.00000000000E+00 0.  1.
         21   -1    0    0  501  503 -0.00000000000E+00 -0.00000000000E+00 -0.54347929549E+02  0.54347929549E+02  0.00000000000E+00 0. -1.
          2    1    1    2  501    0  0.20040984031E+02  0.14714103877E+01 -0.80639328078E+01  0.21652554163E+02  0.00000000000E+00 0.  1.
         -2    1    1    2    0  502 -0.20040984031E+02 -0.14714103877E+01 -0.36933283812E+02  0.42046088315E+02  0.00000000000E+00 0. -1.
</event>
<event>
 4    1  0.1820060E+004  0.3105518E+02  0.7546771E-02  0.1410643E+00
         21   -1    0    0  501  502  0.00000000000E+00  0.00000000000E+00  0.73036426381E+02  0.73036426381E+02  0.00000000000E+00 0.  1.
         21   -1    0    0  502  503 -0.00000000000E+00 -0.00000000000E+00 -0.55997003319E+02  0.55997003319E+02  0.00000000000E+00 0. -1.
          2    1    1    2  501    0 -0.11484291396E+02 -0.28853682154E+02  0.64918879360E+02  0.71964469150E+02  0.00000000000E+00 0.  1.
         -2    1    1    2    0  503  0.11484291396E+02  0.28853682154E+02 -0.47879456298E+02  0.57068960549E+02  0.00000000000E+00 0. -1.
</event>
<event>
 4    1  0.1820060E+004  0.4955032E+02  0.7546771E-02  0.1300134E+00
         21   -1    0    0  503  502  0.00000000000E+00  0.00000000000E+00  0.15287142698E+03  0.15287142698E+03  0.00000000000E+00 0. -1.
         21   -1    0    0  501  503 -0.00000000000E+00 -0.00000000000E+00 -0.28705650231E+02  0.28705650231E+02  0.00000000000E+00 0.  1.
          2    1    1    2  501    0 -0.24030298286E+02 -0.43333347906E+02  0.18263014637E+01  0.49583965689E+02  0.00000000000E+00 0.  1.
         -2    1    1    2    0  502  0.24030298286E+02  0.43333347906E+02  0.12233947529E+03  0.13199311153E+03  0.00000000000E+00 0. -1.
</event>
<event>
 4    1  0.1820060E+004  0.2115505E+02  0.7546771E-02  0.1517063E+00
         21   -1    0    0  501  502  0.00000000000E+00  0.00000000000E+00  0.65575727514E+02  0.65575727514E+02  0.00000000000E+00 0. -1.
         21   -1    0    0  502  503 -0.00000000000E+00 -0.00000000000E+00 -0.86821508472E+01  0.86821508472E+01  0.00000000000E+00 0.  1.
          2    1    1    2  501    0 -0.20190241422E+02  0.63158871898E+01  0.45620124391E+02  0.50286499471E+02  0.00000000000E+00 0. -1.
         -2    1    1    2    0  503  0.20190241422E+02 -0.63158871898E+01  0.11273452276E+02  0.23971378890E+02  0.00000000000E+00 0.  1.
</event>
<event>
 4    1  0.1820060E+004  0.2892669E+02  0.7546771E-02  0.1429158E+00
         21   -1    0    0  503  502  0.00000000000E+00  0.00000000000E+00  0.14173651371E+01  0.14173651371E+01  0.00000000000E+00 0.  1.
         21   -1    0    0  501  503 -0.00000000000E+00 -0.00000000000E+00 -0.70779202322E+03  0.70779202322E+03  0.00000000000E+00 0. -1.
          2    1    1    2  501    0 -0.41671564411E+01  0.28624953306E+02 -0.49762757887E+03  0.49846761219E+03  0.00000000000E+00 0. -1.
         -2    1    1    2    0  502  0.41671564411E+01 -0.28624953306E+02 -0.20874707921E+03  0.21074177617E+03  0.00000000000E+00 0.  1.
</event>
<event>
 4    1  0.1820060E+004  0.2181157E+02  0.7546771E-02  0.1507986E+00
         21   -1    0    0  501  502  0.00000000000E+00  0.00000000000E+00  0.61099153235E+00  0.61099153235E+00  0.00000000000E+00 0. -1.
         21   -1    0    0  502  503 -0.00000000000E+00 -0.00000000000E+00 -0.10122651138E+04  0.10122651138E+04  0.00000000000E+00 0.  1.
          2    1    1    2  501    0 -0.21412847196E+02  0.41514331846E+01 -0.26253051002E+03  0.26343502636E+03  0.00000000000E+00 0. -1.
         -2    1    1    2    0  503  0.21412847196E+02 -0.41514331846E+01 -0.74912361225E+03  0.74944107897E+03  0.00000000000E+00 0.  1.
</event>
<event>
 4    1  0.1820060E+004  0.4797807E+02  0.7546771E-02  0.1307185E+00
         21   -1    0    0  503  502  0.00000000000E+00  0.00000000000E+00  0.22841902231E+02  0.22841902231E+02  0.00000000000E+00 0.  1.
         21   -1    0    0  501  503 -0.00000000000E+00 -0.00000000000E+00 -0.13130225898E+03  0.13130225898E+03  0.00000000000E+00 0. -1.
          2    1    1    2  501    0  0.38513759579E+02  0.28610937842E+02 -0.91392602476E+02  0.10322065311E+03  0.00000000000E+00 0. -1.
         -2    1    1    2    0  502 -0.38513759579E+02 -0.28610937842E+02 -0.17067754270E+02  0.50923508097E+02  0.00000000000E+00 0.  1.
</event>
<event>
 4    1  0.1820060E+004  0.2038876E+02  0.7546771E-02  0.1528173E+00
         21   -1    0    0  503  502  0.00000000000E+00  0.00000000000E+00  0.42304737665E+03  0.42304737665E+03  0.00000000000E+00 0.  1.
         21   -1    0    0  501  503 -0.00000000000E+00 -0.00000000000E+00 -0.10527897024E+01  0.10527897024E+01  0.00000000000E+00 0. -1.
          2    1    1    2  501    0  0.13671026897E+01  0.20342873578E+02  0.26573589687E+03  0.26651691946E+03  0.00000000000E+00 0.  1.
         -2    1    1    2    0  502 -0.13671026897E+01 -0.20342873578E+02  0.15625869008E+03  0.15758324689E+03  0.00000000000E+00 0. -1.
</event>
<event>
 4    1  0.1820060E+004  0.2077985E+02  0.7546771E-02  0.1522431E+00
         21   -1    0    0  503  502  0.00000000000E+00  0.00000000000E+00  0.16661648740E+03  0.16661648740E+03  0.00000000000E+00 0.  1.
         21   -1    0    0  501  503 -0.00000000000E+00 -0.00000000000E+00 -0.26392121918E+01  0.26392121918E+01  0.00000000000E+00 0. -1.
          2    1    1    2  501    0 -0.19458001381E+02 -0.72930331733E+01  0.70621100225E+02  0.73614821521E+02  0.00000000000E+00 0. -1.
         -2    1    1    2    0  502  0.19458001381E+02  0.72930331733E+01  0.93356174987E+02  0.95640878075E+02  0.00000000000E+00 0.  1.
</event>
<event>
 4    1  0.1820060E+004  0.2329960E+02  0.7546771E-02  0.1488770E+00
         21   -1    0    0  501  502  0.00000000000E+00  0.00000000000E+00  0.13869775573E+03  0.13869775573E+03  0.00000000000E+00 0.  1.
         21   -1    0    0  502  503 -0.00000000000E+00 -0.00000000000E+00 -0.39144747916E+01  0.39144747916E+01  0.00000000000E+00 0. -1.
          2    1    1    2  501    0  0.63553345073E+00  0.23290934444E+02  0.66658852760E+02  0.70613555223E+02  0.00000000000E+00 0.  1.
         -2    1    1    2    0  503 -0.63553345073E+00 -0.23290934444E+02  0.68124428179E+02  0.71998675298E+02  0.00000000000E+00 0. -1.
</event>
<event>
 4    1  0.1820060E+004  0.2328548E+02  0.7546771E-02  0.1488944E+00
         21   -1    0    0  501  502  0.00000000000E+00  0.00000000000E+00  0.62798954090E+03  0.62798954090E+03  0.00000000000E+00 0. -1.
         21   -1    0    0  502  503 -0.00000000000E+00 -0.00000000000E+00 -0.17698507655E+01  0.17698507655E+01  0.00000000000E+00 0.  1.
          2    1    1    2  501    0 -0.98539795774E+01 -0.21097693339E+02  0.53845364696E+03  0.53895690320E+03  0.00000000000E+00 0. -1.
         -2    1    1    2    0  503  0.98539795774E+01  0.21097693339E+02  0.87766043169E+02  0.90802488464E+02  0.00000000000E+00 0.  1.
</event>
<event>
 4    1  0.1820060E+004  0.2676839E+02  0.7546771E-02  0.1449949E+00
         21   -1    0    0  503  502  0.00000000000E+00  0.00000000000E+00  0.36710097352E+02  0.36710097352E+02  0.00000000000E+00 0.  1.
         21   -1    0    0  501  503 -0.00000000000E+00 -0.00000000000E+00 -0.32436974500E+02  0.32436974500E+02  0.00000000000E+00 0. -1.
          2    1    1    2  501    0  0.16410269475E+02  0.21148274361E+02 -0.19681687663E+02  0.33225220570E+02  0.00000000000E+00 0. -1.
         -2    1    1    2    0  502 -0.16410269475E+02 -0.21148274361E+02  0.23954810515E+02  0.35921851282E+02  0.00000000000E+00 0.  1.
</event>
<event>
 4    1  0.1820060E+004  0.2222919E+02  0.7546771E-02  0.1502411E+00
         21   -1    0    0  501  502  0.00000000000E+00  0.00000000000E+00  0.83708032974E+02  0.83708032974E+02  0.00000000000E+00 0.  1.
         21   -1    0    0  502  503 -0.00000000000E+00 -0.00000000000E+00 -0.13820389715E+02  0.13820389715E+02  0.00000000000E+00 0. -1.
          2    1    1    2  501    0 -0.22221964273E+02 -0.56667949090E+00  0.71852572796E+02  0.75212559052E+02  0.00000000000E+00 0.  1.
         -2    1    1    2    0  503  0.22221964273E+02  0.56667949090E+00 -0.19649295372E+01  0.22315863637E+02  0.00000000000E+00 0. -1.
</event>
<event>
 4    1  0.1820060E+004  0.2466987E+02  0.7546771E-02  0.1472531E+00
         21   -1    0    0  503  502  0.00000000000E+00  0.00000000000E+00  0.41263940691E+02  0.41263940691E+02  0.00000000000E+00 0.  1.
         21   -1    0    0  501  503 -0.00000000000E+00 -0.00000000000E+00 -0.15236640182E+02  0.15236640182E+02  0.00000000000E+00 0. -1.
          2    1    1    2  501    0  0.10143402717E+02 -0.22488086956E+02  0.18067464631E+02  0.30578357572E+02  0.00000000000E+00 0. -1.
         -2    1    1    2    0  502 -0.10143402717E+02  0.22488086956E+02  0.79598358781E+01  0.25922223300E+02  0.00000000000E+00 0.  1.
</event>
<event>
 4    1  0.1820060E+004  0.2285883E+02  0.7546771E-02  0.1494278E+00
         21   -1    0    0  501  502  0.00000000000E+00  0.00000000000E+00  0.59761219765E+01  0.59761219765E+01  0.00000000000E+00 0. -1.
         21   -1    0    0  502  503 -0.00000000000E+00 -0.00000000000E+00 -0.10347021456E+03  0.10347021456E+03  0.00000000000E+00 0.  1.
          2    1    1    2  501    0  0.39981777364E+01 -0.22506459124E+02 -0.27204744630E+02  0.35533424517E+02  0.00000000000E+00 0. -1.
         -2    1    1    2    0  503 -0.39981777364E+01  0.22506459124E+02 -0.70289347949E+02  0.73912912016E+02  0.00000000000E+00 0.  1.
</event>
<event>
 4    1  0.1820060E+004  0.2899713E+02  0.7546771E-02  0.1428516E+00
         21   -1    0    0  503  502  0.00000000000E+00  0.00000000000E+00  0.34861774383E+01  0.34861774383E+01  0.00000000000E+00 0. -1.
         21   -1    0    0  501  503 -0.00000000000E+00 -0.00000000000E+00 -0.27989639833E+03  0.27989639833E+03  0.00000000000E+00 0.  1.
          2    1    1    2  501    0  0.26345176104E+02 -0.12114679290E+02 -0.19089552970E+03  0.19308531021E+03  0.00000000000E+00 0. -1.
         -2    1    1    2    0  502 -0.26345176104E+02  0.12114679290E+02 -0.85514691194E+02  0.90297265564E+02  0.00000000000E+00 0.  1.
</event>
<event>
 4    1  0.1820060E+004  0.2946345E+02  0.7546771E-02  0.1424317E+00
         21   -1    0    0  503  502  0.00000000000E+00  0.00000000000E+00  0.43176422320E+02  0.43176422320E+02  0.00000000000E+00 0.  1.
         21   -1    0    0  501  503 -0.00000000000E+00 -0.00000000000E+00 -0.23397627630E+02  0.23397627630E+02  0.00000000000E+00 0. -1.
          2    1    1    2  501    0  0.17086844797E+02  0.24002805099E+02 -0.25962207862E+01  0.29577614510E+02  0.00000000000E+00 0. -1.
         -2    1    1    2    0  502 -0.17086844797E+02 -0.24002805099E+02  0.22375015476E+02  0.36996435440E+02  0.00000000000E+00 0.  1.
</event>
<event>
 4    1  0.1820060E+004  0.3705741E+02  0.7546771E-02  0.1366649E+00
         21   -1    0    0  501  502  0.00000000000E+00  0.00000000000E+00  0.18794318529E+02  0.18794318529E+02  0.00000000000E+00 0.  1.
         21   -1    0    0  502  503 -0.00000000000E+00 -0.00000000000E+00 -0.83588157391E+02  0.83588157391E+02  0.00000000000E+00 0. -1.
          2    1    1    2  501    0  0.94651730777E+01 -0.35828229951E+02 -0.14235607067E+02  0.39697658260E+02  0.00000000000E+00 0.  1.
         -2    1    1    2    0  503 -0.94651730777E+01  0.35828229951E+02 -0.50558231795E+02  0.62684817659E+02  0.00000000000E+00 0. -1.
</event>
<event>
 4    1  0.1820060E+004  0.2134362E+02  0.7546771E-02  0.1514415E+00
         21   -1    0    0  503  502  0.00000000000E+00  0.00000000000E+00  0.30170611995E+02  0.30170611995E+02  0.00000000000E+00 0. -1.
         21   -1    0    0  501  503 -0.00000000000E+00 -0.00000000000E+00 -0.18238648114E+02  0.18238648114E+02  0.00000000000E+00 0.  1.
          2    1    1    2  501    0  0.11034794659E+02  0.18269741883E+02 -0.40763191020E+01  0.21729393435E+02  0.00000000000E+00 0.  1.
         -2    1    1    2    0  502 -0.11034794659E+02 -0.18269741883E+02  0.16008282983E+02  0.26679866673E+02  0.00000000000E+00 0. -1.
</event>
<event>
 4    1  0.1820060E+004  0.4462987E+02  0.7546771E-02  0.1323301E+00
         21   -1    0    0  503  502  0.00000000000E+00  0.00000000000E+00  0.11753221197E+02  0.11753221197E+02  0.00000000000E+00 0.  1.
         21   -1    0    0  501  503 -0.00000000000E+00 -0.00000000000E+00 -0.18787126657E+03  0.18787126657E+03  0.00000000000E+00 0. -1.
          2    1    1    2  501    0  0.40709806388E+02 -0.18290362288E+02 -0.56821961102E+02  0.72253449414E+02  0.00000000000E+00 0.  1.
         -2    1    1    2    0  502 -0.40709806388E+02  0.18290362288E+02 -0.11929608428E+03  0.12737103836E+03  0.00000000000E+00 0. -1.
</event>
<event>
 4    1  0.1820060E+004  0.2232971E+02  0.7546771E-02  0.1501091E+00
         21   -1    0    0  503  502  0.00000000000E+00  0.00000000000E+00  0.40128219256E+01  0.40128219256E+01  0.00000000000E+00 0.  1.
         21   -1    0    0  501  503 -0.00000000000E+00 -0.00000000000E+00 -0.32223116602E+03  0.32223116602E+03  0.00000000000E+00 0. -1.
          2    1    1    2  501    0  0.18851763572E+02  0.11967739896E+02 -0.28696911146E+03  0.28783656251E+03  0.00000000000E+00 0. -1.
         -2    1    1    2    0  502 -0.18851763572E+02 -0.11967739896E+02 -0.31249232633E+02  0.38407425430E+02  0.00000000000E+00 0.  1.
</event>
<event>
 4    1  0.1820060E+004  0.2747911E+02  0.7546771E-02  0.1442854E+00
         21   -1    0    0  503  502  0.00000000000E+00  0.00000000000E+00  0.43991457532E+01  0.43991457532E+01  0.00000000000E+00 0. -1.
         21   -1    0    0  501  503 -0.00000000000E+00 -0.00000000000E+00 -0.29881473369E+03  0.29881473369E+03  0.00000000000E+00 0.  1.
          2    1    1    2  501    0 -0.23913030980E+02 -0.13537674785E+02 -0.48305593540E+02  0.55574563035E+02  0.00000000000E+00 0. -1.
         -2    1    1    2    0  502  0.23913030980E+02  0.13537674785E+02 -0.24610999440E+03  0.24763931641E+03  0.00000000000E+00 0.  1.
</event>
<event>
 4    1  0.1820060E+004  0.4353902E+02  0.7546771E-02  0.1328908E+00
         21   -1    0    0  503  502  0.00000000000E+00  0.00000000000E+00  0.79272902304E+02  0.79272902304E+02  0.00000000000E+00 0. -1.
         21   -1    0    0  501  503 -0.00000000000E+00 -0.00000000000E+00 -0.34698480318E+02  0.34698480318E+02  0.00000000000E+00 0.  1.
          2    1    1    2  501    0  0.19399641237E+02 -0.38978202260E+02 -0.94838713924E+01  0.44559961267E+02  0.00000000000E+00 0.  1.
         -2    1    1    2    0  502 -0.19399641237E+02  0.38978202260E+02  0.54058293378E+02  0.69411421355E+02  0.00000000000E+00 0. -1.
</event>
<event>
 4    1  0.1820060E+004  0.2369894E+02  0.7546771E-02  0.1483903E+00
         21   -1    0    0  503  502  0.00000000000E+00  0.00000000000E+00  0.58412440138E+03  0.58412440138E+03  0.00000000000E+00 0.  1.
         21   -1    0    0  501  503 -0.00000000000E+00 -0.00000000000E+00 -0.26801474749E+01  0.26801474749E+01  0.00000000000E+00 0. -1.
          2    1    1    2  501    0  0.48553479867E+01  0.23196235644E+02  0.55771484500E+02  0.60597840188E+02  0.00000000000E+00 0. -1.
         -2    1    1    2    0  502 -0.48553479867E+01 -0.23196235644E+02  0.52567276940E+03  0.52620670867E+03  0.00000000000E+00 0.  1.
</event>
<event>
 4    1  0.1820060E+004  0.3335247E+02  0.7546771E-02  0.1392531E+00
         21   -1    0    0  503  502  0.00000000000E+00  0.00000000000E+00  0.46092130755E+03  0.46092130755E+03  0.00000000000E+00 0. -1.
         21   -1    0    0  501  503 -0.00000000000E+00 -0.00000000000E+00 -0.45749603124E+01  0.45749603124E+01  0.00000000000E+00 0.  1.
          2    1    1    2  501    0 -0.19028624824E+02  0.27391586245E+02  0.68189301252E+02  0.75908947858E+02  0.00000000000E+00 0.  1.
         -2    1    1    2    0  502  0.19028624824E+02 -0.27391586245E+02  0.38815704598E+03  0.38958732000E+03  0.00000000000E+00 0. -1.
</event>
<event>
 4    1  0.1820060E+004  0.2358911E+02  0.7546771E-02  0.1485230E+00
         21   -1    0    0  503  502  0.00000000000E+00  0.00000000000E+00  0.21103016599E+03  0.21103016599E+03  0.00000000000E+00 0. -1.
         21   -1    0    0  501  503 -0.00000000000E+00 -0.00000000000E+00 -0.86346076895E+01  0.86346076895E+01  0.00000000000E+00 0.  1.
          2    1    1    2  501    0  0.22994344448E+02  0.52636537360E+01  0.96590006679E+01  0.25490041607E+02  0.00000000000E+00 0.  1.
         -2    1    1    2    0  502 -0.22994344448E+02 -0.52636537360E+01  0.19273655763E+03  0.19417473207E+03  0.00000000000E+00 0. -1.
</event>
<event>
 4    1  0.1820060E+004  0.3436653E+02  0.7546771E-02  0.1385072E+00
         21   -1    0    0  503  502  0.00000000000E+00  0.00000000000E+00  0.89793943525E+02  0.89793943525E+02  0.00000000000E+00 0. -1.
         21   -1    0    0  501  503 -0.00000000000E+00 -0.00000000000E+00 -0.21383902674E+02  0.21383902674E+02  0.00000000000E+00 0.  1.
          2    1    1    2  501    0  0.19852058440E+02 -0.28052708045E+02 -0.28304458610E+00  0.34367699475E+02  0.00000000000E+00 0.  1.
         -2    1    1    2    0  502 -0.19852058440E+02  0.28052708045E+02  0.68693085437E+02  0.76810146724E+02  0.00000000000E+00 0. -1.
</event>
<event>
 4    1  0.1820060E+004  0.2372538E+02  0.7546771E-02  0.1483585E+00
         21   -1    0    0  501  502  0.00000000000E+00  0.00000000000E+00  0.52033018351E+01  0.52033018351E+01  0.00000000000E+00 0.  1.
         21   -1    0    0  502  503 -0.00000000000E+00 -0.00000000000E+00 -0.13459976150E+03  0.13459976150E+03  0.00000000000E+00 0. -1.
          2    1    1    2  501    0 -0.23542326058E+02 -0.29415265392E+01 -0.33729157234E+02  0.41237722322E+02  0.00000000000E+00 0.  1.
         -2    1    1    2    0  503  0.23542326058E+02  0.29415265392E+01 -0.95667302428E+02  0.98565341010E+02  0.00000000000E+00 0. -1.
</event>
<event>
 4    1  0.1820060E+004  0.2428986E+02  0.7546771E-02  0.1476907E+00
         21   -1    0    0  503  502  0.00000000000E+00  0.00000000000E+00  0.28111347120E+03  0.28111347120E+03  0.00000000000E+00 0.  1.
         21   -1    0    0  501  503 -0.00000000000E+00 -0.00000000000E+00 -0.23520814858E+01  0.23520814858E+01  0.00000000000E+00 0. -1.
          2    1    1    2  501    0 -0.92303433261E+01 -0.22467716211E+02  0.92869624119E+02  0.95993565376E+02  0.00000000000E+00 0. -1.
         -2    1    1    2    0  502  0.92303433261E+01  0.22467716211E+02  0.18589176560E+03  0.18747198731E+03  0.00000000000E+00 0.  1.
</event>
<event>
 4    1  0.1820060E+004  0.2431593E+02  0.7546771E-02  0.1476604E+00
         21   -1    0    0  503  502  0.00000000000E+00  0.00000000000E+00  0.39034087473E+01  0.39034087473E+01  0.00000000000E+00 0.  1.
         21   -1    0    0  501  503 -0.00000000000E+00 -0.00000000000E+00 -0.16871005629E+03  0.16871005629E+03  0.00000000000E+00 0. -1.
          2    1    1    2  501    0  0.20226921998E+02 -0.13495782766E+02 -0.10998968806E+03  0.11264544379E+03  0.00000000000E+00 0.  1.
         -2    1    1    2    0  502 -0.20226921998E+02  0.13495782766E+02 -0.54816959483E+02  0.59968021252E+02  0.00000000000E+00 0. -1.
</event>
<event>
 4    1  0.1820060E+004  0.2298568E+02  0.7546771E-02  0.1492678E+00
         21   -1    0    0  501  502  0.00000000000E+00  0.00000000000E+00  0.39784982654E+03  0.39784982654E+03  0.00000000000E+00 0.  1.
         21   -1    0    0  502  503 -0.00000000000E+00 -0.00000000000E+00 -0.13495479315E+01  0.13495479315E+01  0.00000000000E+00 0. -1.
          2    1    1    2  501    0 -0.11306277936E+02 -0.20012733750E+02  0.22347611250E+03  0.22465510074E+03  0.00000000000E+00 0.  1.
         -2    1    1    2    0  503  0.11306277936E+02  0.20012733750E+02  0.17302416611E+03  0.17454427372E+03  0.00000000000E+00 0. -1.
</event>
<event>
 4    1  0.1820060E+004  0.2318592E+02  0.7546771E-02  0.1490177E+00
         21   -1    0    0  503  502  0.00000000000E+00  0.00000000000E+00  0.21101619121E+03  0.21101619121E+03  0.00000000000E+00 0. -1.
         21   -1    0    0  501  503 -0.00000000000E+00 -0.00000000000E+00 -0.30649191490E+01  0.30649191490E+01  0.00000000000E+00 0.  1.
          2    1    1    2  501    0 -0.23160316191E+02 -0.10893127977E+01  0.59999796318E+02  0.64323886751E+02  0.00000000000E+00 0.  1.
         -2    1    1    2    0  502  0.23160316191E+02  0.10893127977E+01  0.14795147574E+03  0.14975722361E+03  0.00000000000E+00 0. -1.
</event>
<event>
 4    1  0.1820060E+004  0.2107801E+02  0.7546771E-02  0.1518154E+00
         21   -1    0    0  501  502  0.00000000000E+00  0.00000000000E+00  0.88699877013E+01  0.88699877013E+01  0.00000000000E+00 0.  1.
         21   -1    0    0  502  503 -0.00000000000E+00 -0.00000000000E+00 -0.81370319478E+02  0.81370319478E+02  0.00000000000E+00 0. -1.
          2    1    1    2  501    0 -0.20184683668E+02  0.60713339003E+01 -0.82742062479E+01  0.22643874207E+02  0.00000000000E+00 0.  1.
         -2    1    1    2    0  503  0.20184683668E+02 -0.60713339003E+01 -0.64226125528E+02  0.67596432971E+02  0.00000000000E+00 0. -1.
</event>
<event>
 4    1  0.1820060E+004  0.2069424E+02  0.7546771E-02  0.1523675E+00
         21   -1    0    0  501  502  0.00000000000E+00  0.00000000000E+00  0.22752035445E+02  0.22752035445E+02  0.00000000000E+00 0. -1.
         21   -1    0    0  502  503 -0.00000000000E+00 -0.00000000000E+00 -0.30731915594E+02  0.30731915594E+02  0.00000000000E+00 0.  1.
          2    1    1    2  501    0  0.18343079430E+02  0.95803539445E+01  0.12657315547E+02  0.24258181745E+02  0.00000000000E+00 0. -1.
         -2    1    1    2    0  503 -0.18343079430E+02 -0.95803539445E+01 -0.20637195696E+02  0.29225769295E+02  0.00000000000E+00 0.  1.
</event>
<event>
 4    1  0.1820060E+004  0.2699203E+02  0.7546771E-02  0.1447688E+00
         21   -1    0    0  503  502  0.00000000000E+00  0.00000000000E+00  0.10926168072E+04  0.10926168072E+04  0.00000000000E+00 0.  1.
         21   -1    0    0  501  503 -0.00000000000E+00 -0.00000000000E+00 -0.71262687319E+00  0.71262687319E+00  0.00000000000E+00 0. -1.
          2    1    1    2  501    0  0.26721672365E+02 -0.38107366213E+01  0.68456235937E+03  0.68509429522E+03  0.00000000000E+00 0.  1.
         -2    1    1    2    0  502 -0.26721672365E+02  0.38107366213E+01  0.40734182095E+03  0.40823513883E+03  0.00000000000E+00 0. -1.
</event>
<event>
 4    1  0.1820060E+004  0.2361083E+02  0.7546771E-02  0.1484967E+00
         21   -1    0    0  503  502  0.00000000000E+00  0.00000000000E+00  0.24384529529E+02  0.24384529529E+02  0.00000000000E+00 0. -1.
         21   -1    0    0  501  503 -0.00000000000E+00 -0.00000000000E+00 -0.80635255140E+02  0.80635255140E+02  0.00000000000E+00 0.  1.
          2    1    1    2  501    0  0.13100611703E+02  0.19642943033E+02 -0.72572447282E+02  0.76316651803E+02  0.00000000000E+00 0.  1.
         -2    1    1    2    0  502 -0.13100611703E+02 -0.19642943033E+02  0.16321721671E+02  0.28703132865E+02  0.00000000000E+00 0. -1.
</event>
<event>
 4    1  0.1820060E+004  0.2128126E+02  0.7546771E-02  0.1515287E+00
         21   -1    0    0  503  502  0.00000000000E+00  0.00000000000E+00  0.73366908610E+02  0.73366908610E+02  0.00000000000E+00 0.  1.
         21   -1    0    0  501  503 -0.00000000000E+00 -0.00000000000E+00 -0.75279326789E+01  0.75279326789E+01  0.00000000000E+00 0. -1.
          2    1    1    2  501    0  0.18132837867E+02  0.11139661862E+02  0.15759526514E+02  0.26481211291E+02  0.00000000000E+00 0. -1.
         -2    1    1    2    0  502 -0.18132837867E+02 -0.11139661862E+02  0.50079449417E+02  0.54413629997E+02  0.00000000000E+00 0.  1.
</event>
<event>
 4    1  0.1820060E+004  0.2053224E+02  0.7546771E-02  0.1526049E+00
         21   -1    0    0  501  502  0.00000000000E+00  0.00000000000E+00  0.15234191537E+03  0.15234191537E+03  0.00000000000E+00 0.  1.
         21   -1    0    0  502  503 -0.00000000000E+00 -0.00000000000E+00 -0.39803652930E+01  0.39803652930E+01  0.00000000000E+00 0. -1.
          2    1    1    2  501    0  0.20186824709E+02  0.37503288610E+01  0.11733019340E+03  0.11911316947E+03  0.00000000000E+00 0.  1.
         -2    1    1    2    0  503 -0.20186824709E+02 -0.37503288610E+01  0.31031356676E+02  0.37209111190E+02  0.00000000000E+00 0. -1.
</event>
<event>
 4    1  0.1820060E+004  0.2411079E+02  0.7546771E-02  0.1479002E+00
         21   -1    0    0  503  502  0.00000000000E+00  0.00000000000E+00  0.11242189850E+01  0.11242189850E+01  0.00000000000E+00 0.  1.
         21   -1    0    0  501  503 -0.00000000000E+00 -0.00000000000E+00 -0.53676896100E+03  0.53676896100E+03  0.00000000000E+00 0. -1.
          2    1    1    2  501    0  0.17606728270E+02  0.16472202430E+02 -0.21633561885E+03  0.21767505672E+03  0.00000000000E+00 0.  1.
         -2    1    1    2    0  502 -0.17606728270E+02 -0.16472202430E+02 -0.31930912316E+03  0.32021812327E+03  0.00000000000E+00 0. -1.
</event>
<event>
 4    1  0.1820060E+004  0.2271861E+02  0.7546771E-02  0.1496062E+00
         21   -1    0    0  503  502  0.00000000000E+00  0.00000000000E+00  0.72849159069E+02  0.72849159069E+02  0.00000000000E+00 0. -1.
         21   -1    0    0  501  503 -0.00000000000E+00 -0.00000000000E+00 -0.14113530503E+02  0.14113530503E+02  0.00000000000E+00 0.  1.
          2    1    1    2  501    0  0.11784881232E+02  0.19422972244E+02 -0.13165995969E+01  0.22756728916E+02  0.00000000000E+00 0.  1.
         -2    1    1    2    0  502 -0.11784881232E+02 -0.19422972244E+02  0.60052228162E+02  0.64205960656E+02  0.00000000000E+00 0. -1.
</event>
<event>
 4    1  0.1820060E+004  0.2490913E+02  0.7546771E-02  0.1469823E+00
         21   -1    0    0  501  502  0.00000000000E+00  0.00000000000E+00  0.92671948257E+01  0.92671948257E+01  0.00000000000E+00 0.  1.
         21   -1    0    0  502  503 -0.00000000000E+00 -0.00000000000E+00 -0.69687774795E+02  0.69687774795E+02  0.00000000000E+00 0. -1.
          2    1    1    2  501    0  0.23592311321E+02  0.79917078593E+01 -0.22389535654E+02  0.33492623886E+02  0.00000000000E+00 0.  1.
         -2    1    1    2    0  503 -0.23592311321E+02 -0.79917078593E+01 -0.38031044315E+02  0.45462345734E+02  0.00000000000E+00 0. -1.
</event>
<event>
 4    1  0.1820060E+004  0.3484001E+02  0.7546771E-02  0.1381691E+00
         21   -1    0    0  501  502  0.00000000000E+00  0.00000000000E+00  0.14053112966E+03  0.14053112966E+03  0.00000000000E+00 0.  1.
         21   -1    0    0  502  503 -0.00000000000E+00 -0.00000000000E+00 -0.53368633275E+02  0.53368633275E+02  0.00000000000E+00 0. -1.
          2    1    1    2  501    0  0.22811342179E+02 -0.26333797886E+02  0.13233967295E+03  0.13684887752E+03  0.00000000000E+00 0.  1.
         -2    1    1    2    0  503 -0.22811342179E+02  0.26333797886E+02 -0.45177176569E+02  0.57050885408E+02  0.00000000000E+00 0. -1.
</event>
<event>
 4    1  0.1820060E+004  0.2385975E+02  0.7546771E-02  0.1481976E+00
         21   -1    0    0  501  502  0.00000000000E+00  0.00000000000E+00  0.16519108862E+02  0.16519108862E+02  0.00000000000E+00 0. -1.
         21   -1    0    0  502  503 -0.00000000000E+00 -0.00000000000E+00 -0.76133128456E+02  0.76133128456E+02  0.00000000000E+00 0.  1.
          2    1    1    2  501    0 -0.68584230111E+01  0.22852779597E+02  0.44662035150E+01  0.24274152413E+02  0.00000000000E+00 0. -1.
         -2    1    1    2    0  503  0.68584230111E+01 -0.22852779597E+02 -0.64080223110E+02  0.68378084905E+02  0.00000000000E+00 0.  1.
</event>
<event>
 4    1  0.1820060E+004  0.2797581E+02  0.7546771E-02  0.1438045E+00
         21   -1    0    0  503  502  0.00000000000E+00  0.00000000000E+00  0.12301423262E+01  0.12301423262E+01  0.00000000000E+00 0. -1.
         21   -1    0    0  501  503 -0.00000000000E+00 -0.00000000000E+00 -0.14594590293E+04  0.14594590293E+04  0.00000000000E+00 0.  1.
          2    1    1    2  501    0 -0.57778903935E+01  0.27372653540E+02 -0.12776360735E+04  0.12779423237E+04  0.00000000000E+00 0.  1.
         -2    1    1    2    0  502  0.57778903935E+01 -0.27372653540E+02 -0.18059281341E+03  0.18274684795E+03  0.00000000000E+00 0. -1.
</event>
<event>
 4    1  0.1820060E+004  0.3492831E+02  0.7546771E-02  0.1381068E+00
         21   -1    0    0  503  502  0.00000000000E+00  0.00000000000E+00  0.41896027454E+03  0.41896027454E+03  0.00000000000E+00 0.  1.
         21   -1    0    0  501  503 -0.00000000000E+00 -0.00000000000E+00 -0.30267518591E+01  0.30267518591E+01  0.00000000000E+00 0. -1.
          2    1    1    2  501    0  0.29133691214E+02 -0.19266937922E+02  0.16687303550E+03  0.17048928657E+03  0.00000000000E+00 0.  1.
         -2    1    1    2    0  502 -0.29133691214E+02  0.19266937922E+02  0.24906048719E+03  0.25149773983E+03  0.00000000000E+00 0. -1.
</event>
<event>
 4    1  0.1820060E+004  0.2735381E+02  0.7546771E-02  0.1444086E+00
         21   -1    0    0  503  502  0.00000000000E+00  0.00000000000E+00  0.25707799772E+03  0.25707799772E+03  0.00000000000E+00 0. -1.
         21   -1    0    0  501  503 -0.00000000000E+00 -0.00000000000E+00 -0.60800557117E+01  0.60800557117E+01  0.00000000000E+00 0.  1.
          2    1    1    2  501    0 -0.17602271414E+02 -0.20937790340E+02  0.30497437314E+02  0.40967361472E+02  0.00000000000E+00 0. -1.
         -2    1    1    2    0  502  0.17602271414E+02  0.20937790340E+02  0.22050050470E+03  0.22219069196E+03  0.00000000000E+00 0.  1.
</event>
<event>
 4    1  0.1820060E+004  0.4879061E+02  0.7546771E-02  0.1303503E+00
         21   -1    0    0  501  502  0.00000000000E+00  0.00000000000E+00  0.73835164274E+01  0.73835164274E+01  0.00000000000E+00 0.  1.
         21   -1    0    0  502  503 -0.00000000000E+00 -0.00000000000E+00 -0.34506569867E+03  0.34506569867E+03  0.00000000000E+00 0. -1.
          2    1    1    2  501    0  0.47944386886E+02  0.90476004822E+01 -0.12368675269E+03  0.13296216040E+03  0.00000000000E+00 0. -1.
         -2    1    1    2    0  503 -0.47944386886E+02 -0.90476004822E+01 -0.21399542955E+03  0.21948705469E+03  0.00000000000E+00 0.  1.
</event>
<event>
 4    1  0.1820060E+004  0.2330327E+02  0.7546771E-02  0.1488725E+00
         21   -1    0    0  503  502  0.00000000000E+00  0.00000000000E+00  0.38779631719E+01  0.38779631719E+01  0.00000000000E+00 0.  1.
         21   -1    0    0  501  503 -0.00000000000E+00 -0.00000000000E+00 -0.16255223928E+03  0.16255223928E+03  0.00000000000E+00 0. -1.
          2    1    1    2  501    0 -0.44462010119E+01  0.22875175882E+02 -0.11031016310E+03  0.11274473140E+03  0.00000000000E+00 0. -1.
         -2    1    1    2    0  502  0.44462010119E+01 -0.22875175882E+02 -0.48364113005E+02  0.53685471049E+02  0.00000000000E+00 0.  1.
</event>
<event>
 4    1  0.1820060E+004  0.3681027E+02  0.7546771E-02  0.1368264E+00
         21   -1    0    0  503  502  0.00000000000E+00  0.00000000000E+00  0.29281938866E+03  0.29281938866E+03  0.00000000000E+00 0.  1.
         21   -1    0    0  501  503 -0.00000000000E+00 -0.00000000000E+00 -0.46278495576E+01  0.46278495576E+01  0.00000000000E+00 0. -1.
          2    1    1    2  501    0 -0.25734625559E+02 -0.26319669888E+02  0.14554177301E+03  0.15012462712E+03  0.00000000000E+00 0.  1.
         -2    1    1    2    0  502  0.25734625559E+02  0.26319669888E+02  0.14264976609E+03  0.14732261110E+03  0.00000000000E+00 0. -1.
</event>
<event>
 4    1  0.1820060E+004  0.2331316E+02  0.7546771E-02  0.1488603E+00
         21   -1    0    0  501  502  0.00000000000E+00  0.00000000000E+00  0.42642543164E+03  0.42642543164E+03  0.00000000000E+00 0. -1.
         21   -1    0    0  502  503 -0.00000000000E+00 -0.00000000000E+00 -0.13072473976E+01  0.13072473976E+01  0.00000000000E+00 0.  1.
          2    1    1    2  501    0 -0.10469492232E+01 -0.23289644472E+02  0.24637894559E+03  0.24747947081E+03  0.00000000000E+00 0. -1.
         -2    1    1    2    0  503  0.10469492232E+01  0.23289644472E+02  0.17873923865E+03  0.18025320822E+03  0.00000000000E+00 0.  1.
</event>
<event>
 4    1  0.1820060E+004  0.2031123E+02  0.7546771E-02  0.1529330E+00
         21   -1    0    0  501  502  0.00000000000E+00  0.00000000000E+00  0.11367331475E+03  0.11367331475E+03  0.00000000000E+00 0. -1.
         21   -1    0    0  502  503 -0.00000000000E+00 -0.00000000000E+00 -0.43869997127E+01  0.43869997127E+01  0.00000000000E+00 0.  1.
          2    1    1    2  501    0 -0.19081161143E+02 -0.69609959457E+01  0.79176676155E+02  0.81740395289E+02  0.00000000000E+00 0. -1.
         -2    1    1    2    0  503  0.19081161143E+02  0.69609959457E+01  0.30109638884E+02  0.36319919175E+02  0.00000000000E+00 0.  1.
</event>
<event>
 4    1  0.1820060E+004  0.2347940E+02  0.7546771E-02  0.1486564E+00
         21   -1    0    0  501  502  0.00000000000E+00  0.00000000000E+00  0.21454445166E+02  0.21454445166E+02  0.00000000000E+00 0.  1.
         21   -1    0    0  502  503 -0.00000000000E+00 -0.00000000000E+00 -0.25954705192E+02  0.25954705192E+02  0.00000000000E+00 0. -1.
          2    1    1    2  501    0 -0.64402950642E+01  0.22578861898E+02  0.11882778153E+00  0.23479704538E+02  0.00000000000E+00 0.  1.
         -2    1    1    2    0  503  0.64402950642E+01 -0.22578861898E+02 -0.46190878076E+01  0.23929445821E+02  0.00000000000E+00 0. -1.
</event>
<event>
 4    1  0.1820060E+004  0.2270712E+02  0.7546771E-02  0.1496209E+00
         21   -1    0    0  503  502  0.00000000000E+00  0.00000000000E+00  0.65397632285E+01  0.65397632285E+01  0.00000000000E+00 0.  1.
         21   -1    0    0  501  503 -0.00000000000E+00 -0.00000000000E+00 -0.11950318626E+03  0.11950318626E+03  0.00000000000E+00 0. -1.
          2    1    1    2  501    0  0.15282514261E+02 -0.16794587445E+02 -0.93242467526E+02  0.95967552641E+02  0.00000000000E+00 0. -1.
         -2    1    1    2    0  502 -0.15282514261E+02  0.16794587445E+02 -0.19720955510E+02  0.30075396852E+02  0.00000000000E+00 0.  1.
</event>
<event>
 4    1  0.1820060E+004  0.2635342E+02  0.7546771E-02  0.1454214E+00
         21   -1    0    0  503  502  0.00000000000E+00  0.00000000000E+00  0.29851941709E+02  0.29851941709E+02  0.00000000000E+00 0.  1.
         21   -1    0    0  501  503 -0.00000000000E+00 -0.00000000000E+00 -0.24423811867E+02  0.24423811867E+02  0.00000000000E+00 0. -1.
          2    1    1    2  501    0 -0.16683709624E+02  0.20399911675E+02 -0.31973789065E+01  0.26546672014E+02  0.00000000000E+00 0.  1.
         -2    1    1    2    0  502  0.16683709624E+02 -0.20399911675E+02  0.86255087484E+01  0.27729081563E+02  0.00000000000E+00 0. -1.
</event>
<event>
 4    1  0.1820060E+004  0.2429843E+02  0.7546771E-02  0.1476807E+00
         21   -1    0    0  503  502  0.00000000000E+00  0.00000000000E+00  0.48872776465E+02  0.48872776465E+02  0.00000000000E+00 0.  1.
         21   -1    0    0  501  503 -0.00000000000E+00 -0.00000000000E+00 -0.12130141515E+02  0.12130141515E+02  0.00000000000E+00 0. -1.
          2    1    1    2  501    0 -0.18852571103E+02 -0.15329526419E+02  0.20320043796E+02  0.31675195300E+02  0.00000000000E+00 0.  1.
         -2    1    1    2    0  502  0.18852571103E+02  0.15329526419E+02  0.16422591154E+02  0.29327722681E+02  0.00000000000E+00 0. -1.
</event>
<event>
 4    1  0.1820060E+004  0.2036210E+02  0.7546771E-02  0.1528570E+00
         21   -1    0    0  501  502  0.00000000000E+00  0.00000000000E+00  0.11398052714E+04  0.11398052714E+04  0.00000000000E+00 0.  1.
         21   -1    0    0  502  503 -0.00000000000E+00 -0.00000000000E+00 -0.39680669019E+00  0.39680669019E+00  0.00000000000E+00 0. -1.
          2    1    1    2  501    0  0.20328399330E+02 -0.11710016450E+01  0.73422821511E+03  0.73451050839E+03  0.00000000000E+00 0.  1.
         -2    1    1    2    0  503 -0.20328399330E+02  0.11710016450E+01  0.40518024957E+03  0.40569156967E+03  0.00000000000E+00 0. -1.
</event>
<event>
 4    1  0.1820060E+004  0.2670505E+02  0.7546771E-02  0.1450594E+00
         21   -1    0    0  501  502  0.00000000000E+00  0.00000000000E+00  0.16926437860E+03  0.16926437860E+03  0.00000000000E+00 0.  1.
         21   -1    0    0  502  503 -0.00000000000E+00 -0.00000000000E+00 -0.51388029407E+01  0.51388029407E+01  0.00000000000E+00 0. -1.
          2    1    1    2  501    0  0.25155157634E+02 -0.89653711647E+01  0.45055711019E+02  0.52375346597E+02  0.00000000000E+00 0. -1.
         -2    1    1    2    0  503 -0.25155157634E+02  0.89653711647E+01  0.11906986464E+03  0.12202783495E+03  0.00000000000E+00 0.  1.
</event>
<event>
 4    1  0.1820060E+004  0.4140071E+02  0.7546771E-02  0.1340468E+00
         21   -1    0    0  503  502  0.00000000000E+00  0.00000000000E+00  0.26218334389E+02  0.26218334389E+02  0.00000000000E+00 0. -1.
         21   -1    0    0  501  503 -0.00000000000E+00 -0.00000000000E+00 -0.83038397692E+02  0.83038397692E+02  0.00000000000E+00 0.  1.
          2    1    1    2  501    0  0.39342470290E+02 -0.12891420412E+02 -0.53605252065E+02  0.67731394033E+02  0.00000000000E+00 0.  1.
         -2    1    1    2    0  502 -0.39342470290E+02  0.12891420412E+02 -0.32148112376E+01  0.41525338048E+02  0.00000000000E+00 0. -1.
</event>
<event>
 4    1  0.1820060E+004  0.2511897E+02  0.7546771E-02  0.1467477E+00
         21   -1    0    0  501  502  0.00000000000E+00  0.00000000000E+00  0.48033123005E+02  0.48033123005E+02  0.00000000000E+00 0.  1.
         21   -1    0    0  502  503 -0.00000000000E+00 -0.00000000000E+00 -0.80045184802E+02  0.80045184802E+02  0.00000000000E+00 0. -1.
          2    1    1    2  501    0  0.20138771182E+02  0.15013085277E+02  0.42543155843E+02  0.49405292665E+02  0.00000000000E+00 0.  1.
         -2    1    1    2    0  503 -0.20138771182E+02 -0.15013085277E+02 -0.74555217640E+02  0.78673015142E+02  0.00000000000E+00 0. -1.
</event>
<event>
 4    1  0.1820060E+004  0.2250487E+02  0.7546771E-02  0.1498811E+00
         21   -1    0    0  501  502  0.00000000000E+00  0.00000000000E+00  0.25167226341E+01  0.25167226341E+01  0.00000000000E+00 0.  1.
         21   -1    0    0  502  503 -0.00000000000E+00 -0.00000000000E+00 -0.44087793116E+03  0.44087793116E+03  0.00000000000E+00 0. -1.
          2    1    1    2  501    0 -0.11777061371E+02 -0.19177329788E+02 -0.55733339567E+02  0.60105526299E+02  0.00000000000E+00 0.  1.
         -2    1    1    2    0  503  0.11777061371E+02  0.19177329788E+02 -0.38262786896E+03  0.38328912749E+03  0.00000000000E+00 0. -1.
</event>
<event>
 4    1  0.1820060E+004  0.9487068E+02  0.7546771E-02  0.1173006E+00
         21   -1    0    0  501  502  0.00000000000E+00  0.00000000000E+00  0.27797113898E+03  0.27797113898E+03  0.00000000000E+00 0.  1.
         21   -1    0    0  502  503 -0.00000000000E+00 -0.00000000000E+00 -0.36547915463E+02  0.36547915463E+02  0.00000000000E+00 0. -1.
          2    1    1    2  501    0  0.69368746674E+02 -0.64718028452E+02  0.17382373919E+03  0.19802812560E+03  0.00000000000E+00 0.  1.
         -2    1    1    2    0  503 -0.69368746674E+02  0.64718028452E+02  0.67599484327E+02  0.11649092884E+03  0.00000000000E+00 0. -1.
</event>
<event>
 4    1  0.1820060E+004  0.2153998E+02  0.7546771E-02  0.1511693E+00
         21   -1    0    0  503  502  0.00000000000E+00  0.00000000000E+00  0.13454298782E+03  0.13454298782E+03  0.00000000000E+00 0. -1.
         21   -1    0    0  501  503 -0.00000000000E+00 -0.00000000000E+00 -0.67275738340E+01  0.67275738340E+01  0.00000000000E+00 0.  1.
          2    1    1    2  501    0  0.66301820657E+01  0.20494182615E+02  0.14593919247E+02  0.26018326508E+02  0.00000000000E+00 0.  1.
         -2    1    1    2    0  502 -0.66301820657E+01 -0.20494182615E+02  0.11322149474E+03  0.11525223515E+03  0.00000000000E+00 0. -1.
</event>
<event>
 4    1  0.1820060E+004  0.2934115E+02  0.7546771E-02  0.1425410E+00
         21   -1    0    0  503  502  0.00000000000E+00  0.00000000000E+00  0.99268181173E+02  0.99268181173E+02  0.00000000000E+00 0. -1.
         21   -1    0    0  501  503 -0.00000000000E+00 -0.00000000000E+00 -0.28826410643E+02  0.28826410643E+02  0.00000000000E+00 0.  1.
          2    1    1    2  501    0  0.68759866581E+01 -0.28524093537E+02 -0.18332286741E+02  0.34597338652E+02  0.00000000000E+00 0.  1.
         -2    1    1    2    0  502 -0.68759866581E+01  0.28524093537E+02  0.88774057271E+02  0.93497253163E+02  0.00000000000E+00 0. -1.
</event>
<event>
 4    1  0.1820060E+004  0.4762478E+02  0.7546771E-02  0.1308813E+00
         21   -1    0    0  501  502  0.00000000000E+00  0.00000000000E+00  0.70571770844E+02  0.70571770844E+02  0.00000000000E+00 0.  1.
         21   -1    0    0  502  503 -0.00000000000E+00 -0.00000000000E+00 -0.36720064191E+02  0.36720064191E+02  0.00000000000E+00 0. -1.
          2    1    1    2  501    0 -0.30339616681E+02  0.36710045272E+02 -0.20219558033E+01  0.47667683701E+02  0.00000000000E+00 0. -1.
         -2    1    1    2    0  503  0.30339616681E+02 -0.36710045272E+02  0.35873662456E+02  0.59624151333E+02  0.00000000000E+00 0.  1.
</event>
<event>
 4    1  0.1820060E+004  0.3536257E+02  0.7546771E-02  0.1378032E+00
         21   -1    0    0  501  502  0.00000000000E+00  0.00000000000E+00  0.27106228206E+01  0.27106228206E+01  0.00000000000E+00 0.  1.
         21   -1    0    0  502  503 -0.00000000000E+00 -0.00000000000E+00 -0.46335398366E+03  0.46335398366E+03  0.00000000000E+00 0. -1.
          2    1    1    2  501    0  0.35140522947E+02  0.39566066882E+01 -0.21494751907E+03  0.21783697355E+03  0.00000000000E+00 0.  1.
         -2    1    1    2    0  503 -0.35140522947E+02 -0.39566066882E+01 -0.24569584177E+03  0.24822763293E+03  0.00000000000E+00 0. -1.
</event>
<event>
 4    1  0.1820060E+004  0.2627867E+02  0.7546771E-02  0.1454992E+00
         21   -1    0    0  503  502  0.00000000000E+00  0.00000000000E+00  0.29080555526E+02  0.29080555526E+02  0.00000000000E+00 0. -1.
         21   -1    0    0  501  503 -0.00000000000E+00 -0.00000000000E+00 -0.36575852143E+02  0.36575852143E+02  0.00000000000E+00 0.  1.
          2    1    1    2  501    0  0.25721237452E+02  0.53839232277E+01 -0.23189965504E+02  0.35047727251E+02  0.00000000000E+00 0.  1.
         -2    1    1    2    0  502 -0.25721237452E+02 -0.53839232277E+01  0.15694668887E+02  0.30608680417E+02  0.00000000000E+00 0. -1.
</event>
<event>
 4    1  0.1820060E+004  0.2072071E+02  0.7546771E-02  0.1523290E+00
         21   -1    0    0  503  502  0.00000000000E+00  0.00000000000E+00  0.40155711363E+02  0.40155711363E+02  0.00000000000E+00 0. -1.
         21   -1    0    0  501  503 -0.00000000000E+00 -0.00000000000E+00 -0.10755718878E+02  0.10755718878E+02  0.00000000000E+00 0.  1.
          2    1    1    2  501    0 -0.79333073352E+00 -0.20705517405E+02  0.12741835262E+02  0.24324929404E+02  0.00000000000E+00 0.  1.
         -2    1    1    2    0  502  0.79333073352E+00  0.20705517405E+02  0.16658157224E+02  0.26586500837E+02  0.00000000000E+00 0. -1.
</event>
<event>
 4    1  0.1820060E+004  0.2447407E+02  0.7546771E-02  0.1474774E+00
         21   -1    0    0  503  502  0.00000000000E+00  0.00000000000E+00  0.30705789730E+02  0.30705789730E+02  0.00000000000E+00 0. -1.
         21   -1    0    0  501  503 -0.00000000000E+00 -0.00000000000E+00 -0.70585144370E+02  0.70585144370E+02  0.00000000000E+00 0.  1.
          2    1    1    2  501    0 -0.17069776494E+02  0.17538615127E+02 -0.63022201787E+02  0.67607530706E+02  0.00000000000E+00 0.  1.
         -2    1    1    2    0  502  0.17069776494E+02 -0.17538615127E+02  0.23142847147E+02  0.33683403394E+02  0.00000000000E+00 0. -1.
</event>
<event>
 4    1  0.1820060E+004  0.2646647E+02  0.7546771E-02  0.1453042E+00
         21   -1    0    0  503  502  0.00000000000E+00  0.00000000000E+00  0.32760384502E+02  0.32760384502E+02  0.00000000000E+00 0. -1.
         21   -1    0    0  501  503 -0.00000000000E+00 -0.00000000000E+00 -0.42653667981E+02  0.42653667981E+02  0.00000000000E+00 0.  1.
          2    1    1    2  501    0  0.26463646253E+02  0.38653540050E+00 -0.31575192502E+02  0.41200324807E+02  0.00000000000E+00 0.  1.
         -2    1    1    2    0  502 -0.26463646253E+02 -0.38653540050E+00  0.21681909023E+02  0.34213727676E+02  0.00000000000E+00 0. -1.
</event>
<event>
 4    1  0.1820060E+004  0.2233644E+02  0.7546771E-02  0.1501003E+00
         21   -1    0    0  501  502  0.00000000000E+00  0.00000000000E+00  0.16665911899E+03  0.16665911899E+03  0.00000000000E+00 0. -1.
         21   -1    0    0  502  503 -0.00000000000E+00 -0.00000000000E+00 -0.69246379421E+01  0.69246379421E+01  0.00000000000E+00 0.  1.
          2    1    1    2  501    0 -0.15915451344E+02  0.15672104850E+02  0.14526039285E+03  0.14696767738E+03  0.00000000000E+00 0. -1.
         -2    1    1    2    0  503  0.15915451344E+02 -0.15672104850E+02  0.14474088199E+02  0.26616079559E+02  0.00000000000E+00 0.  1.
</event>
<event>
 4    1  0.1820060E+004  0.2445928E+02  0.7546771E-02  0.1474944E+00
         21   -1    0    0  503  502  0.00000000000E+00  0.00000000000E+00  0.38369886775E+01  0.38369886775E+01  0.00000000000E+00 0. -1.
         21   -1    0    0  501  503 -0.00000000000E+00 -0.00000000000E+00 -0.15613013555E+03  0.15613013555E+03  0.00000000000E+00 0.  1.
          2    1    1    2  501    0 -0.95247847011E+01  0.22528530471E+02 -0.73199426442E+02  0.77177796290E+02  0.00000000000E+00 0.  1.
         -2    1    1    2    0  502  0.95247847011E+01 -0.22528530471E+02 -0.79093720428E+02  0.82789327935E+02  0.00000000000E+00 0. -1.
</event>
<event>
 4    1  0.1820060E+004  0.2566083E+02  0.7546771E-02  0.1461545E+00
         21   -1    0    0  501  502  0.00000000000E+00  0.00000000000E+00  0.14828182813E+03  0.14828182813E+03  0.00000000000E+00 0.  1.
         21   -1    0    0  502  503 -0.00000000000E+00 -0.00000000000E+00 -0.61432644476E+01  0.61432644476E+01  0.00000000000E+00 0. -1.
          2    1    1    2  501    0  0.16989630341E+02  0.19230979996E+02  0.11171712021E+03  0.11462631931E+03  0.00000000000E+00 0.  1.
         -2    1    1    2    0  503 -0.16989630341E+02 -0.19230979996E+02  0.30421443479E+02  0.39798773273E+02  0.00000000000E+00 0. -1.
</event>
<event>
 4    1  0.1820060E+004  0.2660780E+02  0.7546771E-02  0.1451588E+00
         21   -1    0    0  503  502  0.00000000000E+00  0.00000000000E+00  0.51103794546E+02  0.51103794546E+02  0.00000000000E+00 0. -1.
         21   -1    0    0  501  503 -0.00000000000E+00 -0.00000000000E+00 -0.24487406484E+02  0.24487406484E+02  0.00000000000E+00 0.  1.
          2    1    1    2  501    0  0.34223874211E+01  0.26386783247E+02 -0.11598312574E+02  0.29025780271E+02  0.00000000000E+00 0.  1.
         -2    1    1    2    0  502 -0.34223874211E+01 -0.26386783247E+02  0.38214700636E+02  0.46565420759E+02  0.00000000000E+00 0. -1.
</event>
<event>
 4    1  0.1820060E+004  0.3306352E+02  0.7546771E-02  0.1394713E+00
         21   -1    0    0  501  502  0.00000000000E+00  0.00000000000E+00  0.32232746154E+03  0.32232746154E+03  0.00000000000E+00 0. -1.
         21   -1    0    0  502  503 -0.00000000000E+00 -0.00000000000E+00 -0.35655585373E+01  0.35655585373E+01  0.00000000000E+00 0.  1.
          2    1    1    2  501    0  0.73794500773E+01 -0.32229487093E+02  0.19537591198E+03  0.19815383697E+03  0.00000000000E+00 0. -1.
         -2    1    1    2    0  503 -0.73794500773E+01  0.32229487093E+02  0.12338599102E+03  0.12773918311E+03  0.00000000000E+00 0.  1.
</event>
<event>
 4    1  0.1820060E+004  0.2038739E+02  0.7546771E-02  0.1528194E+00
         21   -1    0    0  503  502  0.00000000000E+00  0.00000000000E+00  0.11826868836E+01  0.11826868836E+01  0.00000000000E+00 0.  1.
         21   -1    0    0  501  503 -0.00000000000E+00 -0.00000000000E+00 -0.36167755052E+03  0.36167755052E+03  0.00000000000E+00 0. -1.
          2    1    1    2  501    0 -0.18309639397E+02 -0.89667670712E+01 -0.21076886189E+03  0.21175258900E+03  0.00000000000E+00 0. -1.
         -2    1    1    2    0  502  0.18309639397E+02  0.89667670712E+01 -0.14972600175E+03  0.15110764841E+03  0.00000000000E+00 0.  1.
</event>
<event>
 4    1  0.1820060E+004  0.2250799E+02  0.7546771E-02  0.1498771E+00
         21   -1    0    0  501  502  0.00000000000E+00  0.00000000000E+00  0.92529253240E+01  0.92529253240E+01  0.00000000000E+00 0. -1.
         21   -1    0    0  502  503 -0.00000000000E+00 -0.00000000000E+00 -0.10116958031E+03  0.10116958031E+03  0.00000000000E+00 0.  1.
          2    1    1    2  501    0  0.22507771633E+02 -0.98887239472E-01 -0.85604275136E+01  0.24080915302E+02  0.00000000000E+00 0. -1.
         -2    1    1    2    0  503 -0.22507771633E+02  0.98887239472E-01 -0.83356227468E+02  0.86341590327E+02  0.00000000000E+00 0.  1.
</event>
<event>
 4    1  0.1820060E+004  0.3368909E+02  0.7546771E-02  0.1390021E+00
         21   -1    0    0  503  502  0.00000000000E+00  0.00000000000E+00  0.19291892583E+02  0.19291892583E+02  0.00000000000E+00 0.  1.
         21   -1    0    0  501  503 -0.00000000000E+00 -0.00000000000E+00 -0.61969831123E+02  0.61969831123E+02  0.00000000000E+00 0. -1.
          2    1    1    2  501    0  0.14180735561E+02 -0.30559151093E+02 -0.12194202267E+02  0.35828111108E+02  0.00000000000E+00 0.  1.
         -2    1    1    2    0  502 -0.14180735561E+02  0.30559151093E+02 -0.30483736273E+02  0.45433612599E+02  0.00000000000E+00 0. -1.
</event>
<event>
 4    1  0.1820060E+004  0.2219432E+02  0.7546771E-02  0.1502871E+00
         21   -1    0    0  503  502  0.00000000000E+00  0.00000000000E+00  0.57355256835E+02  0.57355256835E+02  0.00000000000E+00 0. -1.
         21   -1    0    0  501  503 -0.00000000000E+00 -0.00000000000E+00 -0.34695567009E+02  0.34695567009E+02  0.00000000000E+00 0.  1.
          2    1    1    2  501    0 -0.10817270710E+02  0.19379749711E+02 -0.28594778690E+02  0.36197367484E+02  0.00000000000E+00 0.  1.
         -2    1    1    2    0  502  0.10817270710E+02 -0.19379749711E+02  0.51254468516E+02  0.55853456360E+02  0.00000000000E+00 0. -1.
</event>
<event>
 4    1  0.1820060E+004  0.2349423E+02  0.7546771E-02  0.1486384E+00
         21   -1    0    0  501  502  0.00000000000E+00  0.00000000000E+00  0.91955187697E+03  0.91955187697E+03  0.00000000000E+00 0.  1.
         21   -1    0    0  502  503 -0.00000000000E+00 -0.00000000000E+00 -0.61385701733E+00  0.61385701733E+00  0.00000000000E+00 0. -1.
          2    1    1    2  501    0 -0.15323567290E+02 -0.17809191589E+02  0.52791865736E+03  0.52844118671E+03  0.00000000000E+00 0.  1.
         -2    1    1    2    0  503  0.15323567290E+02  0.17809191589E+02  0.39101936259E+03  0.39172454728E+03  0.00000000000E+00 0. -1.
</event>
<event>
 4    1  0.1820060E+004  0.2311907E+02  0.7546771E-02  0.1491008E+00
         21   -1    0    0  503  502  0.00000000000E+00  0.00000000000E+00  0.20092779938E+02  0.20092779938E+02  0.00000000000E+00 0. -1.
         21   -1    0    0  501  503 -0.00000000000E+00 -0.00000000000E+00 -0.28102333180E+02  0.28102333180E+02  0.00000000000E+00 0.  1.
          2    1    1    2  501    0 -0.14367389418E+02  0.18112690901E+02  0.15647181874E+01  0.23171961362E+02  0.00000000000E+00 0. -1.
         -2    1    1    2    0  502  0.14367389418E+02 -0.18112690901E+02 -0.95742714300E+01  0.25023151756E+02  0.00000000000E+00 0.  1.
</event>
<event>
 4    1  0.1820060E+004  0.2150144E+02  0.7546771E-02  0.1512225E+00
         21   -1    0    0  501  502  0.00000000000E+00  0.00000000000E+00  0.34069623154E+02  0.34069623154E+02  0.00000000000E+00 0. -1.
         21   -1    0    0  502  503 -0.00000000000E+00 -0.00000000000E+00 -0.22916119264E+02  0.22916119264E+02  0.00000000000E+00 0.  1.
          2    1    1    2  501    0 -0.38855859556E+01  0.21147435578E+02  0.23773349354E+02  0.32054390484E+02  0.00000000000E+00 0. -1.
         -2    1    1    2    0  503  0.38855859556E+01 -0.21147435578E+02 -0.12619845463E+02  0.24931351934E+02  0.00000000000E+00 0.  1.
</event>
<event>
 4    1  0.1820060E+004  0.5030721E+02  0.7546771E-02  0.1296846E+00
         21   -1    0    0  501  502  0.00000000000E+00  0.00000000000E+00  0.11702308612E+03  0.11702308612E+03  0.00000000000E+00 0.  1.
         21   -1    0    0  502  503 -0.00000000000E+00 -0.00000000000E+00 -0.22733259944E+02  0.22733259944E+02  0.00000000000E+00 0. -1.
          2    1    1    2  501    0  0.90119736268E+01 -0.49493427517E+02  0.62562336725E+02  0.80279891707E+02  0.00000000000E+00 0.  1.
         -2    1    1    2    0  503 -0.90119736268E+01  0.49493427517E+02  0.31727489452E+02  0.59476454358E+02  0.00000000000E+00 0. -1.
</event>
<event>
 4    1  0.1820060E+004  0.5162335E+02  0.7546771E-02  0.1291284E+00
         21   -1    0    0  503  502  0.00000000000E+00  0.00000000000E+00  0.52937037105E+02  0.52937037105E+02  0.00000000000E+00 0.  1.
         21   -1    0    0  501  503 -0.00000000000E+00 -0.00000000000E+00 -0.11145226189E+03  0.11145226189E+03  0.00000000000E+00 0. -1.
          2    1    1    2  501    0  0.27572645283E+02  0.43643093551E+02  0.31605650755E+02  0.60530054867E+02  0.00000000000E+00 0.  1.
         -2    1    1    2    0  502 -0.27572645283E+02 -0.43643093551E+02 -0.90120875537E+02  0.10385924412E+03  0.00000000000E+00 0. -1.
</event>
<event>
 4    1  0.1820060E+004  0.2608093E+02  0.7546771E-02  0.1457065E+00
         21   -1    0    0  501  502  0.00000000000E+00  0.00000000000E+00  0.93376283349E+01  0.93376283349E+01  0.00000000000E+00 0. -1.
         21   -1    0    0  502  503 -0.00000000000E+00 -0.00000000000E+00 -0.29537469951E+03  0.29537469951E+03  0.00000000000E+00 0.  1.
          2    1    1    2  501    0 -0.13004027980E+02  0.22607741124E+02 -0.10777637896E+02  0.28220066992E+02  0.00000000000E+00 0. -1.
         -2    1    1    2    0  503  0.13004027980E+02 -0.22607741124E+02 -0.27525943328E+03  0.27649226086E+03  0.00000000000E+00 0.  1.
</event>
<event>
 4    1  0.1820060E+004  0.2569294E+02  0.7546771E-02  0.1461199E+00
         21   -1    0    0  503  502  0.00000000000E+00  0.00000000000E+00  0.54944890918E+02  0.54944890918E+02  0.00000000000E+00 0. -1.
         21   -1    0    0  501  503 -0.00000000000E+00 -0.00000000000E+00 -0.15810802424E+02  0.15810802424E+02  0.00000000000E+00 0.  1.
          2    1    1    2  501    0 -0.31162972663E+01 -0.25503254293E+02  0.22312686441E+01  0.25789646138E+02  0.00000000000E+00 0.  1.
         -2    1    1    2    0  502  0.31162972663E+01  0.25503254293E+02  0.36902819850E+02  0.44966047203E+02  0.00000000000E+00 0. -1.
</event>
<event>
 4    1  0.1820060E+004  0.2566583E+02  0.7546771E-02  0.1461491E+00
         21   -1    0    0  503  502  0.00000000000E+00  0.00000000000E+00  0.68420623566E+02  0.68420623566E+02  0.00000000000E+00 0. -1.
         21   -1    0    0  501  503 -0.00000000000E+00 -0.00000000000E+00 -0.34310028104E+02  0.34310028104E+02  0.00000000000E+00 0.  1.
          2    1    1    2  501    0  0.23520597509E+02 -0.10272102703E+02 -0.26511174611E+02  0.36899552576E+02  0.00000000000E+00 0.  1.
         -2    1    1    2    0  502 -0.23520597509E+02  0.10272102703E+02  0.60621770073E+02  0.65831099093E+02  0.00000000000E+00 0. -1.
</event>
<event>
 4    1  0.1820060E+004  0.2069301E+02  0.7546771E-02  0.1523693E+00
         21   -1    0    0  503  502  0.00000000000E+00  0.00000000000E+00  0.63779729201E+01  0.63779729201E+01  0.00000000000E+00 0. -1.
         21   -1    0    0  501  503 -0.00000000000E+00 -0.00000000000E+00 -0.78585869959E+02  0.78585869959E+02  0.00000000000E+00 0.  1.
          2    1    1    2  501    0 -0.13488406468E+02  0.15692788995E+02 -0.52318502236E+02  0.56262122353E+02  0.00000000000E+00 0.  1.
         -2    1    1    2    0  502  0.13488406468E+02 -0.15692788995E+02 -0.19889394803E+02  0.28701720526E+02  0.00000000000E+00 0. -1.
</event>
<event>
 4    1  0.1820060E+004  0.2658581E+02  0.7546771E-02  0.1451814E+00
         21   -1    0    0  503  502  0.00000000000E+00  0.00000000000E+00  0.24711999074E+03  0.24711999074E+03  0.00000000000E+00 0.  1.
         21   -1    0    0  501  503 -0.00000000000E+00 -0.00000000000E+00 -0.45297524542E+01  0.45297524542E+01  0.00000000000E+00 0. -1.
          2    1    1    2  501    0 -0.23558219720E+02  0.12321356063E+02  0.44905734001E+02  0.52185538972E+02  0.00000000000E+00 0. -1.
         -2    1    1    2    0  502  0.23558219720E+02 -0.12321356063E+02  0.19768450429E+03  0.19946420423E+03  0.00000000000E+00 0.  1.
</event>
<event>
 4    1  0.1820060E+004  0.2025312E+02  0.7546771E-02  0.1530201E+00
         21   -1    0    0  503  502  0.00000000000E+00  0.00000000000E+00  0.50267598766E+01  0.50267598766E+01  0.00000000000E+00 0. -1.
         21   -1    0    0  501  503 -0.00000000000E+00 -0.00000000000E+00 -0.34294037810E+03  0.34294037810E+03  0.00000000000E+00 0.  1.
          2    1    1    2  501    0  0.14317489688E+02 -0.14324747534E+02 -0.32083706013E+03  0.32147567257E+03  0.00000000000E+00 0.  1.
         -2    1    1    2    0  502 -0.14317489688E+02  0.14324747534E+02 -0.17076558089E+02  0.26491465400E+02  0.00000000000E+00 0. -1.
</event>
<event>
 4    1  0.1820060E+004  0.2308951E+02  0.7546771E-02  0.1491377E+00
         21   -1    0    0  501  502  0.00000000000E+00  0.00000000000E+00  0.99390027816E+02  0.99390027816E+02  0.00000000000E+00 0. -1.
         21   -1    0    0  502  503 -0.00000000000E+00 -0.00000000000E+00 -0.80695848430E+01  0.80695848430E+01  0.00000000000E+00 0.  1.
          2    1    1    2  501    0 -0.20410370814E+02 -0.10795475570E+02  0.14548621889E+02  0.27290803000E+02  0.00000000000E+00 0.  1.
         -2    1    1    2    0  503  0.20410370814E+02  0.10795475570E+02  0.76771821084E+02  0.80168809659E+02  0.00000000000E+00 0. -1.
</event>
<event>
 4    1  0.1820060E+004  0.3994077E+02  0.7546771E-02  0.1348833E+00
         21   -1    0    0  503  502  0.00000000000E+00  0.00000000000E+00  0.36989529179E+02  0.36989529179E+02  0.00000000000E+00 0. -1.
         21   -1    0    0  501  503 -0.00000000000E+00 -0.00000000000E+00 -0.43408519406E+02  0.43408519406E+02  0.00000000000E+00 0.  1.
          2    1    1    2  501    0  0.71163229879E+01  0.39301697080E+02  0.24996804731E-01  0.39940782054E+02  0.00000000000E+00 0. -1.
         -2    1    1    2    0  502 -0.71163229879E+01 -0.39301697080E+02 -0.64439870316E+01  0.40457266530E+02  0.00000000000E+00 0.  1.
</event>
<event>
 4    1  0.1820060E+004  0.6478651E+02  0.7546771E-02  0.1244383E+00
         21   -1    0    0  503  502  0.00000000000E+00  0.00000000000E+00  0.63737887968E+02  0.63737887968E+02  0.00000000000E+00 0.  1.
         21   -1    0    0  501  503 -0.00000000000E+00 -0.00000000000E+00 -0.80892617477E+02  0.80892617477E+02  0.00000000000E+00 0. -1.
          2    1    1    2  501    0  0.24041795561E+02  0.60160485552E+02 -0.39759276257E+02  0.76013761939E+02  0.00000000000E+00 0. -1.
         -2    1    1    2    0  502 -0.24041795561E+02 -0.60160485552E+02  0.22604546747E+02  0.68616743506E+02  0.00000000000E+00 0.  1.
</event>
<event>
 4    1  0.1820060E+004  0.2830769E+02  0.7546771E-02  0.1434897E+00
         21   -1    0    0  501  502  0.00000000000E+00  0.00000000000E+00  0.38099048286E+03  0.38099048286E+03  0.00000000000E+00 0. -1.
         21   -1    0    0  502  503 -0.00000000000E+00 -0.00000000000E+00 -0.24796375198E+01  0.24796375198E+01  0.00000000000E+00 0.  1.
          2    1    1    2  501    0  0.20429951138E+02 -0.19594453024E+02  0.26395429547E+03  0.26546788052E+03  0.00000000000E+00 0. -1.
         -2    1    1    2    0  503 -0.20429951138E+02  0.19594453024E+02  0.11455654987E+03  0.11800223986E+03  0.00000000000E+00 0.  1.
</event>
<event>
 4    1  0.1820060E+004  0.2152577E+02  0.7546771E-02  0.1511889E+00
         21   -1    0    0  501  502  0.00000000000E+00  0.00000000000E+00  0.50359949341E+01  0.50359949341E+01  0.00000000000E+00 0.  1.
         21   -1    0    0  502  503 -0.00000000000E+00 -0.00000000000E+00 -0.10298432449E+03  0.10298432449E+03  0.00000000000E+00 0. -1.
          2    1    1    2  501    0 -0.12080137942E+02  0.17816537015E+02 -0.66605745607E+02  0.69997743334E+02  0.00000000000E+00 0.  1.
         -2    1    1    2    0  503  0.12080137942E+02 -0.17816537015E+02 -0.31342583945E+02  0.38022576087E+02  0.00000000000E+00 0. -1.
</event>
<event>
 4    1  0.1820060E+004  0.2772499E+02  0.7546771E-02  0.1440458E+00
         21   -1    0    0  503  502  0.00000000000E+00  0.00000000000E+00  0.30069034563E+03  0.30069034563E+03  0.00000000000E+00 0. -1.
         21   -1    0    0  501  503 -0.00000000000E+00 -0.00000000000E+00 -0.65119852831E+01  0.65119852831E+01  0.00000000000E+00 0.  1.
          2    1    1    2  501    0  0.25038982897E+02 -0.11904814430E+02  0.27375185847E+02  0.38962495702E+02  0.00000000000E+00 0.  1.
         -2    1    1    2    0  502 -0.25038982897E+02  0.11904814430E+02  0.26680317450E+03  0.26823983521E+03  0.00000000000E+00 0. -1.
</event>
<event>
 4    1  0.1820060E+004  0.2120936E+02  0.7546771E-02  0.1516297E+00
         21   -1    0    0  501  502  0.00000000000E+00  0.00000000000E+00  0.71015288240E+03  0.71015288240E+03  0.00000000000E+00 0. -1.
         21   -1    0    0  502  503 -0.00000000000E+00 -0.00000000000E+00 -0.72215908814E+00  0.72215908814E+00  0.00000000000E+00 0.  1.
          2    1    1    2  501    0 -0.36049456614E+01 -0.20900745347E+02  0.47929980550E+03  0.47976884052E+03  0.00000000000E+00 0. -1.
         -2    1    1    2    0  503  0.36049456614E+01  0.20900745347E+02  0.23013091781E+03  0.23110620096E+03  0.00000000000E+00 0.  1.
</event>
<event>
 4    1  0.1820060E+004  0.8249902E+02  0.7546771E-02  0.1198162E+00
         21   -1    0    0  503  502  0.00000000000E+00  0.00000000000E+00  0.40334736910E+02  0.40334736910E+02  0.00000000000E+00 0. -1.
         21   -1    0    0  501  503 -0.00000000000E+00 -0.00000000000E+00 -0.20592158415E+03  0.20592158415E+03  0.00000000000E+00 0.  1.
          2    1    1    2  501    0 -0.59442160026E+02 -0.57207668596E+02 -0.13511367097E+03  0.15830916530E+03  0.00000000000E+00 0.  1.
         -2    1    1    2    0  502  0.59442160026E+02  0.57207668596E+02 -0.30473176274E+02  0.87947155764E+02  0.00000000000E+00 0. -1.
</event>
<event>
 4    1  0.1820060E+004  0.2007890E+02  0.7546771E-02  0.1532833E+00
         21   -1    0    0  503  502  0.00000000000E+00  0.00000000000E+00  0.51419794280E+01  0.51419794280E+01  0.00000000000E+00 0.  1.
         21   -1    0    0  501  503 -0.00000000000E+00 -0.00000000000E+00 -0.23961791065E+03  0.23961791065E+03  0.00000000000E+00 0. -1.
          2    1    1    2  501    0 -0.98516847254E+00  0.20054720049E+02 -0.21761840576E+03  0.21854274840E+03  0.00000000000E+00 0. -1.
         -2    1    1    2    0  502  0.98516847254E+00 -0.20054720049E+02 -0.16857525470E+02  0.26217141684E+02  0.00000000000E+00 0.  1.
</event>
<event>
 4    1  0.1820060E+004  0.6229901E+02  0.7546771E-02  0.1252215E+00
         21   -1    0    0  501  502  0.00000000000E+00  0.00000000000E+00  0.17938743897E+03  0.17938743897E+03  0.00000000000E+00 0. -1.
         21   -1    0    0  502  503 -0.00000000000E+00 -0.00000000000E+00 -0.79304523283E+02  0.79304523283E+02  0.00000000000E+00 0.  1.
          2    1    1    2  501    0 -0.52946713922E+02 -0.32830041654E+02  0.16034123748E+03  0.17201883207E+03  0.00000000000E+00 0. -1.
         -2    1    1    2    0  503  0.52946713922E+02  0.32830041654E+02 -0.60258321794E+02  0.86673130182E+02  0.00000000000E+00 0.  1.
</event>
<event>
 4    1  0.1820060E+004  0.2256035E+02  0.7546771E-02  0.1498094E+00
         21   -1    0    0  501  502  0.00000000000E+00  0.00000000000E+00  0.24982592659E+02  0.24982592659E+02  0.00000000000E+00 0.  1.
         21   -1    0    0  502  503 -0.00000000000E+00 -0.00000000000E+00 -0.53925391035E+02  0.53925391035E+02  0.00000000000E+00 0. -1.
          2    1    1    2  501    0  0.21425862259E+01 -0.22458382036E+02  0.16649793561E+02  0.28038994722E+02  0.00000000000E+00 0.  1.
         -2    1    1    2    0  503 -0.21425862259E+01  0.22458382036E+02 -0.45592591937E+02  0.50868988971E+02  0.00000000000E+00 0. -1.
</event>
<event>
 4    1  0.1820060E+004  0.2008030E+02  0.7546771E-02  0.1532812E+00
         21   -1    0    0  503  502  0.00000000000E+00  0.00000000000E+00  0.95400814851E+01  0.95400814851E+01  0.00000000000E+00 0. -1.
         21   -1    0    0  501  503 -0.00000000000E+00 -0.00000000000E+00 -0.56603987747E+02  0.56603987747E+02  0.00000000000E+00 0.  1.
          2    1    1    2  501    0  0.72552083942E+01 -0.18723797454E+02 -0.40177013789E+02  0.44915599483E+02  0.00000000000E+00 0. -1.
         -2    1    1    2    0  502 -0.72552083942E+01  0.18723797454E+02 -0.68868924729E+01  0.21228469749E+02  0.00000000000E+00 0.  1.
</event>
<event>
 4    1  0.1820060E+004  0.2426536E+02  0.7546771E-02  0.1477192E+00
         21   -1    0    0  503  502  0.00000000000E+00  0.00000000000E+00  0.61873053926E+01  0.61873053926E+01  0.00000000000E+00 0.  1.
         21   -1    0    0  501  503 -0.00000000000E+00 -0.00000000000E+00 -0.13248751269E+03  0.13248751269E+03  0.00000000000E+00 0. -1.
          2    1    1    2  501    0 -0.42830730171E+01  0.23884368110E+02 -0.99952178865E+02  0.10285546079E+03  0.00000000000E+00 0. -1.
         -2    1    1    2    0  502  0.42830730171E+01 -0.23884368110E+02 -0.26348028429E+02  0.35819357289E+02  0.00000000000E+00 0.  1.
</event>
<event>
 4    1  0.1820060E+004  0.2302681E+02  0.7546771E-02  0.1492162E+00
         21   -1    0    0  503  502  0.00000000000E+00  0.00000000000E+00  0.57403282657E+03  0.57403282657E+03  0.00000000000E+00 0. -1.
         21   -1    0    0  501  503 -0.00000000000E+00 -0.00000000000E+00 -0.13443268665E+01  0.13443268665E+01  0.00000000000E+00 0.  1.
          2    1    1    2  501    0 -0.16555518378E+02 -0.16004653143E+02  0.12542103773E+03  0.12751733536E+03  0.00000000000E+00 0. -1.
         -2    1    1    2    0  502  0.16555518378E+02  0.16004653143E+02  0.44726746197E+03  0.44785981808E+03  0.00000000000E+00 0.  1.
</event>
<event>
 4    1  0.1820060E+004  0.2168981E+02  0.7546771E-02  0.1509640E+00
         21   -1    0    0  501  502  0.00000000000E+00  0.00000000000E+00  0.16228058195E+03  0.16228058195E+03  0.00000000000E+00 0. -1.
         21   -1    0    0  502  503 -0.00000000000E+00 -0.00000000000E+00 -0.48953084971E+01  0.48953084971E+01  0.00000000000E+00 0.  1.
          2    1    1    2  501    0 -0.21660920197E+02 -0.11191505545E+01  0.13207155316E+03  0.13384073788E+03  0.00000000000E+00 0. -1.
         -2    1    1    2    0  503  0.21660920197E+02  0.11191505545E+01  0.25313720296E+02  0.33335152572E+02  0.00000000000E+00 0.  1.
</event>
<event>
 4    1  0.1820060E+004  0.2925966E+02  0.7546771E-02  0.1426141E+00
         21   -1    0    0  501  502  0.00000000000E+00  0.00000000000E+00  0.89755862211E+02  0.89755862211E+02  0.00000000000E+00 0.  1.
         21   -1    0    0  502  503 -0.00000000000E+00 -0.00000000000E+00 -0.96213160728E+01  0.96213160728E+01  0.00000000000E+00 0. -1.
          2    1    1    2  501    0 -0.66741319191E+01 -0.28488303513E+02  0.35454583990E+02  0.45969065684E+02  0.00000000000E+00 0.  1.
         -2    1    1    2    0  503  0.66741319191E+01  0.28488303513E+02  0.44679962149E+02  0.53408112600E+02  0.00000000000E+00 0. -1.
</event>
<event>
 4    1  0.1820060E+004  0.2132369E+02  0.7546771E-02  0.1514693E+00
         21   -1    0    0  503  502  0.00000000000E+00  0.00000000000E+00  0.17656758299E+03  0.17656758299E+03  0.00000000000E+00 0.  1.
         21   -1    0    0  501  503 -0.00000000000E+00 -0.00000000000E+00 -0.26213703477E+01  0.26213703477E+01  0.00000000000E+00 0. -1.
          2    1    1    2  501    0  0.11860425427E+02 -0.17720892036E+02  0.75084737764E+02  0.78053940009E+02  0.00000000000E+00 0. -1.
         -2    1    1    2    0  502 -0.11860425427E+02  0.17720892036E+02  0.98861474878E+02  0.10113501333E+03  0.00000000000E+00 0.  1.
</event>
<event>
 4    1  0.1820060E+004  0.6753418E+02  0.7546771E-02  0.1236180E+00
         21   -1    0    0  501  502  0.00000000000E+00  0.00000000000E+00  0.17300092413E+03  0.17300092413E+03  0.00000000000E+00 0. -1.
         21   -1    0    0  502  503 -0.00000000000E+00 -0.00000000000E+00 -0.26437694109E+02  0.26437694109E+02  0.00000000000E+00 0.  1.
          2    1    1    2  501    0  0.20950902506E+02  0.64202218391E+02  0.78573459872E+02  0.10360817419E+03  0.00000000000E+00 0. -1.
         -2    1    1    2    0  503 -0.20950902506E+02 -0.64202218391E+02  0.67989770150E+02  0.95830444052E+02  0.00000000000E+00 0.  1.
</event>
<event>
 4    1  0.1820060E+004  0.2089147E+02  0.7546771E-02  0.1520820E+00
         21   -1    0    0  501  502  0.00000000000E+00  0.00000000000E+00  0.16584656358E+02  0.16584656358E+02  0.00000000000E+00 0. -1.
         21   -1    0    0  502  503 -0.00000000000E+00 -0.00000000000E+00 -0.79202904701E+02  0.79202904701E+02  0.00000000000E+00 0.  1.
          2    1    1    2  501    0  0.14493048749E+02 -0.15046763847E+02  0.78271728737E+01  0.22309598820E+02  0.00000000000E+00 0. -1.
         -2    1    1    2    0  503 -0.14493048749E+02  0.15046763847E+02 -0.70445421217E+02  0.73477962238E+02  0.00000000000E+00 0.  1.
</event>
<event>
 4    1  0.1820060E+004  0.2078072E+02  0.7546771E-02  0.1522419E+00
         21   -1    0    0  503  502  0.00000000000E+00  0.00000000000E+00  0.13556632835E+01  0.13556632835E+01  0.00000000000E+00 0. -1.
         21   -1    0    0  501  503 -0.00000000000E+00 -0.00000000000E+00 -0.55147239797E+03  0.55147239797E+03  0.00000000000E+00 0.  1.
          2    1    1    2  501    0  0.20517595368E+02 -0.32964352955E+01 -0.45470105784E+03  0.45517566961E+03  0.00000000000E+00 0.  1.
         -2    1    1    2    0  502 -0.20517595368E+02  0.32964352955E+01 -0.95415676846E+02  0.97652391642E+02  0.00000000000E+00 0. -1.
</event>
<event>
 4    1  0.1820060E+004  0.3211578E+02  0.7546771E-02  0.1402059E+00
         21   -1    0    0  503  502  0.00000000000E+00  0.00000000000E+00  0.32645491354E+01  0.32645491354E+01  0.00000000000E+00 0. -1.
         21   -1    0    0  501  503 -0.00000000000E+00 -0.00000000000E+00 -0.33439149400E+03  0.33439149400E+03  0.00000000000E+00 0.  1.
          2    1    1    2  501    0 -0.30159913451E+02  0.11036440213E+02 -0.20521448748E+03  0.20771232334E+03  0.00000000000E+00 0.  1.
         -2    1    1    2    0  502  0.30159913451E+02 -0.11036440213E+02 -0.12591245738E+03  0.12994371980E+03  0.00000000000E+00 0. -1.
</event>
<event>
 4    1  0.1820060E+004  0.2155955E+02  0.7546771E-02  0.1511424E+00
         21   -1    0    0  501  502  0.00000000000E+00  0.00000000000E+00  0.19964512013E+03  0.19964512013E+03  0.00000000000E+00 0. -1.
         21   -1    0    0  502  503 -0.00000000000E+00 -0.00000000000E+00 -0.39703966297E+01  0.39703966297E+01  0.00000000000E+00 0.  1.
          2    1    1    2  501    0  0.34905989405E+01  0.21275097300E+02  0.16331248474E+03  0.16472941971E+03  0.00000000000E+00 0. -1.
         -2    1    1    2    0  503 -0.34905989405E+01 -0.21275097300E+02  0.32362238753E+02  0.38886097042E+02  0.00000000000E+00 0.  1.
</event>
<event>
 4    1  0.1820060E+004  0.2727268E+02  0.7546771E-02  0.1444888E+00
         21   -1    0    0  503  502  0.00000000000E+00  0.00000000000E+00  0.27047731919E+03  0.27047731919E+03  0.00000000000E+00 0. -1.
         21   -1    0    0  501  503 -0.00000000000E+00 -0.00000000000E+00 -0.31655853520E+01  0.31655853520E+01  0.00000000000E+00 0.  1.
          2    1    1    2  501    0  0.26554981419E+02 -0.62154829144E+01  0.18323319402E+03  0.18525172781E+03  0.00000000000E+00 0. -1.
         -2    1    1    2    0  502 -0.26554981419E+02  0.62154829144E+01  0.84078539821E+02  0.88391176735E+02  0.00000000000E+00 0.  1.
</event>
<event>
 4    1  0.1820060E+004  0.2712662E+02  0.7546771E-02  0.1446340E+00
         21   -1    0    0  503  502  0.00000000000E+00  0.00000000000E+00  0.21145698263E+01  0.21145698263E+01  0.00000000000E+00 0.  1.
         21   -1    0    0  501  503 -0.00000000000E+00 -0.00000000000E+00 -0.63345423362E+03  0.63345423362E+03  0.00000000000E+00 0. -1.
          2    1    1    2  501    0  0.12581684456E+02  0.24032370078E+02 -0.52899849327E+03  0.52969355242E+03  0.00000000000E+00 0. -1.
         -2    1    1    2    0  502 -0.12581684456E+02 -0.24032370078E+02 -0.10234117052E+03  0.10587525102E+03  0.00000000000E+00 0.  1.
</event>
<event>
 4    1  0.1820060E+004  0.3883201E+02  0.7546771E-02  0.1355469E+00
         21   -1    0    0  501  502  0.00000000000E+00  0.00000000000E+00  0.54769162239E+02  0.54769162239E+02  0.00000000000E+00 0. -1.
         21   -1    0    0  502  503 -0.00000000000E+00 -0.00000000000E+00 -0.28379218957E+02  0.28379218957E+02  0.00000000000E+00 0.  1.
          2    1    1    2  501    0 -0.37934361783E+02 -0.83011452943E+01  0.20376661828E+02  0.43853542210E+02  0.00000000000E+00 0.  1.
         -2    1    1    2    0  503  0.37934361783E+02  0.83011452943E+01  0.60132814541E+01  0.39294838986E+02  0.00000000000E+00 0. -1.
</event>
<event>
 4    1  0.1820060E+004  0.3974413E+02  0.7546771E-02  0.1349992E+00
         21   -1    0    0  503  502  0.00000000000E+00  0.00000000000E+00  0.24761249954E+01  0.24761249954E+01  0.00000000000E+00 0. -1.
         21   -1    0    0  501  503 -0.00000000000E+00 -0.00000000000E+00 -0.65445908310E+03  0.65445908310E+03  0.00000000000E+00 0.  1.
          2    1    1    2  501    0 -0.85675019514E-01  0.39744035544E+02 -0.37819128229E+03  0.38027390352E+03  0.00000000000E+00 0.  1.
         -2    1    1    2    0  502  0.85675019514E-01 -0.39744035544E+02 -0.27379167582E+03  0.27666130458E+03  0.00000000000E+00 0. -1.
</event>
<event>
 4    1  0.1820060E+004  0.2396871E+02  0.7546771E-02  0.1480679E+00
         21   -1    0    0  501  502  0.00000000000E+00  0.00000000000E+00  0.21093099189E+03  0.21093099189E+03  0.00000000000E+00 0.  1.
         21   -1    0    0  502  503 -0.00000000000E+00 -0.00000000000E+00 -0.35711060384E+01  0.35711060384E+01  0.00000000000E+00 0. -1.
          2    1    1    2  501    0  0.22373753567E+02  0.85973419838E+01  0.15592707781E+03  0.15775852665E+03  0.00000000000E+00 0. -1.
         -2    1    1    2    0  503 -0.22373753567E+02 -0.85973419838E+01  0.51432808044E+02  0.56743571276E+02  0.00000000000E+00 0.  1.
</event>
<event>
 4    1  0.1820060E+004  0.2287110E+02  0.7546771E-02  0.1494123E+00
         21   -1    0    0  501  502  0.00000000000E+00  0.00000000000E+00  0.78543225003E+01  0.78543225003E+01  0.00000000000E+00 0.  1.
         21   -1    0    0  502  503 -0.00000000000E+00 -0.00000000000E+00 -0.69425275621E+02  0.69425275621E+02  0.00000000000E+00 0. -1.
          2    1    1    2  501    0 -0.22016849042E+02  0.61923947615E+01 -0.38582144366E+02  0.44851636074E+02  0.00000000000E+00 0. -1.
         -2    1    1    2    0  503  0.22016849042E+02 -0.61923947615E+01 -0.22988808755E+02  0.32427962048E+02  0.00000000000E+00 0.  1.
</event>
<event>
 4    1  0.1820060E+004  0.2085011E+02  0.7546771E-02  0.1521416E+00
         21   -1    0    0  501  502  0.00000000000E+00  0.00000000000E+00  0.36120685144E+02  0.36120685144E+02  0.00000000000E+00 0.  1.
         21   -1    0    0  502  503 -0.00000000000E+00 -0.00000000000E+00 -0.23418494534E+02  0.23418494534E+02  0.00000000000E+00 0. -1.
          2    1    1    2  501    0 -0.15218942902E+02  0.14251695155E+02  0.27106129820E+02  0.34197504465E+02  0.00000000000E+00 0.  1.
         -2    1    1    2    0  503  0.15218942902E+02 -0.14251695155E+02 -0.14403939210E+02  0.25341675213E+02  0.00000000000E+00 0. -1.
</event>
<event>
 4    1  0.1820060E+004  0.2022975E+02  0.7546771E-02  0.1530552E+00
         21   -1    0    0  501  502  0.00000000000E+00  0.00000000000E+00  0.24136640310E+02  0.24136640310E+02  0.00000000000E+00 0. -1.
         21   -1    0    0  502  503 -0.00000000000E+00 -0.00000000000E+00 -0.18774486998E+02  0.18774486998E+02  0.00000000000E+00 0.  1.
          2    1    1    2  501    0 -0.17743012853E+02  0.97174143423E+01  0.93599182311E+01  0.22290148404E+02  0.00000000000E+00 0. -1.
         -2    1    1    2    0  503  0.17743012853E+02 -0.97174143423E+01 -0.39977649189E+01  0.20620978903E+02  0.00000000000E+00 0.  1.
</event>
<event>
 4    1  0.1820060E+004  0.2898925E+02  0.7546771E-02  0.1428588E+00
         21   -1    0    0  503  502  0.00000000000E+00  0.00000000000E+00  0.20064580951E+02  0.20064580951E+02  0.00000000000E+00 0.  1.
         21   -1    0    0  501  503 -0.00000000000E+00 -0.00000000000E+00 -0.89187489551E+02  0.89187489551E+02  0.00000000000E+00 0. -1.
          2    1    1    2  501    0  0.22215949596E+02 -0.18623316565E+02 -0.74344338153E+02  0.79796346731E+02  0.00000000000E+00 0. -1.
         -2    1    1    2    0  502 -0.22215949596E+02  0.18623316565E+02  0.52214295531E+01  0.29455723771E+02  0.00000000000E+00 0.  1.
</event>
<event>
 4    1  0.1820060E+004  0.6051401E+02  0.7546771E-02  0.1258096E+00
         21   -1    0    0  503  502  0.00000000000E+00  0.00000000000E+00  0.36496776208E+03  0.36496776208E+03  0.00000000000E+00 0.  1.
         21   -1    0    0  501  503 -0.00000000000E+00 -0.00000000000E+00 -0.24154619353E+02  0.24154619353E+02  0.00000000000E+00 0. -1.
          2    1    1    2  501    0 -0.22087068617E+02  0.56339217165E+02  0.21645632418E+02  0.64268805759E+02  0.00000000000E+00 0. -1.
         -2    1    1    2    0  502  0.22087068617E+02 -0.56339217165E+02  0.31916751031E+03  0.32485357568E+03  0.00000000000E+00 0.  1.
</event>
<event>
 4    1  0.1820060E+004  0.2263121E+02  0.7546771E-02  0.1497182E+00
         21   -1    0    0  501  502  0.00000000000E+00  0.00000000000E+00  0.17109044223E+02  0.17109044223E+02  0.00000000000E+00 0. -1.
         21   -1    0    0  502  503 -0.00000000000E+00 -0.00000000000E+00 -0.45160330827E+02  0.45160330827E+02  0.00000000000E+00 0.  1.
          2    1    1    2  501    0 -0.10617737102E+02 -0.19985874755E+02 -0.32103172682E+02  0.39278304790E+02  0.00000000000E+00 0.  1.
         -2    1    1    2    0  503  0.10617737102E+02  0.19985874755E+02  0.40518860782E+01  0.22991070260E+02  0.00000000000E+00 0. -1.
</event>
<event>
 4    1  0.1820060E+004  0.2309493E+02  0.7546771E-02  0.1491310E+00
         21   -1    0    0  501  502  0.00000000000E+00  0.00000000000E+00  0.15155126769E+03  0.15155126769E+03  0.00000000000E+00 0.  1.
         21   -1    0    0  502  503 -0.00000000000E+00 -0.00000000000E+00 -0.39681144805E+01  0.39681144805E+01  0.00000000000E+00 0. -1.
          2    1    1    2  501    0 -0.18688688694E+01 -0.23019187720E+02  0.99938937253E+02  0.10257273933E+03  0.00000000000E+00 0.  1.
         -2    1    1    2    0  503  0.18688688694E+01  0.23019187720E+02  0.47644215957E+02  0.52946642842E+02  0.00000000000E+00 0. -1.
</event>
<event>
 4    1  0.1820060E+004  0.2329981E+02  0.7546771E-02  0.1488767E+00
         21   -1    0    0  501  502  0.00000000000E+00  0.00000000000E+00  0.15913178360E+03  0.15913178360E+03  0.00000000000E+00 0. -1.
         21   -1    0    0  502  503 -0.00000000000E+00 -0.00000000000E+00 -0.34239772039E+01  0.34239772039E+01  0.00000000000E+00 0.  1.
          2    1    1    2  501    0  0.18931462074E+02 -0.13582375071E+02  0.82756514629E+02  0.85973960490E+02  0.00000000000E+00 0. -1.
         -2    1    1    2    0  503 -0.18931462074E+02  0.13582375071E+02  0.72951291772E+02  0.76581800319E+02  0.00000000000E+00 0.  1.
</event>
<event>
 4    1  0.1820060E+004  0.2553344E+02  0.7546771E-02  0.1462923E+00
         21   -1    0    0  501  502  0.00000000000E+00  0.00000000000E+00  0.24612522152E+02  0.24612522152E+02  0.00000000000E+00 0.  1.
         21   -1    0    0  502  503 -0.00000000000E+00 -0.00000000000E+00 -0.29008652452E+02  0.29008652452E+02  0.00000000000E+00 0. -1.
          2    1    1    2  501    0  0.22346554809E+02 -0.12352659335E+02  0.57037753371E+01  0.26162755160E+02  0.00000000000E+00 0.  1.
         -2    1    1    2    0  503 -0.22346554809E+02  0.12352659335E+02 -0.10099905637E+02  0.27458419444E+02  0.00000000000E+00 0. -1.
</event>
<event>
 4    1  0.1820060E+004  0.3303148E+02  0.7546771E-02  0.1394957E+00
         21   -1    0    0  503  502  0.00000000000E+00  0.00000000000E+00  0.47081522379E+03  0.47081522379E+03  0.00000000000E+00 0. -1.
         21   -1    0    0  501  503 -0.00000000000E+00 -0.00000000000E+00 -0.21184619761E+02  0.21184619761E+02  0.00000000000E+00 0.  1.
          2    1    1    2  501    0  0.28456740149E+02  0.16771778933E+02 -0.73398398171E+01  0.33837137541E+02  0.00000000000E+00 0.  1.
         -2    1    1    2    0  502 -0.28456740149E+02 -0.16771778933E+02  0.45697044385E+03  0.45816270601E+03  0.00000000000E+00 0. -1.
</event>
<event>
 4    1  0.1820060E+004  0.2363626E+02  0.7546771E-02  0.1484660E+00
         21   -1    0    0  503  502  0.00000000000E+00  0.00000000000E+00  0.11152550634E+02  0.11152550634E+02  0.00000000000E+00 0. -1.
         21   -1    0    0  501  503 -0.00000000000E+00 -0.00000000000E+00 -0.52710194418E+02  0.52710194418E+02  0.00000000000E+00 0.  1.
          2    1    1    2  501    0  0.24092614829E+01 -0.23513147726E+02 -0.13664570501E+02  0.27301889016E+02  0.00000000000E+00 0. -1.
         -2    1    1    2    0  502 -0.24092614829E+01  0.23513147726E+02 -0.27893073284E+02  0.36560856036E+02  0.00000000000E+00 0.  1.
</event>
<event>
 4    1  0.1820060E+004  0.2002743E+02  0.7546771E-02  0.1533617E+00
         21   -1    0    0  503  502  0.00000000000E+00  0.00000000000E+00  0.57597312570E+02  0.57597312570E+02  0.00000000000E+00 0.  1.
         21   -1    0    0  501  503 -0.00000000000E+00 -0.00000000000E+00 -0.10694847166E+02  0.10694847166E+02  0.00000000000E+00 0. -1.
          2    1    1    2  501    0  0.11279780504E+02  0.16548846589E+02  0.32830249266E+01  0.20294728979E+02  0.00000000000E+00 0. -1.
         -2    1    1    2    0  502 -0.11279780504E+02 -0.16548846589E+02  0.43619440478E+02  0.47997430757E+02  0.00000000000E+00 0.  1.
</event>
<event>
 4    1  0.1820060E+004  0.2994021E+02  0.7546771E-02  0.1420117E+00
         21   -1    0    0  501  502  0.00000000000E+00  0.00000000000E+00  0.17445909502E+02  0.17445909502E+02  0.00000000000E+00 0.  1.
         21   -1    0    0  502  503 -0.00000000000E+00 -0.00000000000E+00 -0.59029529122E+02  0.59029529122E+02  0.00000000000E+00 0. -1.
          2    1    1    2  501    0 -0.25238199553E+02 -0.16107444038E+02 -0.70292126725E+01  0.30754289147E+02  0.00000000000E+00 0.  1.
         -2    1    1    2    0  503  0.25238199553E+02  0.16107444038E+02 -0.34554406947E+02  0.45721149477E+02  0.00000000000E+00 0. -1.
</event>
<event>
 4    1  0.1820060E+004  0.2190130E+02  0.7546771E-02  0.1506775E+00
         21   -1    0    0  503  502  0.00000000000E+00  0.00000000000E+00  0.95611087029E+02  0.95611087029E+02  0.00000000000E+00 0. -1.
         21   -1    0    0  501  503 -0.00000000000E+00 -0.00000000000E+00 -0.54348344986E+01  0.54348344986E+01  0.00000000000E+00 0.  1.
          2    1    1    2  501    0  0.19109782533E+02  0.10699670315E+02  0.31076957836E+02  0.38018995800E+02  0.00000000000E+00 0.  1.
         -2    1    1    2    0  502 -0.19109782533E+02 -0.10699670315E+02  0.59099294694E+02  0.63026925728E+02  0.00000000000E+00 0. -1.
</event>
<event>
 4    1  0.1820060E+004  0.2675407E+02  0.7546771E-02  0.1450094E+00
         21   -1    0    0  503  502  0.00000000000E+00  0.00000000000E+00  0.85013850838E+03  0.85013850838E+03  0.00000000000E+00 0.  1.
         21   -1    0    0  501  503 -0.00000000000E+00 -0.00000000000E+00 -0.85365009904E+00  0.85365009904E+00  0.00000000000E+00 0. -1.
          2    1    1    2  501    0 -0.26023251999E+02  0.62105366234E+01  0.47444055128E+03  0.47519429406E+03  0.00000000000E+00 0. -1.
         -2    1    1    2    0  502  0.26023251999E+02 -0.62105366234E+01  0.37484430699E+03  0.37579786441E+03  0.00000000000E+00 0.  1.
</event>
<event>
 4    1  0.1820060E+004  0.2863493E+02  0.7546771E-02  0.1431842E+00
         21   -1    0    0  503  502  0.00000000000E+00  0.00000000000E+00  0.39099283167E+03  0.39099283167E+03  0.00000000000E+00 0.  1.
         21   -1    0    0  501  503 -0.00000000000E+00 -0.00000000000E+00 -0.23909752953E+01  0.23909752953E+01  0.00000000000E+00 0. -1.
          2    1    1    2  501    0 -0.70229188288E+01  0.27760365643E+02  0.26325579738E+03  0.26480856131E+03  0.00000000000E+00 0.  1.
         -2    1    1    2    0  502  0.70229188288E+01 -0.27760365643E+02  0.12534605899E+03  0.12857524565E+03  0.00000000000E+00 0. -1.
</event>
<event>
 4    1  0.1820060E+004  0.2450632E+02  0.7546771E-02  0.1474403E+00
         21   -1    0    0  501  502  0.00000000000E+00  0.00000000000E+00  0.20067771595E+02  0.20067771595E+02  0.00000000000E+00 0. -1.
         21   -1    0    0  502  503 -0.00000000000E+00 -0.00000000000E+00 -0.45706070595E+02  0.45706070595E+02  0.00000000000E+00 0.  1.
          2    1    1    2  501    0  0.11213114583E+02  0.21790496345E+02  0.65042188643E+01  0.25354773370E+02  0.00000000000E+00 0. -1.
         -2    1    1    2    0  503 -0.11213114583E+02 -0.21790496345E+02 -0.32142517864E+02  0.40419068820E+02  0.00000000000E+00 0.  1.
</event>
<event>
 4    1  0.1820060E+004  0.2146684E+02  0.7546771E-02  0.1512703E+00
         21   -1    0    0  503  502  0.00000000000E+00  0.00000000000E+00  0.14668083037E+03  0.14668083037E+03  0.00000000000E+00 0.  1.
         21   -1    0    0  501  503 -0.00000000000E+00 -0.00000000000E+00 -0.35177326761E+01  0.35177326761E+01  0.00000000000E+00 0. -1.
          2    1    1    2  501    0  0.20602762492E+02 -0.60292121186E+01  0.47027404173E+02  0.51695279903E+02  0.00000000000E+00 0. -1.
         -2    1    1    2    0  502 -0.20602762492E+02  0.60292121186E+01  0.96135693524E+02  0.98503283145E+02  0.00000000000E+00 0.  1.
</event>
<event>
 4    1  0.1820060E+004  0.2482818E+02  0.7546771E-02  0.1470735E+00
         21   -1    0    0  501  502  0.00000000000E+00  0.00000000000E+00  0.17570870986E+03  0.17570870986E+03  0.00000000000E+00 0.  1.
         21   -1    0    0  502  503 -0.00000000000E+00 -0.00000000000E+00 -0.76192662988E+01  0.76192662988E+01  0.00000000000E+00 0. -1.
          2    1    1    2  501    0  0.64791828348E+01  0.23967868704E+02  0.15137559213E+03  0.15339820218E+03  0.00000000000E+00 0.  1.
         -2    1    1    2    0  503 -0.64791828348E+01 -0.23967868704E+02  0.16713851426E+02  0.29929773970E+02  0.00000000000E+00 0. -1.
</event>
<event>
 4    1  0.1820060E+004  0.2404641E+02  0.7546771E-02  0.1479760E+00
         21   -1    0    0  501  502  0.00000000000E+00  0.00000000000E+00  0.29514251586E+01  0.29514251586E+01  0.00000000000E+00 0. -1.
         21   -1    0    0  502  503 -0.00000000000E+00 -0.00000000000E+00 -0.19598371745E+03  0.19598371745E+03  0.00000000000E+00 0.  1.
          2    1    1    2  501    0 -0.83042646811E+01 -0.22566993130E+02 -0.98371641102E+02  0.10126800958E+03  0.00000000000E+00 0.  1.
         -2    1    1    2    0  503  0.83042646811E+01  0.22566993130E+02 -0.94660651186E+02  0.97667133027E+02  0.00000000000E+00 0. -1.
</event>
<event>
 4    1  0.1820060E+004  0.2200178E+02  0.7546771E-02  0.1505428E+00
         21   -1    0    0  503  502  0.00000000000E+00  0.00000000000E+00  0.18757605922E+01  0.18757605922E+01  0.00000000000E+00 0.  1.
         21   -1    0    0  501  503 -0.00000000000E+00 -0.00000000000E+00 -0.30963588212E+03  0.30963588212E+03  0.00000000000E+00 0. -1.
          2    1    1    2  501    0  0.17743680291E+02 -0.13009236258E+02 -0.21744211008E+03  0.21855239567E+03  0.00000000000E+00 0. -1.
         -2    1    1    2    0  502 -0.17743680291E+02  0.13009236258E+02 -0.90318011449E+02  0.92959247041E+02  0.00000000000E+00 0.  1.
</event>
<event>
 4    1  0.1820060E+004  0.3296681E+02  0.7546771E-02  0.1395450E+00
         21   -1    0    0  503  502  0.00000000000E+00  0.00000000000E+00  0.74723968148E+00  0.74723968148E+00  0.00000000000E+00 0. -1.
         21   -1    0    0  501  503 -0.00000000000E+00 -0.00000000000E+00 -0.16904520442E+04  0.16904520442E+04  0.00000000000E+00 0.  1.
          2    1    1    2  501    0 -0.16392699659E+02 -0.28602277433E+02 -0.52888966251E+03  0.52991611222E+03  0.00000000000E+00 0. -1.
         -2    1    1    2    0  502  0.16392699659E+02  0.28602277433E+02 -0.11608151420E+04  0.11612831717E+04  0.00000000000E+00 0.  1.
</event>
<event>
 4    1  0.1820060E+004  0.2306620E+02  0.7546771E-02  0.1491669E+00
         21   -1    0    0  503  502  0.00000000000E+00  0.00000000000E+00  0.14116553127E+03  0.14116553127E+03  0.00000000000E+00 0. -1.
         21   -1    0    0  501  503 -0.00000000000E+00 -0.00000000000E+00 -0.55170042795E+01  0.55170042795E+01  0.00000000000E+00 0.  1.
          2    1    1    2  501    0  0.16718145524E+02  0.15891926282E+02  0.26541306831E+02  0.35163769408E+02  0.00000000000E+00 0.  1.
         -2    1    1    2    0  502 -0.16718145524E+02 -0.15891926282E+02  0.10910722016E+03  0.11151876614E+03  0.00000000000E+00 0. -1.
</event>
<event>
 4    1  0.1820060E+004  0.3363618E+02  0.7546771E-02  0.1390413E+00
         21   -1    0    0  503  502  0.00000000000E+00  0.00000000000E+00  0.34390929042E+03  0.34390929042E+03  0.00000000000E+00 0.  1.
         21   -1    0    0  501  503 -0.00000000000E+00 -0.00000000000E+00 -0.33709492610E+01  0.33709492610E+01  0.00000000000E+00 0. -1.
          2    1    1    2  501    0  0.15660429085E+02  0.29768160955E+02  0.14332784983E+03  0.14722182237E+03  0.00000000000E+00 0.  1.
         -2    1    1    2    0  502 -0.15660429085E+02 -0.29768160955E+02  0.19721049133E+03  0.20005841731E+03  0.00000000000E+00 0. -1.
</event>
<event>
 4    1  0.1820060E+004  0.2229139E+02  0.7546771E-02  0.1501593E+00
         21   -1    0    0  501  502  0.00000000000E+00  0.00000000000E+00  0.29140826687E+03  0.29140826687E+03  0.00000000000E+00 0. -1.
         21   -1    0    0  502  503 -0.00000000000E+00 -0.00000000000E+00 -0.11691366051E+02  0.11691366051E+02  0.00000000000E+00 0.  1.
          2    1    1    2  501    0  0.20319047029E+02 -0.91674541999E+01  0.27992113218E+03  0.28080731139E+03  0.00000000000E+00 0. -1.
         -2    1    1    2    0  503 -0.20319047029E+02  0.91674541999E+01 -0.20423136389E+00  0.22292321528E+02  0.00000000000E+00 0.  1.
</event>
<event>
 4    1  0.1820060E+004  0.2316596E+02  0.7546771E-02  0.1490425E+00
         21   -1    0    0  501  502  0.00000000000E+00  0.00000000000E+00  0.30717954387E+03  0.30717954387E+03  0.00000000000E+00 0.  1.
         21   -1    0    0  502  503 -0.00000000000E+00 -0.00000000000E+00 -0.20126493916E+01  0.20126493916E+01  0.00000000000E+00 0. -1.
          2    1    1    2  501    0  0.21741814620E+02 -0.79971972588E+01  0.96424585347E+02  0.99168353452E+02  0.00000000000E+00 0. -1.
         -2    1    1    2    0  503 -0.21741814620E+02  0.79971972588E+01  0.20874230913E+03  0.21002383981E+03  0.00000000000E+00 0.  1.
</event>
<event>
 4    1  0.1820060E+004  0.2762036E+02  0.7546771E-02  0.1441474E+00
         21   -1    0    0  503  502  0.00000000000E+00  0.00000000000E+00  0.38038513800E+02  0.38038513800E+02  0.00000000000E+00 0. -1.
         21   -1    0    0  501  503 -0.00000000000E+00 -0.00000000000E+00 -0.24601667225E+02  0.24601667225E+02  0.00000000000E+00 0.  1.
          2    1    1    2  501    0  0.20087626914E+02  0.18957091354E+02 -0.67451428834E+01  0.28432042138E+02  0.00000000000E+00 0. -1.
         -2    1    1    2    0  502 -0.20087626914E+02 -0.18957091354E+02  0.20181989458E+02  0.34208138887E+02  0.00000000000E+00 0.  1.
</event>
<event>
 4    1  0.1820060E+004  0.2056762E+02  0.7546771E-02  0.1525528E+00
         21   -1    0    0  501  502  0.00000000000E+00  0.00000000000E+00  0.37748601400E+02  0.37748601400E+02  0.00000000000E+00 0.  1.
         21   -1    0    0  502  503 -0.00000000000E+00 -0.00000000000E+00 -0.17504343412E+02  0.17504343412E+02  0.00000000000E+00 0. -1.
          2    1    1    2  501    0 -0.20280776731E+02 -0.34230478931E+01  0.26693207333E+02  0.33697989249E+02  0.00000000000E+00 0.  1.
         -2    1    1    2    0  503  0.20280776731E+02  0.34230478931E+01 -0.64489493439E+01  0.21554955563E+02  0.00000000000E+00 0. -1.
</event>
<event>
 4    1  0.1820060E+004  0.2016924E+02  0.7546771E-02  0.1531464E+00
         21   -1    0    0  503  502  0.00000000000E+00  0.00000000000E+00  0.17496763080E+01  0.17496763080E+01  0.00000000000E+00 0.  1.
         21   -1    0    0  501  503 -0.00000000000E+00 -0.00000000000E+00 -0.28389960695E+03  0.28389960695E+03  0.00000000000E+00 0. -1.
          2    1    1    2  501    0 -0.16112856467E+02 -0.12131530153E+02 -0.20184709381E+03  0.20285227986E+03  0.00000000000E+00 0.  1.
         -2    1    1    2    0  502  0.16112856467E+02  0.12131530153E+02 -0.80302836834E+02  0.82797003394E+02  0.00000000000E+00 0. -1.
</event>
<event>
 4    1  0.1820060E+004  0.3722593E+02  0.7546771E-02  0.1365556E+00
         21   -1    0    0  503  502  0.00000000000E+00  0.00000000000E+00  0.14280300408E+02  0.14280300408E+02  0.00000000000E+00 0. -1.
         21   -1    0    0  501  503 -0.00000000000E+00 -0.00000000000E+00 -0.10309933767E+03  0.10309933767E+03  0.00000000000E+00 0.  1.
          2    1    1    2  501    0  0.16374310466E+02  0.33431296324E+02 -0.58636873261E+02  0.69455399523E+02  0.00000000000E+00 0.  1.
         -2    1    1    2    0  502 -0.16374310466E+02 -0.33431296324E+02 -0.30182163997E+02  0.47924238551E+02  0.00000000000E+00 0. -1.
</event>
<event>
 4    1  0.1820060E+004  0.2534162E+02  0.7546771E-02  0.1465018E+00
         21   -1    0    0  503  502  0.00000000000E+00  0.00000000000E+00  0.12192639193E+02  0.12192639193E+02  0.00000000000E+00 0. -1.
         21   -1    0    0  501  503 -0.00000000000E+00 -0.00000000000E+00 -0.72842132566E+02  0.72842132566E+02  0.00000000000E+00 0.  1.
          2    1    1    2  501    0  0.23506564274E+02 -0.94677912323E+01 -0.52698617880E+02  0.58475139685E+02  0.00000000000E+00 0.  1.
         -2    1    1    2    0  502 -0.23506564274E+02  0.94677912323E+01 -0.79508754930E+01  0.26559632074E+02  0.00000000000E+00 0. -1.
</event>
<event>
 4    1  0.1820060E+004  0.2021133E+02  0.7546771E-02  0.1530829E+00
         21   -1    0    0  501  502  0.00000000000E+00  0.00000000000E+00  0.87617332785E+02  0.87617332785E+02  0.00000000000E+00 0.  1.
         21   -1    0    0  502  503 -0.00000000000E+00 -0.00000000000E+00 -0.68053755559E+01  0.68053755559E+01  0.00000000000E+00 0. -1.
          2    1    1    2  501    0  0.64186870144E+01  0.19165024428E+02  0.66899508674E+02  0.69885921080E+02  0.00000000000E+00 0.  1.
         -2    1    1    2    0  503 -0.64186870144E+01 -0.19165024428E+02  0.13912448555E+02  0.24536787261E+02  0.00000000000E+00 0. -1.
</event>
<event>
 4    1  0.1820060E+004  0.2715463E+02  0.7546771E-02  0.1446061E+00
         21   -1    0    0  501  502  0.00000000000E+00  0.00000000000E+00  0.46571643077E+02  0.46571643077E+02  0.00000000000E+00 0. -1.
         21   -1    0    0  502  503 -0.00000000000E+00 -0.00000000000E+00 -0.16172461493E+02  0.16172461493E+02  0.00000000000E+00 0.  1.
          2    1    1    2  501    0 -0.35788254471E+00 -0.27152275027E+02  0.19743999622E+02  0.33573793949E+02  0.00000000000E+00 0. -1.
         -2    1    1    2    0  503  0.35788254471E+00  0.27152275027E+02  0.10655181963E+02  0.29170310621E+02  0.00000000000E+00 0.  1.
</event>
<event>
 4    1  0.1820060E+004  0.2449264E+02  0.7546771E-02  0.1474560E+00
         21   -1    0    0  501  502  0.00000000000E+00  0.00000000000E+00  0.55122571960E+02  0.55122571960E+02  0.00000000000E+00 0.  1.
         21   -1    0    0  502  503 -0.00000000000E+00 -0.00000000000E+00 -0.11108924800E+02  0.11108924800E+02  0.00000000000E+00 0. -1.
          2    1    1    2  501    0 -0.11706952923E+02 -0.21513638634E+02  0.26731228185E+02  0.36255316222E+02  0.00000000000E+00 0.  1.
         -2    1    1    2    0  503  0.11706952923E+02  0.21513638634E+02  0.17282418975E+02  0.29976180539E+02  0.00000000000E+00 0. -1.
</event>
<event>
 4    1  0.1820060E+004  0.2047747E+02  0.7546771E-02  0.1526858E+00
         21   -1    0    0  501  502  0.00000000000E+00  0.00000000000E+00  0.44007419625E+02  0.44007419625E+02  0.00000000000E+00 0. -1.
         21   -1    0    0  502  503 -0.00000000000E+00 -0.00000000000E+00 -0.10126532288E+02  0.10126532288E+02  0.00000000000E+00 0.  1.
          2    1    1    2  501    0 -0.11119265444E+02 -0.17195607155E+02  0.10363063655E+02  0.22950382518E+02  0.00000000000E+00 0.  1.
         -2    1    1    2    0  503  0.11119265444E+02  0.17195607155E+02  0.23517823682E+02  0.31183569395E+02  0.00000000000E+00 0. -1.
</event>
<event>
 4    1  0.1820060E+004  0.2388292E+02  0.7546771E-02  0.1481699E+00
         21   -1    0    0  501  502  0.00000000000E+00  0.00000000000E+00  0.50988256118E+02  0.50988256118E+02  0.00000000000E+00 0.  1.
         21   -1    0    0  502  503 -0.00000000000E+00 -0.00000000000E+00 -0.15340764807E+02  0.15340764807E+02  0.00000000000E+00 0. -1.
          2    1    1    2  501    0  0.10993074842E+02  0.21202503384E+02  0.35081453431E+02  0.42439394660E+02  0.00000000000E+00 0.  1.
         -2    1    1    2    0  503 -0.10993074842E+02 -0.21202503384E+02  0.56603787927E+00  0.23889626265E+02  0.00000000000E+00 0. -1.
</event>
<event>
 4    1  0.1820060E+004  0.2623018E+02  0.7546771E-02  0.1455498E+00
         21   -1    0    0  501  502  0.00000000000E+00  0.00000000000E+00  0.29914168067E+01  0.29914168067E+01  0.00000000000E+00 0.  1.
         21   -1    0    0  502  503 -0.00000000000E+00 -0.00000000000E+00 -0.23753867944E+03  0.23753867944E+03  0.00000000000E+00 0. -1.
          2    1    1    2  501    0 -0.14015884340E+02 -0.22171546506E+02 -0.95847073062E+02  0.99371444102E+02  0.00000000000E+00 0.  1.
         -2    1    1    2    0  503  0.14015884340E+02  0.22171546506E+02 -0.13870018957E+03  0.14115865215E+03  0.00000000000E+00 0. -1.
</event>
<event>
 4    1  0.1820060E+004  0.2344872E+02  0.7546771E-02  0.1486939E+00
         21   -1    0    0  503  502  0.00000000000E+00  0.00000000000E+00  0.87301228858E+03  0.87301228858E+03  0.00000000000E+00 0.  1.
         21   -1    0    0  501  503 -0.00000000000E+00 -0.00000000000E+00 -0.16120489066E+02  0.16120489066E+02  0.00000000000E+00 0. -1.
          2    1    1    2  501    0 -0.17036093350E+02  0.16112546394E+02 -0.73494320165E+01  0.24573497490E+02  0.00000000000E+00 0. -1.
         -2    1    1    2    0  502  0.17036093350E+02 -0.16112546394E+02  0.86424123153E+03  0.86455928016E+03  0.00000000000E+00 0.  1.
</event>
<event>
 4    1  0.1820060E+004  0.2902661E+02  0.7546771E-02  0.1428248E+00
         21   -1    0    0  501  502  0.00000000000E+00  0.00000000000E+00  0.29879677405E+03  0.29879677405E+03  0.00000000000E+00 0. -1.
         21   -1    0    0  502  503 -0.00000000000E+00 -0.00000000000E+00 -0.45389944461E+01  0.45389944461E+01  0.00000000000E+00 0.  1.
          2    1    1    2  501    0  0.28524594412E+02  0.53751159659E+01  0.24047097102E+03  0.24221649874E+03  0.00000000000E+00 0. -1.
         -2    1    1    2    0  503 -0.28524594412E+02 -0.53751159659E+01  0.53786808584E+02  0.61119269757E+02  0.00000000000E+00 0.  1.
</event>
<event>
 4    1  0.1820060E+004  0.2205676E+02  0.7546771E-02  0.1504695E+00
         21   -1    0    0  501  502  0.00000000000E+00  0.00000000000E+00  0.53527584963E+01  0.53527584963E+01  0.00000000000E+00 0. -1.
         21   -1    0    0  502  503 -0.00000000000E+00 -0.00000000000E+00 -0.10567254856E+03  0.10567254856E+03  0.00000000000E+00 0.  1.
          2    1    1    2  501    0  0.15906248330E+02 -0.15280440488E+02 -0.29395587803E+02  0.36750526251E+02  0.00000000000E+00 0. -1.
         -2    1    1    2    0  503 -0.15906248330E+02  0.15280440488E+02 -0.70924202261E+02  0.74274780806E+02  0.00000000000E+00 0.  1.
</event>
<event>
 4    1  0.1820060E+004  0.2308033E+02  0.7546771E-02  0.1491492E+00
         21   -1    0    0  503  502  0.00000000000E+00  0.00000000000E+00  0.45407653804E+01  0.45407653804E+01  0.00000000000E+00 0.  1.
         21   -1    0    0  501  503 -0.00000000000E+00 -0.00000000000E+00 -0.20310570840E+03  0.20310570840E+03  0.00000000000E+00 0. -1.
          2    1    1    2  501    0  0.19279113218E+02  0.12689260402E+02 -0.16675899667E+03  0.16834863976E+03  0.00000000000E+00 0. -1.
         -2    1    1    2    0  502 -0.19279113218E+02 -0.12689260402E+02 -0.31805946342E+02  0.39297834020E+02  0.00000000000E+00 0.  1.
</event>
<event>
 4    1  0.1820060E+004  0.2086094E+02  0.7546771E-02  0.1521260E+00
         21   -1    0    0  503  502  0.00000000000E+00  0.00000000000E+00  0.16584157318E+01  0.16584157318E+01  0.00000000000E+00 0. -1.
         21   -1    0    0  501  503 -0.00000000000E+00 -0.00000000000E+00 -0.27362245032E+03  0.27362245032E+03  0.00000000000E+00 0.  1.
          2    1    1    2  501    0  0.19694324747E+02 -0.68784028687E+01 -0.16384904879E+03  0.16517169746E+03  0.00000000000E+00 0.  1.
         -2    1    1    2    0  502 -0.19694324747E+02  0.68784028687E+01 -0.10811498580E+03  0.11010916859E+03  0.00000000000E+00 0. -1.
</event>
<event>
 4    1  0.1820060E+004  0.3229146E+02  0.7546771E-02  0.1400675E+00
         21   -1    0    0  503  502  0.00000000000E+00  0.00000000000E+00  0.26427235141E+03  0.26427235141E+03  0.00000000000E+00 0. -1.
         21   -1    0    0  501  503 -0.00000000000E+00 -0.00000000000E+00 -0.10919293936E+02  0.10919293936E+02  0.00000000000E+00 0.  1.
          2    1    1    2  501    0 -0.16159014877E+01  0.32251005572E+02  0.16716104514E+02  0.36361609538E+02  0.00000000000E+00 0.  1.
         -2    1    1    2    0  502  0.16159014877E+01 -0.32251005572E+02  0.23663695296E+03  0.23883003581E+03  0.00000000000E+00 0. -1.
</event>
<event>
 4    1  0.1820060E+004  0.2642677E+02  0.7546771E-02  0.1453453E+00
         21   -1    0    0  501  502  0.00000000000E+00  0.00000000000E+00  0.46335124008E+02  0.46335124008E+02  0.00000000000E+00 0.  1.
         21   -1    0    0  502  503 -0.00000000000E+00 -0.00000000000E+00 -0.16475940695E+03  0.16475940695E+03  0.00000000000E+00 0. -1.
          2    1    1    2  501    0  0.14195065521E+02  0.22290671229E+02  0.41391607928E+02  0.49108442409E+02  0.00000000000E+00 0.  1.
         -2    1    1    2    0  503 -0.14195065521E+02 -0.22290671229E+02 -0.15981589087E+03  0.16198608855E+03  0.00000000000E+00 0. -1.
</event>
<event>
 4    1  0.1820060E+004  0.2189592E+02  0.7546771E-02  0.1506848E+00
         21   -1    0    0  501  502  0.00000000000E+00  0.00000000000E+00  0.74245736620E+02  0.74245736620E+02  0.00000000000E+00 0. -1.
         21   -1    0    0  502  503 -0.00000000000E+00 -0.00000000000E+00 -0.10429753169E+02  0.10429753169E+02  0.00000000000E+00 0.  1.
          2    1    1    2  501    0  0.21889512146E+02 -0.52980880562E+00  0.57793503920E+01  0.22645801605E+02  0.00000000000E+00 0. -1.
         -2    1    1    2    0  503 -0.21889512146E+02  0.52980880562E+00  0.58036633060E+02  0.62029688184E+02  0.00000000000E+00 0.  1.
</event>
<event>
 4    1  0.1820060E+004  0.2028804E+02  0.7546771E-02  0.1529677E+00
         21   -1    0    0  501  502  0.00000000000E+00  0.00000000000E+00  0.10984839335E+01  0.10984839335E+01  0.00000000000E+00 0.  1.
         21   -1    0    0  502  503 -0.00000000000E+00 -0.00000000000E+00 -0.90309672726E+03  0.90309672726E+03  0.00000000000E+00 0. -1.
          2    1    1    2  501    0  0.18778591108E+02  0.76791407185E+01 -0.10518390360E+03  0.10712263189E+03  0.00000000000E+00 0.  1.
         -2    1    1    2    0  503 -0.18778591108E+02 -0.76791407185E+01 -0.79681433973E+03  0.79707257931E+03  0.00000000000E+00 0. -1.
</event>
<event>
 4    1  0.1820060E+004  0.3078266E+02  0.7546771E-02  0.1412915E+00
         21   -1    0    0  501  502  0.00000000000E+00  0.00000000000E+00  0.45206819737E+03  0.45206819737E+03  0.00000000000E+00 0.  1.
         21   -1    0    0  502  503 -0.00000000000E+00 -0.00000000000E+00 -0.51045294761E+01  0.51045294761E+01  0.00000000000E+00 0. -1.
          2    1    1    2  501    0  0.30725960845E+02  0.18673997633E+01  0.39896833013E+03  0.40015409569E+03  0.00000000000E+00 0.  1.
         -2    1    1    2    0  503 -0.30725960845E+02 -0.18673997633E+01  0.47995337763E+02  0.57018631154E+02  0.00000000000E+00 0. -1.
</event>
<event>
 4    1  0.1820060E+004  0.2323114E+02  0.7546771E-02  0.1489616E+00
         21   -1    0    0  501  502  0.00000000000E+00  0.00000000000E+00  0.13456679220E+03  0.13456679220E+03  0.00000000000E+00 0.  1.
         21   -1    0    0  502  503 -0.00000000000E+00 -0.00000000000E+00 -0.35756312724E+02  0.35756312724E+02  0.00000000000E+00 0. -1.
          2    1    1    2  501    0  0.11444392551E+02 -0.20216623860E+02  0.12964878948E+03  0.13171368424E+03  0.00000000000E+00 0.  1.
         -2    1    1    2    0  503 -0.11444392551E+02  0.20216623860E+02 -0.30838310011E+02  0.38609420683E+02  0.00000000000E+00 0. -1.
</event>
<event>
 4    1  0.1820060E+004  0.2345932E+02  0.7546771E-02  0.1486810E+00
         21   -1    0    0  501  502  0.00000000000E+00  0.00000000000E+00  0.16510250983E+03  0.16510250983E+03  0.00000000000E+00 0.  1.
         21   -1    0    0  502  503 -0.00000000000E+00 -0.00000000000E+00 -0.17387169031E+02  0.17387169031E+02  0.00000000000E+00 0. -1.
          2    1    1    2  501    0 -0.19548730620E+02 -0.12968693687E+02  0.15589121528E+03  0.15764647439E+03  0.00000000000E+00 0.  1.
         -2    1    1    2    0  503  0.19548730620E+02  0.12968693687E+02 -0.81758744845E+01  0.24843204471E+02  0.00000000000E+00 0. -1.
</event>
<event>
 4    1  0.1820060E+004  0.2435253E+02  0.7546771E-02  0.1476179E+00
         21   -1    0    0  503  502  0.00000000000E+00  0.00000000000E+00  0.10078337055E+02  0.10078337055E+02  0.00000000000E+00 0.  1.
         21   -1    0    0  501  503 -0.00000000000E+00 -0.00000000000E+00 -0.18143305934E+03  0.18143305934E+03  0.00000000000E+00 0. -1.
          2    1    1    2  501    0  0.10249741162E+02  0.22090459953E+02 -0.16438791776E+03  0.16618192778E+03  0.00000000000E+00 0. -1.
         -2    1    1    2    0  502 -0.10249741162E+02 -0.22090459953E+02 -0.69668045190E+01  0.25329468609E+02  0.00000000000E+00 0.  1.
</event>
<event>
 4    1  0.1820060E+004  0.4669701E+02  0.7546771E-02  0.1313165E+00
         21   -1    0    0  501  502  0.00000000000E+00  0.00000000000E+00  0.32622363681E+02  0.32622363681E+02  0.00000000000E+00 0.  1.
         21   -1    0    0  502  503 -0.00000000000E+00 -0.00000000000E+00 -0.15164785499E+03  0.15164785499E+03  0.00000000000E+00 0. -1.
          2    1    1    2  501    0  0.34925184437E+01  0.46566223383E+02  0.93865360108E+01  0.47631060281E+02  0.00000000000E+00 0.  1.
         -2    1    1    2    0  503 -0.34925184437E+01 -0.46566223383E+02 -0.12841202732E+03  0.13663915839E+03  0.00000000000E+00 0. -1.
</event>
<event>
 4    1  0.1820060E+004  0.2167442E+02  0.7546771E-02  0.1509850E+00
         21   -1    0    0  503  502  0.00000000000E+00  0.00000000000E+00  0.16411862505E+01  0.16411862505E+01  0.00000000000E+00 0.  1.
         21   -1    0    0  501  503 -0.00000000000E+00 -0.00000000000E+00 -0.29144003852E+03  0.29144003852E+03  0.00000000000E+00 0. -1.
          2    1    1    2  501    0  0.10748777795E+02 -0.18821376084E+02 -0.16446540724E+03  0.16588746366E+03  0.00000000000E+00 0. -1.
         -2    1    1    2    0  502 -0.10748777795E+02  0.18821376084E+02 -0.12533344504E+03  0.12719376111E+03  0.00000000000E+00 0.  1.
</event>
<event>
 4    1  0.1820060E+004  0.2199904E+02  0.7546771E-02  0.1505465E+00
         21   -1    0    0  501  502  0.00000000000E+00  0.00000000000E+00  0.24648944665E+01  0.24648944665E+01  0.00000000000E+00 0.  1.
         21   -1    0    0  502  503 -0.00000000000E+00 -0.00000000000E+00 -0.28951496988E+03  0.28951496988E+03  0.00000000000E+00 0. -1.
          2    1    1    2  501    0  0.61926928364E+01  0.21109436366E+02 -0.60704761146E+02  0.64567993418E+02  0.00000000000E+00 0.  1.
         -2    1    1    2    0  503 -0.61926928364E+01 -0.21109436366E+02 -0.22634531427E+03  0.22741187093E+03  0.00000000000E+00 0. -1.
</event>
<event>
 4    1  0.1820060E+004  0.2305860E+02  0.7546771E-02  0.1491764E+00
         21   -1    0    0  503  502  0.00000000000E+00  0.00000000000E+00  0.75231890377E+02  0.75231890377E+02  0.00000000000E+00 0.  1.
         21   -1    0    0  501  503 -0.00000000000E+00 -0.00000000000E+00 -0.42694695072E+02  0.42694695072E+02  0.00000000000E+00 0. -1.
          2    1    1    2  501    0 -0.89489297755E+01  0.21251247210E+02 -0.37593813550E+02  0.44102082369E+02  0.00000000000E+00 0. -1.
         -2    1    1    2    0  502  0.89489297755E+01 -0.21251247210E+02  0.70131008855E+02  0.73824503080E+02  0.00000000000E+00 0.  1.
</event>
<event>
 4    1  0.1820060E+004  0.2099880E+02  0.7546771E-02  0.1519282E+00
         21   -1    0    0  503  502  0.00000000000E+00  0.00000000000E+00  0.21433000053E+02  0.21433000053E+02  0.00000000000E+00 0.  1.
         21   -1    0    0  501  503 -0.00000000000E+00 -0.00000000000E+00 -0.24030088151E+02  0.24030088151E+02  0.00000000000E+00 0. -1.
          2    1    1    2  501    0 -0.19147445253E+02  0.86211911378E+01  0.73229316934E+01  0.22239040558E+02  0.00000000000E+00 0.  1.
         -2    1    1    2    0  502  0.19147445253E+02 -0.86211911378E+01 -0.99200197919E+01  0.23224047645E+02  0.00000000000E+00 0. -1.
</event>
<event>
 4    1  0.1820060E+004  0.3300586E+02  0.7546771E-02  0.1395152E+00
         21   -1    0    0  503  502  0.00000000000E+00  0.00000000000E+00  0.93802808973E+01  0.93802808973E+01  0.00000000000E+00 0.  1.
         21   -1    0    0  501  503 -0.00000000000E+00 -0.00000000000E+00 -0.27359349265E+03  0.27359349265E+03  0.00000000000E+00 0. -1.
          2    1    1    2  501    0  0.30774894520E+02 -0.11928642591E+02 -0.23944255921E+03  0.24170669376E+03  0.00000000000E+00 0. -1.
         -2    1    1    2    0  502 -0.30774894520E+02  0.11928642591E+02 -0.24770652540E+02  0.41267079786E+02  0.00000000000E+00 0.  1.
</event>
<event>
 4    1  0.1820060E+004  0.2025813E+02  0.7546771E-02  0.1530126E+00
         21   -1    0    0  501  502  0.00000000000E+00  0.00000000000E+00  0.67757847098E+01  0.67757847098E+01  0.00000000000E+00 0.  1.
         21   -1    0    0  502  503 -0.00000000000E+00 -0.00000000000E+00 -0.11180631703E+03  0.11180631703E+03  0.00000000000E+00 0. -1.
          2    1    1    2  501    0  0.55695785143E+01 -0.19477469645E+02 -0.12377267032E+02  0.23740024595E+02  0.00000000000E+00 0.  1.
         -2    1    1    2    0  503 -0.55695785143E+01  0.19477469645E+02 -0.92653265288E+02  0.94842077145E+02  0.00000000000E+00 0. -1.
</event>
<event>
 4    1  0.1820060E+004  0.2297382E+02  0.7546771E-02  0.1492827E+00
         21   -1    0    0  501  502  0.00000000000E+00  0.00000000000E+00  0.32736795955E+03  0.32736795955E+03  0.00000000000E+00 0. -1.
         21   -1    0    0  502  503 -0.00000000000E+00 -0.00000000000E+00 -0.16159368478E+01  0.16159368478E+01  0.00000000000E+00 0.  1.
          2    1    1    2  501    0  0.30029237718E+00 -0.22971853582E+02  0.17074205049E+03  0.17228071290E+03  0.00000000000E+00 0.  1.
         -2    1    1    2    0  503 -0.30029237718E+00  0.22971853582E+02  0.15500997221E+03  0.15670318350E+03  0.00000000000E+00 0. -1.
</event>
<event>
 4    1  0.1820060E+004  0.2128424E+02  0.7546771E-02  0.1515245E+00
         21   -1    0    0  501  502  0.00000000000E+00  0.00000000000E+00  0.57858225217E+02  0.57858225217E+02  0.00000000000E+00 0. -1.
         21   -1    0    0  502  503 -0.00000000000E+00 -0.00000000000E+00 -0.19832429985E+02  0.19832429985E+02  0.00000000000E+00 0.  1.
          2    1    1    2  501    0  0.15499754898E+02  0.14586862568E+02  0.49232506251E+02  0.53636355517E+02  0.00000000000E+00 0. -1.
         -2    1    1    2    0  503 -0.15499754898E+02 -0.14586862568E+02 -0.11206711019E+02  0.24054299685E+02  0.00000000000E+00 0.  1.
</event>
<event>
 4    1  0.1820060E+004  0.2160387E+02  0.7546771E-02  0.1510815E+00
         21   -1    0    0  503  502  0.00000000000E+00  0.00000000000E+00  0.82682328382E+02  0.82682328382E+02  0.00000000000E+00 0.  1.
         21   -1    0    0  501  503 -0.00000000000E+00 -0.00000000000E+00 -0.10703816856E+02  0.10703816856E+02  0.00000000000E+00 0. -1.
          2    1    1    2  501    0  0.21397817078E+02  0.29767008091E+01  0.38885128655E+01  0.21951033136E+02  0.00000000000E+00 0. -1.
         -2    1    1    2    0  502 -0.21397817078E+02 -0.29767008091E+01  0.68089998660E+02  0.71435112102E+02  0.00000000000E+00 0.  1.
</event>
<event>
 4    1  0.1820060E+004  0.2260820E+02  0.7546771E-02  0.1497477E+00
         21   -1    0    0  503  502  0.00000000000E+00  0.00000000000E+00  0.11906585078E+02  0.11906585078E+02  0.00000000000E+00 0.  1.
         21   -1    0    0  501  503 -0.00000000000E+00 -0.00000000000E+00 -0.12566281886E+03  0.12566281886E+03  0.00000000000E+00 0. -1.
          2    1    1    2  501    0 -0.17205825482E+02  0.14665954525E+02 -0.11269062896E+03  0.11493610620E+03  0.00000000000E+00 0. -1.
         -2    1    1    2    0  502  0.17205825482E+02 -0.14665954525E+02 -0.10656048167E+01  0.22633297734E+02  0.00000000000E+00 0.  1.
</event>
<event>
 4    1  0.1820060E+004  0.2017425E+02  0.7546771E-02  0.1531388E+00
         21   -1    0    0  501  502  0.00000000000E+00  0.00000000000E+00  0.12120922847E+03  0.12120922847E+03  0.00000000000E+00 0.  1.
         21   -1    0    0  502  503 -0.00000000000E+00 -0.00000000000E+00 -0.36526314750E+01  0.36526314750E+01  0.00000000000E+00 0. -1.
          2    1    1    2  501    0 -0.20165064055E+02 -0.60883469002E+00  0.76514419238E+02  0.79129367742E+02  0.00000000000E+00 0.  1.
         -2    1    1    2    0  503  0.20165064055E+02  0.60883469002E+00  0.41042177760E+02  0.45732492205E+02  0.00000000000E+00 0. -1.
</event>
<event>
 4    1  0.1820060E+004  0.3007640E+02  0.7546771E-02  0.1418934E+00
         21   -1    0    0  503  502  0.00000000000E+00  0.00000000000E+00  0.75589192471E+01  0.75589192471E+01  0.00000000000E+00 0. -1.
         21   -1    0    0  501  503 -0.00000000000E+00 -0.00000000000E+00 -0.11971192987E+03  0.11971192987E+03  0.00000000000E+00 0.  1.
          2    1    1    2  501    0  0.21614039089E+02  0.20914662017E+02 -0.54911980412E+02  0.62609227481E+02  0.00000000000E+00 0.  1.
         -2    1    1    2    0  502 -0.21614039089E+02 -0.20914662017E+02 -0.57241030213E+02  0.64661621638E+02  0.00000000000E+00 0. -1.
</event>
<event>
 4    1  0.1820060E+004  0.2016880E+02  0.7546771E-02  0.1531471E+00
         21   -1    0    0  501  502  0.00000000000E+00  0.00000000000E+00  0.10811837133E+02  0.10811837133E+02  0.00000000000E+00 0. -1.
         21   -1    0    0  502  503 -0.00000000000E+00 -0.00000000000E+00 -0.71448661562E+02  0.71448661562E+02  0.00000000000E+00 0.  1.
          2    1    1    2  501    0  0.25826537577E+01  0.20002756806E+02 -0.20186031450E+01  0.20269561883E+02  0.00000000000E+00 0. -1.
         -2    1    1    2    0  503 -0.25826537577E+01 -0.20002756806E+02 -0.58618221284E+02  0.61990936811E+02  0.00000000000E+00 0.  1.
</event>
<event>
 4    1  0.1820060E+004  0.2472751E+02  0.7546771E-02  0.1471875E+00
         21   -1    0    0  503  502  0.00000000000E+00  0.00000000000E+00  0.12356341285E+02  0.12356341285E+02  0.00000000000E+00 0. -1.
         21   -1    0    0  501  503 -0.00000000000E+00 -0.00000000000E+00 -0.12282319441E+03  0.12282319441E+03  0.00000000000E+00 0.  1.
          2    1    1    2  501    0 -0.23912392049E+02 -0.62966151013E+01 -0.10746183025E+03  0.11027009938E+03  0.00000000000E+00 0.  1.
         -2    1    1    2    0  502  0.23912392049E+02  0.62966151013E+01 -0.30050228711E+01  0.24909436318E+02  0.00000000000E+00 0. -1.
</event>
<event>
 4    1  0.1820060E+004  0.2353308E+02  0.7546771E-02  0.1485911E+00
         21   -1    0    0  503  502  0.00000000000E+00  0.00000000000E+00  0.46046342199E+03  0.46046342199E+03  0.00000000000E+00 0.  1.
         21   -1    0    0  501  503 -0.00000000000E+00 -0.00000000000E+00 -0.12791972922E+01  0.12791972922E+01  0.00000000000E+00 0. -1.
          2    1    1    2  501    0  0.86307411218E+01 -0.21893286577E+02  0.28604487433E+03  0.28701128169E+03  0.00000000000E+00 0.  1.
         -2    1    1    2    0  502 -0.86307411218E+01  0.21893286577E+02  0.17313935037E+03  0.17473133759E+03  0.00000000000E+00 0. -1.
</event>
<event>
 4    1  0.1820060E+004  0.3892142E+02  0.7546771E-02  0.1354925E+00
         21   -1    0    0  501  502  0.00000000000E+00  0.00000000000E+00  0.16234531822E+03  0.16234531822E+03  0.00000000000E+00 0.  1.
         21   -1    0    0  502  503 -0.00000000000E+00 -0.00000000000E+00 -0.11596324755E+02  0.11596324755E+02  0.00000000000E+00 0. -1.
          2    1    1    2  501    0 -0.76107628958E+01  0.38170059616E+02  0.11381235120E+03  0.12028353357E+03  0.00000000000E+00 0.  1.
         -2    1    1    2    0  503  0.76107628958E+01 -0.38170059616E+02  0.36936642267E+02  0.53658109405E+02  0.00000000000E+00 0. -1.
</event>
<event>
 4    1  0.1820060E+004  0.2569364E+02  0.7546771E-02  0.1461191E+00
         21   -1    0    0  501  502  0.00000000000E+00  0.00000000000E+00  0.27570500935E+01  0.27570500935E+01  0.00000000000E+00 0. -1.
         21   -1    0    0  502  503 -0.00000000000E+00 -0.00000000000E+00 -0.34017797681E+03  0.34017797681E+03  0.00000000000E+00 0.  1.
          2    1    1    2  501    0 -0.37766077764E+00  0.25690865894E+02 -0.75403614018E+02  0.79660957972E+02  0.00000000000E+00 0. -1.
         -2    1    1    2    0  503  0.37766077764E+00 -0.25690865894E+02 -0.26201731270E+03  0.26327406893E+03  0.00000000000E+00 0.  1.
</event>
<event>
 4    1  0.1820060E+004  0.2219810E+02  0.7546771E-02  0.1502821E+00
         21   -1    0    0  501  502  0.00000000000E+00  0.00000000000E+00  0.10521972575E+03  0.10521972575E+03  0.00000000000E+00 0.  1.
         21   -1    0    0  502  503 -0.00000000000E+00 -0.00000000000E+00 -0.17477783156E+02  0.17477783156E+02  0.00000000000E+00 0. -1.
          2    1    1    2  501    0  0.14224507207E+02  0.17041689623E+02  0.96361039325E+02  0.98884810210E+02  0.00000000000E+00 0.  1.
         -2    1    1    2    0  503 -0.14224507207E+02 -0.17041689623E+02 -0.86190967343E+01  0.23812698692E+02  0.00000000000E+00 0. -1.
</event>
<event>
 4    1  0.1820060E+004  0.2589496E+02  0.7546771E-02  0.1459036E+00
         21   -1    0    0  503  502  0.00000000000E+00  0.00000000000E+00  0.27947187155E+02  0.27947187155E+02  0.00000000000E+00 0.  1.
         21   -1    0    0  501  503 -0.00000000000E+00 -0.00000000000E+00 -0.10809652916E+03  0.10809652916E+03  0.00000000000E+00 0. -1.
          2    1    1    2  501    0 -0.72486056620E+01  0.24859735583E+02 -0.10007430892E+03  0.10337028607E+03  0.00000000000E+00 0. -1.
         -2    1    1    2    0  502  0.72486056620E+01 -0.24859735583E+02  0.19924966913E+02  0.32673430242E+02  0.00000000000E+00 0.  1.
</event>
<event>
 4    1  0.1820060E+004  0.2270207E+02  0.7546771E-02  0.1496274E+00
         21   -1    0    0  501  502  0.00000000000E+00  0.00000000000E+00  0.97788767740E+01  0.97788767740E+01  0.00000000000E+00 0.  1.
         21   -1    0    0  502  503 -0.00000000000E+00 -0.00000000000E+00 -0.71373991864E+02  0.71373991864E+02  0.00000000000E+00 0. -1.
          2    1    1    2  501    0  0.66574501626E+00 -0.22692306104E+02 -0.10044682598E+02  0.24824979783E+02  0.00000000000E+00 0.  1.
         -2    1    1    2    0  503 -0.66574501626E+00  0.22692306104E+02 -0.51550432492E+02  0.56327888855E+02  0.00000000000E+00 0. -1.
</event>
<event>
 4    1  0.1820060E+004  0.2609727E+02  0.7546771E-02  0.1456893E+00
         21   -1    0    0  501  502  0.00000000000E+00  0.00000000000E+00  0.57772968255E+02  0.57772968255E+02  0.00000000000E+00 0. -1.
         21   -1    0    0  502  503 -0.00000000000E+00 -0.00000000000E+00 -0.21425751164E+02  0.21425751164E+02  0.00000000000E+00 0.  1.
          2    1    1    2  501    0  0.86587802214E+01  0.24618954544E+02  0.44731434905E+02  0.51787726986E+02  0.00000000000E+00 0. -1.
         -2    1    1    2    0  503 -0.86587802214E+01 -0.24618954544E+02 -0.83842178139E+01  0.27410992432E+02  0.00000000000E+00 0.  1.
</event>
<event>
 4    1  0.1820060E+004  0.3963958E+02  0.7546771E-02  0.1350611E+00
         21   -1    0    0  503  502  0.00000000000E+00  0.00000000000E+00  0.23436238969E+02  0.23436238969E+02  0.00000000000E+00 0.  1.
         21   -1    0    0  501  503 -0.00000000000E+00 -0.00000000000E+00 -0.76370431428E+02  0.76370431428E+02  0.00000000000E+00 0. -1.
          2    1    1    2  501    0  0.33638322053E+02 -0.20970446366E+02 -0.43904740524E+02  0.59151691199E+02  0.00000000000E+00 0. -1.
         -2    1    1    2    0  502 -0.33638322053E+02  0.20970446366E+02 -0.90294519351E+01  0.40654979198E+02  0.00000000000E+00 0.  1.
</event>
<event>
 4    1  0.1820060E+004  0.2057338E+02  0.7546771E-02  0.1525444E+00
         21   -1    0    0  503  502  0.00000000000E+00  0.00000000000E+00  0.16704355779E+01  0.16704355779E+01  0.00000000000E+00 0.  1.
         21   -1    0    0  501  503 -0.00000000000E+00 -0.00000000000E+00 -0.82147815607E+03  0.82147815607E+03  0.00000000000E+00 0. -1.
          2    1    1    2  501    0  0.19416784717E+02 -0.68009182113E+01 -0.75216678156E+03  0.75244809209E+03  0.00000000000E+00 0. -1.
         -2    1    1    2    0  502 -0.19416784717E+02  0.68009182113E+01 -0.67640938939E+02  0.70700499559E+02  0.00000000000E+00 0.  1.
</event>
<event>
 4    1  0.1820060E+004  0.2537786E+02  0.7546771E-02  0.1464620E+00
         21   -1    0    0  503  502  0.00000000000E+00  0.00000000000E+00  0.69405795971E+01  0.69405795971E+01  0.00000000000E+00 0. -1.
         21   -1    0    0  501  503 -0.00000000000E+00 -0.00000000000E+00 -0.17160121949E+03  0.17160121949E+03  0.00000000000E+00 0.  1.
          2    1    1    2  501    0 -0.98090813465E-01 -0.25377674733E+02 -0.14282761578E+03  0.14506468842E+03  0.00000000000E+00 0.  1.
         -2    1    1    2    0  502  0.98090813465E-01  0.25377674733E+02 -0.21833024109E+02  0.33477110664E+02  0.00000000000E+00 0. -1.
</event>
<event>
 4    1  0.1820060E+004  0.4827804E+02  0.7546771E-02  0.1305816E+00
         21   -1    0    0  503  502  0.00000000000E+00  0.00000000000E+00  0.49136648187E+01  0.49136648187E+01  0.00000000000E+00 0.  1.
         21   -1    0    0  501  503 -0.00000000000E+00 -0.00000000000E+00 -0.49382571863E+03  0.49382571863E+03  0.00000000000E+00 0. -1.
          2    1    1    2  501    0  0.43136157088E+02  0.21680425201E+02 -0.29398589102E+03  0.29792360263E+03  0.00000000000E+00 0.  1.
         -2    1    1    2    0  502 -0.43136157088E+02 -0.21680425201E+02 -0.19492616279E+03  0.20081578082E+03  0.00000000000E+00 0. -1.
</event>
<event>
 4    1  0.1820060E+004  0.2643432E+02  0.7546771E-02  0.1453375E+00
         21   -1    0    0  501  502  0.00000000000E+00  0.00000000000E+00  0.41574861659E+02  0.41574861659E+02  0.00000000000E+00 0. -1.
         21   -1    0    0  502  503 -0.00000000000E+00 -0.00000000000E+00 -0.17806796882E+02  0.17806796882E+02  0.00000000000E+00 0.  1.
          2    1    1    2  501    0 -0.21238068016E+02  0.15739049615E+02  0.18917300978E+02  0.32505960871E+02  0.00000000000E+00 0.  1.
         -2    1    1    2    0  503  0.21238068016E+02 -0.15739049615E+02  0.48507637988E+01  0.26875697671E+02  0.00000000000E+00 0. -1.
</event>
<event>
 4    1  0.1820060E+004  0.4044539E+02  0.7546771E-02  0.1345895E+00
         21   -1    0    0  503  502  0.00000000000E+00  0.00000000000E+00  0.25310111718E+03  0.25310111718E+03  0.00000000000E+00 0.  1.
         21   -1    0    0  501  503 -0.00000000000E+00 -0.00000000000E+00 -0.65064741941E+01  0.65064741941E+01  0.00000000000E+00 0. -1.
          2    1    1    2  501    0 -0.38316458256E+02  0.12949081956E+02  0.13388974658E+03  0.13986527066E+03  0.00000000000E+00 0.  1.
         -2    1    1    2    0  502  0.38316458256E+02 -0.12949081956E+02  0.11270489640E+03  0.11974232071E+03  0.00000000000E+00 0. -1.
</event>
<event>
 4    1  0.1820060E+004  0.3042805E+02  0.7546771E-02  0.1415912E+00
         21   -1    0    0  501  502  0.00000000000E+00  0.00000000000E+00  0.58480268693E+02  0.58480268693E+02  0.00000000000E+00 0. -1.
         21   -1    0    0  502  503 -0.00000000000E+00 -0.00000000000E+00 -0.22852991528E+02  0.22852991528E+02  0.00000000000E+00 0.  1.
          2    1    1    2  501    0 -0.18590344853E+02  0.24088698078E+02  0.40354076346E+02  0.50540258949E+02  0.00000000000E+00 0. -1.
         -2    1    1    2    0  503  0.18590344853E+02 -0.24088698078E+02 -0.47267991819E+01  0.30793001272E+02  0.00000000000E+00 0.  1.
</event>
<event>
 4    1  0.1820060E+004  0.2583544E+02  0.7546771E-02  0.1459670E+00
         21   -1    0    0  503  502  0.00000000000E+00  0.00000000000E+00  0.10963875306E+03  0.10963875306E+03  0.00000000000E+00 0.  1.
         21   -1    0    0  501  503 -0.00000000000E+00 -0.00000000000E+00 -0.82993568689E+01  0.82993568689E+01  0.00000000000E+00 0. -1.
          2    1    1    2  501    0  0.25479774454E+02 -0.42721529321E+01  0.20229967962E+02  0.32813439330E+02  0.00000000000E+00 0. -1.
         -2    1    1    2    0  502 -0.25479774454E+02  0.42721529321E+01  0.81109428226E+02  0.85124670596E+02  0.00000000000E+00 0.  1.
</event>
<event>
 4    1  0.1820060E+004  0.2494318E+02  0.7546771E-02  0.1469440E+00
         21   -1    0    0  503  502  0.00000000000E+00  0.00000000000E+00  0.69069072736E+01  0.69069072736E+01  0.00000000000E+00 0. -1.
         21   -1    0    0  501  503 -0.00000000000E+00 -0.00000000000E+00 -0.14374748100E+03  0.14374748100E+03  0.00000000000E+00 0.  1.
          2    1    1    2  501    0 -0.92811456878E+01 -0.23152157481E+02 -0.11444746926E+03  0.11713404835E+03  0.00000000000E+00 0.  1.
         -2    1    1    2    0  502  0.92811456878E+01  0.23152157481E+02 -0.22393104462E+02  0.33520339926E+02  0.00000000000E+00 0. -1.
</event>
<event>
 4    1  0.1820060E+004  0.2945149E+02  0.7546771E-02  0.1424424E+00
         21   -1    0    0  501  502  0.00000000000E+00  0.00000000000E+00  0.50167716963E+01  0.50167716963E+01  0.00000000000E+00 0. -1.
         21   -1    0    0  502  503 -0.00000000000E+00 -0.00000000000E+00 -0.26224326988E+03  0.26224326988E+03  0.00000000000E+00 0.  1.
          2    1    1    2  501    0  0.29071163913E+02 -0.47178313895E+01 -0.50614561003E+02  0.58559578975E+02  0.00000000000E+00 0. -1.
         -2    1    1    2    0  503 -0.29071163913E+02  0.47178313895E+01 -0.20661193718E+03  0.20870046260E+03  0.00000000000E+00 0.  1.
</event>
<event>
 4    1  0.1820060E+004  0.2857268E+02  0.7546771E-02  0.1432419E+00
         21   -1    0    0  503  502  0.00000000000E+00  0.00000000000E+00  0.39657296333E+01  0.39657296333E+01  0.00000000000E+00 0.  1.
         21   -1    0    0  501  503 -0.00000000000E+00 -0.00000000000E+00 -0.90282968842E+03  0.90282968842E+03  0.00000000000E+00 0. -1.
          2    1    1    2  501    0  0.26535961868E+02  0.10594378913E+02 -0.84779803618E+03  0.84827938103E+03  0.00000000000E+00 0. -1.
         -2    1    1    2    0  502 -0.26535961868E+02 -0.10594378913E+02 -0.51065922610E+02  0.58516037022E+02  0.00000000000E+00 0.  1.
</event>
<event>
 4    1  0.1820060E+004  0.2769395E+02  0.7546771E-02  0.1440759E+00
         21   -1    0    0  503  502  0.00000000000E+00  0.00000000000E+00  0.38158628057E+01  0.38158628057E+01  0.00000000000E+00 0. -1.
         21   -1    0    0  501  503 -0.00000000000E+00 -0.00000000000E+00 -0.21571207179E+03  0.21571207179E+03  0.00000000000E+00 0.  1.
          2    1    1    2  501    0 -0.25811394240E+02 -0.10036271012E+02 -0.13462218331E+03  0.13744121306E+03  0.00000000000E+00 0.  1.
         -2    1    1    2    0  502  0.25811394240E+02  0.10036271012E+02 -0.77274025674E+02  0.82086721535E+02  0.00000000000E+00 0. -1.
</event>
<event>
 4    1  0.1820060E+004  0.2043375E+02  0.7546771E-02  0.1527505E+00
         21   -1    0    0  503  502  0.00000000000E+00  0.00000000000E+00  0.46854422100E+01  0.46854422100E+01  0.00000000000E+00 0.  1.
         21   -1    0    0  501  503 -0.00000000000E+00 -0.00000000000E+00 -0.15116627450E+03  0.15116627450E+03  0.00000000000E+00 0. -1.
          2    1    1    2  501    0  0.14409352706E+02 -0.14488228141E+02 -0.12316715668E+03  0.12485065753E+03  0.00000000000E+00 0. -1.
         -2    1    1    2    0  502 -0.14409352706E+02  0.14488228141E+02 -0.23313675611E+02  0.31001059185E+02  0.00000000000E+00 0.  1.
</event>
<event>
 4    1  0.1820060E+004  0.2651152E+02  0.7546771E-02  0.1452578E+00
         21   -1    0    0  501  502  0.00000000000E+00  0.00000000000E+00  0.85405696369E+02  0.85405696369E+02  0.00000000000E+00 0.  1.
         21   -1    0    0  502  503 -0.00000000000E+00 -0.00000000000E+00 -0.84306415688E+01  0.84306415688E+01  0.00000000000E+00 0. -1.
          2    1    1    2  501    0  0.26498229976E+02  0.83946793927E+00  0.45731478497E+02  0.52860467496E+02  0.00000000000E+00 0.  1.
         -2    1    1    2    0  503 -0.26498229976E+02 -0.83946793927E+00  0.31243576302E+02  0.40975870442E+02  0.00000000000E+00 0. -1.
</event>
<event>
 4    1  0.1820060E+004  0.2537560E+02  0.7546771E-02  0.1464645E+00
         21   -1    0    0  501  502  0.00000000000E+00  0.00000000000E+00  0.23650528315E+02  0.23650528315E+02  0.00000000000E+00 0. -1.
         21   -1    0    0  502  503 -0.00000000000E+00 -0.00000000000E+00 -0.64197648272E+02  0.64197648272E+02  0.00000000000E+00 0.  1.
          2    1    1    2  501    0 -0.24580029196E+02  0.63042242929E+01  0.13059460834E+02  0.28538931243E+02  0.00000000000E+00 0. -1.
         -2    1    1    2    0  503  0.24580029196E+02 -0.63042242929E+01 -0.53606580791E+02  0.59309245344E+02  0.00000000000E+00 0.  1.
</event>
<event>
 4    1  0.1820060E+004  0.2341463E+02  0.7546771E-02  0.1487356E+00
         21   -1    0    0  503  502  0.00000000000E+00  0.00000000000E+00  0.24048078972E+02  0.24048078972E+02  0.00000000000E+00 0.  1.
         21   -1    0    0  501  503 -0.00000000000E+00 -0.00000000000E+00 -0.48911088508E+02  0.48911088508E+02  0.00000000000E+00 0. -1.
          2    1    1    2  501    0  0.82394648921E+01 -0.21917032118E+02 -0.39086362981E+02  0.45563020638E+02  0.00000000000E+00 0. -1.
         -2    1    1    2    0  502 -0.82394648921E+01  0.21917032118E+02  0.14223353445E+02  0.27396146842E+02  0.00000000000E+00 0.  1.
</event>
<event>
 4    1  0.1820060E+004  0.2081329E+02  0.7546771E-02  0.1521947E+00
         21   -1    0    0  501  502  0.00000000000E+00  0.00000000000E+00  0.29960012092E+03  0.29960012092E+03  0.00000000000E+00 0.  1.
         21   -1    0    0  502  503 -0.00000000000E+00 -0.00000000000E+00 -0.14465276295E+01  0.14465276295E+01  0.00000000000E+00 0. -1.
          2    1    1    2  501    0 -0.18920566917E+02  0.86721026311E+01  0.15220048286E+03  0.15361699190E+03  0.00000000000E+00 0. -1.
         -2    1    1    2    0  503  0.18920566917E+02 -0.86721026311E+01  0.14595311043E+03  0.14742965665E+03  0.00000000000E+00 0.  1.
</event>
<event>
 4    1  0.1820060E+004  0.3633231E+02  0.7546771E-02  0.1371431E+00
         21   -1    0    0  503  502  0.00000000000E+00  0.00000000000E+00  0.17226116313E+03  0.17226116313E+03  0.00000000000E+00 0.  1.
         21   -1    0    0  501  503 -0.00000000000E+00 -0.00000000000E+00 -0.10332985779E+02  0.10332985779E+02  0.00000000000E+00 0. -1.
          2    1    1    2  501    0 -0.36260442653E+02  0.22840478908E+01  0.34555457627E+02  0.50140963572E+02  0.00000000000E+00 0. -1.
         -2    1    1    2    0  502  0.36260442653E+02 -0.22840478908E+01  0.12737271973E+03  0.13245318534E+03  0.00000000000E+00 0.  1.
</event>
<event>
 4    1  0.1820060E+004  0.3393891E+02  0.7546771E-02  0.1388180E+00
         21   -1    0    0  503  502  0.00000000000E+00  0.00000000000E+00  0.60211280634E+03  0.60211280634E+03  0.00000000000E+00 0.  1.
         21   -1    0    0  501  503 -0.00000000000E+00 -0.00000000000E+00 -0.24043884675E+02  0.24043884675E+02  0.00000000000E+00 0. -1.
          2    1    1    2  501    0 -0.15682240085E+01 -0.33902661848E+02 -0.11330984449E+02  0.35780455776E+02  0.00000000000E+00 0. -1.
         -2    1    1    2    0  502  0.15682240085E+01  0.33902661848E+02  0.58939990611E+03  0.59037623523E+03  0.00000000000E+00 0.  1.
</event>
<event>
 4    1  0.1820060E+004  0.2580795E+02  0.7546771E-02  0.1459964E+00
         21   -1    0    0  503  502  0.00000000000E+00  0.00000000000E+00  0.28438146016E+02  0.28438146016E+02  0.00000000000E+00 0.  1.
         21   -1    0    0  501  503 -0.00000000000E+00 -0.00000000000E+00 -0.24266697403E+02  0.24266697403E+02  0.00000000000E+00 0. -1.
          2    1    1    2  501    0 -0.34368339212E+01  0.25578085261E+02 -0.28337487101E+01  0.25963058463E+02  0.00000000000E+00 0. -1.
         -2    1    1    2    0  502  0.34368339212E+01 -0.25578085261E+02  0.70051973231E+01  0.26741784955E+02  0.00000000000E+00 0.  1.
</event>
<event>
 4    1  0.1820060E+004  0.3037962E+02  0.7546771E-02  0.1416326E+00
         21   -1    0    0  503  502  0.00000000000E+00  0.00000000000E+00  0.81241004881E+02  0.81241004881E+02  0.00000000000E+00 0.  1.
         21   -1    0    0  501  503 -0.00000000000E+00 -0.00000000000E+00 -0.17004023026E+02  0.17004023026E+02  0.00000000000E+00 0. -1.
          2    1    1    2  501    0  0.87516726676E+01  0.29091745445E+02  0.38183923369E+01  0.30618647056E+02  0.00000000000E+00 0. -1.
         -2    1    1    2    0  502 -0.87516726676E+01 -0.29091745445E+02  0.60418589519E+02  0.67626380851E+02  0.00000000000E+00 0.  1.
</event>
<event>
 4    1  0.1820060E+004  0.2011400E+02  0.7546771E-02  0.1532300E+00
         21   -1    0    0  503  502  0.00000000000E+00  0.00000000000E+00  0.14174482409E+02  0.14174482409E+02  0.00000000000E+00 0. -1.
         21   -1    0    0  501  503 -0.00000000000E+00 -0.00000000000E+00 -0.10331078501E+03  0.10331078501E+03  0.00000000000E+00 0.  1.
          2    1    1    2  501    0 -0.18990097018E+02 -0.66294154764E+01 -0.94541649293E+02  0.96657624559E+02  0.00000000000E+00 0.  1.
         -2    1    1    2    0  502  0.18990097018E+02  0.66294154764E+01  0.54053466911E+01  0.20827642861E+02  0.00000000000E+00 0. -1.
</event>
<event>
 4    1  0.1820060E+004  0.2270417E+02  0.7546771E-02  0.1496247E+00
         21   -1    0    0  501  502  0.00000000000E+00  0.00000000000E+00  0.49210660730E+02  0.49210660730E+02  0.00000000000E+00 0.  1.
         21   -1    0    0  502  503 -0.00000000000E+00 -0.00000000000E+00 -0.10553907085E+02  0.10553907085E+02  0.00000000000E+00 0. -1.
          2    1    1    2  501    0 -0.22339836181E+02 -0.40510545626E+01  0.21912994959E+02  0.31554059513E+02  0.00000000000E+00 0.  1.
         -2    1    1    2    0  503  0.22339836181E+02  0.40510545626E+01  0.16743758686E+02  0.28210508302E+02  0.00000000000E+00 0. -1.
</event>
<event>
 4    1  0.1820060E+004  0.2210815E+02  0.7546771E-02  0.1504011E+00
         21   -1    0    0  503  502  0.00000000000E+00  0.00000000000E+00  0.23151292163E+02  0.23151292163E+02  0.00000000000E+00 0.  1.
         21   -1    0    0  501  503 -0.00000000000E+00 -0.00000000000E+00 -0.54463872691E+02  0.54463872691E+02  0.00000000000E+00 0. -1.
          2    1    1    2  501    0  0.14451372672E+02  0.16731054732E+02 -0.46024721745E+02  0.51059233996E+02  0.00000000000E+00 0. -1.
         -2    1    1    2    0  502 -0.14451372672E+02 -0.16731054732E+02  0.14712141217E+02  0.26555930858E+02  0.00000000000E+00 0.  1.
</event>
<event>
 4    1  0.1820060E+004  0.2273758E+02  0.7546771E-02  0.1495820E+00
         21   -1    0    0  503  502  0.00000000000E+00  0.00000000000E+00  0.20487933459E+03  0.20487933459E+03  0.00000000000E+00 0.  1.
         21   -1    0    0  501  503 -0.00000000000E+00 -0.00000000000E+00 -0.32071464562E+01  0.32071464562E+01  0.00000000000E+00 0. -1.
          2    1    1    2  501    0 -0.22736951966E+02  0.16889448706E+00  0.52797059389E+02  0.57485015354E+02  0.00000000000E+00 0. -1.
         -2    1    1    2    0  502  0.22736951966E+02 -0.16889448706E+00  0.14887512875E+03  0.15060146569E+03  0.00000000000E+00 0.  1.
</event>
<event>
 4    1  0.1820060E+004  0.2219249E+02  0.7546771E-02  0.1502895E+00
         21   -1    0    0  503  502  0.00000000000E+00  0.00000000000E+00  0.59323399871E+02  0.59323399871E+02  0.00000000000E+00 0. -1.
         21   -1    0    0  501  503 -0.00000000000E+00 -0.00000000000E+00 -0.13209333383E+02  0.13209333383E+02  0.00000000000E+00 0.  1.
          2    1    1    2  501    0 -0.20683237695E+02  0.80442835598E+01  0.95239410524E+00  0.22212921332E+02  0.00000000000E+00 0.  1.
         -2    1    1    2    0  502  0.20683237695E+02 -0.80442835598E+01  0.45161672383E+02  0.50319811923E+02  0.00000000000E+00 0. -1.
</event>
<event>
 4    1  0.1820060E+004  0.2099959E+02  0.7546771E-02  0.1519271E+00
         21   -1    0    0  501  502  0.00000000000E+00  0.00000000000E+00  0.10769271293E+01  0.10769271293E+01  0.00000000000E+00 0.  1.
         21   -1    0    0  502  503 -0.00000000000E+00 -0.00000000000E+00 -0.42825497819E+03  0.42825497819E+03  0.00000000000E+00 0. -1.
          2    1    1    2  501    0 -0.20948852769E+02  0.14588704616E+01 -0.25853321975E+03  0.25938467273E+03  0.00000000000E+00 0. -1.
         -2    1    1    2    0  503  0.20948852769E+02 -0.14588704616E+01 -0.16864483131E+03  0.16994723259E+03  0.00000000000E+00 0.  1.
</event>
<event>
 4    1  0.1820060E+004  0.2001578E+02  0.7546771E-02  0.1533795E+00
         21   -1    0    0  501  502  0.00000000000E+00  0.00000000000E+00  0.14731451124E+03  0.14731451124E+03  0.00000000000E+00 0.  1.
         21   -1    0    0  502  503 -0.00000000000E+00 -0.00000000000E+00 -0.51473699805E+01  0.51473699805E+01  0.00000000000E+00 0. -1.
          2    1    1    2  501    0  0.16739704469E+02  0.10973316223E+02  0.12343704320E+03  0.12504933030E+03  0.00000000000E+00 0.  1.
         -2    1    1    2    0  503 -0.16739704469E+02 -0.10973316223E+02  0.18730098061E+02  0.27412550921E+02  0.00000000000E+00 0. -1.
</event>
<event>
 4    1  0.1820060E+004  0.2471335E+02  0.7546771E-02  0.1472036E+00
         21   -1    0    0  501  502  0.00000000000E+00  0.00000000000E+00  0.41487365101E+03  0.41487365101E+03  0.00000000000E+00 0.  1.
         21   -1    0    0  502  503 -0.00000000000E+00 -0.00000000000E+00 -0.22559098030E+01  0.22559098030E+01  0.00000000000E+00 0. -1.
          2    1    1    2  501    0 -0.10965979486E+02 -0.22147163411E+02  0.83373722507E+02  0.86959341982E+02  0.00000000000E+00 0. -1.
         -2    1    1    2    0  503  0.10965979486E+02  0.22147163411E+02  0.32924401870E+03  0.33017021883E+03  0.00000000000E+00 0.  1.
</event>
<event>
 4    1  0.1820060E+004  0.2845384E+02  0.7546771E-02  0.1433526E+00
         21   -1    0    0  503  502  0.00000000000E+00  0.00000000000E+00  0.36466685418E+02  0.36466685418E+02  0.00000000000E+00 0. -1.
         21   -1    0    0  501  503 -0.00000000000E+00 -0.00000000000E+00 -0.44098592838E+02  0.44098592838E+02  0.00000000000E+00 0.  1.
          2    1    1    2  501    0  0.16763962921E+02 -0.22991103487E+02 -0.32201489769E+02  0.42971586376E+02  0.00000000000E+00 0.  1.
         -2    1    1    2    0  502 -0.16763962921E+02  0.22991103487E+02  0.24569582348E+02  0.37593691879E+02  0.00000000000E+00 0. -1.
</event>
<event>
 4    1  0.1820060E+004  0.2064493E+02  0.7546771E-02  0.1524395E+00
         21   -1    0    0  503  502  0.00000000000E+00  0.00000000000E+00  0.58744611865E+01  0.58744611865E+01  0.00000000000E+00 0.  1.
         21   -1    0    0  501  503 -0.00000000000E+00 -0.00000000000E+00 -0.73456387452E+02  0.73456387452E+02  0.00000000000E+00 0. -1.
          2    1    1    2  501    0 -0.45150474862E+00  0.20639992043E+02 -0.38188377700E+02  0.43411580476E+02  0.00000000000E+00 0.  1.
         -2    1    1    2    0  502  0.45150474862E+00 -0.20639992043E+02 -0.29393548566E+02  0.35919268163E+02  0.00000000000E+00 0. -1.
</event>
<event>
 4    1  0.1820060E+004  0.2511966E+02  0.7546771E-02  0.1467469E+00
         21   -1    0    0  503  502  0.00000000000E+00  0.00000000000E+00  0.45392377319E+02  0.45392377319E+02  0.00000000000E+00 0.  1.
         21   -1    0    0  501  503 -0.00000000000E+00 -0.00000000000E+00 -0.32197863635E+02  0.32197863635E+02  0.00000000000E+00 0. -1.
          2    1    1    2  501    0 -0.98876450597E+01 -0.23091812933E+02 -0.22647798535E+02  0.33821888295E+02  0.00000000000E+00 0. -1.
         -2    1    1    2    0  502  0.98876450597E+01  0.23091812933E+02  0.35842312219E+02  0.43768352660E+02  0.00000000000E+00 0.  1.
</event>
<event>
 4    1  0.1820060E+004  0.2345912E+02  0.7546771E-02  0.1486812E+00
         21   -1    0    0  501  502  0.00000000000E+00  0.00000000000E+00  0.29418831845E+02  0.29418831845E+02  0.00000000000E+00 0. -1.
         21   -1    0    0  502  503 -0.00000000000E+00 -0.00000000000E+00 -0.44901656343E+02  0.44901656343E+02  0.00000000000E+00 0.  1.
          2    1    1    2  501    0  0.16799786104E+02 -0.16373686594E+02  0.20641430346E+02  0.31247385051E+02  0.00000000000E+00 0. -1.
         -2    1    1    2    0  503 -0.16799786104E+02  0.16373686594E+02 -0.36124254844E+02  0.43073103137E+02  0.00000000000E+00 0.  1.
</event>
<event>
 4    1  0.1820060E+004  0.3326669E+02  0.7546771E-02  0.1393176E+00
         21   -1    0    0  501  502  0.00000000000E+00  0.00000000000E+00  0.84953824139E+03  0.84953824139E+03  0.00000000000E+00 0. -1.
         21   -1    0    0  502  503 -0.00000000000E+00 -0.00000000000E+00 -0.33047967887E+01  0.33047967887E+01  0.00000000000E+00 0.  1.
          2    1    1    2  501    0 -0.28235381117E+02  0.17590793388E+02  0.75502028277E+03  0.75575280360E+03  0.00000000000E+00 0. -1.
         -2    1    1    2    0  503  0.28235381117E+02 -0.17590793388E+02  0.91213161835E+02  0.97090234580E+02  0.00000000000E+00 0.  1.
</event>
<event>
 4    1  0.1820060E+004  0.2136975E+02  0.7546771E-02  0.1514051E+00
         21   -1    0    0  501  502  0.00000000000E+00  0.00000000000E+00  0.38322343760E+02  0.38322343760E+02  0.00000000000E+00 0. -1.
         21   -1    0    0  502  503 -0.00000000000E+00 -0.00000000000E+00 -0.12614433705E+02  0.12614433705E+02  0.00000000000E+00 0.  1.
          2    1    1    2  501    0  0.20759729659E+02  0.50694951050E+01  0.18844845036E+02  0.28492004853E+02  0.00000000000E+00 0.  1.
         -2    1    1    2    0  503 -0.20759729659E+02 -0.50694951050E+01  0.68630650198E+01  0.22444772612E+02  0.00000000000E+00 0. -1.
</event>
<event>
 4    1  0.1820060E+004  0.1000015E+03  0.7546771E-02  0.1163805E+00
         21   -1    0    0  501  502  0.00000000000E+00  0.00000000000E+00  0.17185004568E+02  0.17185004568E+02  0.00000000000E+00 0. -1.
         21   -1    0    0  502  503 -0.00000000000E+00 -0.00000000000E+00 -0.60530485982E+03  0.60530485982E+03  0.00000000000E+00 0.  1.
          2    1    1    2  501    0 -0.48965889457E+02 -0.87193149892E+02 -0.23288416003E+03  0.25344690906E+03  0.00000000000E+00 0. -1.
         -2    1    1    2    0  503  0.48965889457E+02  0.87193149892E+02 -0.35523569522E+03  0.36904295532E+03  0.00000000000E+00 0.  1.
</event>
<event>
 4    1  0.1820060E+004  0.2066408E+02  0.7546771E-02  0.1524115E+00
         21   -1    0    0  501  502  0.00000000000E+00  0.00000000000E+00  0.38620418210E+01  0.38620418210E+01  0.00000000000E+00 0.  1.
         21   -1    0    0  502  503 -0.00000000000E+00 -0.00000000000E+00 -0.20975210338E+03  0.20975210338E+03  0.00000000000E+00 0. -1.
          2    1    1    2  501    0 -0.17316070029E+02  0.11276424537E+02 -0.29497713085E+02  0.36015539824E+02  0.00000000000E+00 0.  1.
         -2    1    1    2    0  503  0.17316070029E+02 -0.11276424537E+02 -0.17639234848E+03  0.17759860538E+03  0.00000000000E+00 0. -1.
</event>
<event>
 4    1  0.1820060E+004  0.2792196E+02  0.7546771E-02  0.1438560E+00
         21   -1    0    0  501  502  0.00000000000E+00  0.00000000000E+00  0.62635963689E+02  0.62635963689E+02  0.00000000000E+00 0.  1.
         21   -1    0    0  502  503 -0.00000000000E+00 -0.00000000000E+00 -0.62675023270E+02  0.62675023270E+02  0.00000000000E+00 0. -1.
          2    1    1    2  501    0 -0.13104204100E+02 -0.24655949063E+02  0.56070351633E+02  0.62638010198E+02  0.00000000000E+00 0.  1.
         -2    1    1    2    0  503  0.13104204100E+02  0.24655949063E+02 -0.56109411215E+02  0.62672976761E+02  0.00000000000E+00 0. -1.
</event>
<event>
 4    1  0.1820060E+004  0.2676045E+02  0.7546771E-02  0.1450029E+00
         21   -1    0    0  503  502  0.00000000000E+00  0.00000000000E+00  0.58697680004E+01  0.58697680004E+01  0.00000000000E+00 0. -1.
         21   -1    0    0  501  503 -0.00000000000E+00 -0.00000000000E+00 -0.12526862664E+03  0.12526862664E+03  0.00000000000E+00 0.  1.
          2    1    1    2  501    0 -0.26741519264E+02 -0.10064490402E+01 -0.49110621440E+02  0.55928301694E+02  0.00000000000E+00 0.  1.
         -2    1    1    2    0  502  0.26741519264E+02  0.10064490402E+01 -0.70288237197E+02  0.75210092943E+02  0.00000000000E+00 0. -1.
</event>
<event>
 4    1  0.1820060E+004  0.2063790E+02  0.7546771E-02  0.1524498E+00
         21   -1    0    0  503  502  0.00000000000E+00  0.00000000000E+00  0.33495295433E+03  0.33495295433E+03  0.00000000000E+00 0. -1.
         21   -1    0    0  501  503 -0.00000000000E+00 -0.00000000000E+00 -0.13503882943E+01  0.13503882943E+01  0.00000000000E+00 0.  1.
          2    1    1    2  501    0  0.13579852840E+02 -0.15540606596E+02  0.12618220861E+03  0.12785879956E+03  0.00000000000E+00 0.  1.
         -2    1    1    2    0  502 -0.13579852840E+02  0.15540606596E+02  0.20742035743E+03  0.20844454306E+03  0.00000000000E+00 0. -1.
</event>
<event>
 4    1  0.1820060E+004  0.4373251E+02  0.7546771E-02  0.1327900E+00
         21   -1    0    0  503  502  0.00000000000E+00  0.00000000000E+00  0.26357832649E+02  0.26357832649E+02  0.00000000000E+00 0.  1.
         21   -1    0    0  501  503 -0.00000000000E+00 -0.00000000000E+00 -0.29819954340E+03  0.29819954340E+03  0.00000000000E+00 0. -1.
          2    1    1    2  501    0 -0.27117618783E+02 -0.34309870335E+02 -0.27708204533E+03  0.28051201810E+03  0.00000000000E+00 0. -1.
         -2    1    1    2    0  502  0.27117618783E+02  0.34309870335E+02  0.52403345784E+01  0.44045357955E+02  0.00000000000E+00 0.  1.
</event>
<event>
 4    1  0.1820060E+004  0.2062111E+02  0.7546771E-02  0.1524744E+00
         21   -1    0    0  503  502  0.00000000000E+00  0.00000000000E+00  0.12074849237E+03  0.12074849237E+03  0.00000000000E+00 0. -1.
         21   -1    0    0  501  503 -0.00000000000E+00 -0.00000000000E+00 -0.35520791786E+01  0.35520791786E+01  0.00000000000E+00 0.  1.
          2    1    1    2  501    0  0.16098541171E+02 -0.12886707055E+02  0.64353459303E+02  0.67576608163E+02  0.00000000000E+00 0. -1.
         -2    1    1    2    0  502 -0.16098541171E+02  0.12886707055E+02  0.52842953889E+02  0.56723963386E+02  0.00000000000E+00 0.  1.
</event>
<event>
 4    1  0.1820060E+004  0.2141319E+02  0.7546771E-02  0.1513447E+00
         21   -1    0    0  503  502  0.00000000000E+00  0.00000000000E+00  0.71102090177E+02  0.71102090177E+02  0.00000000000E+00 0. -1.
         21   -1    0    0  501  503 -0.00000000000E+00 -0.00000000000E+00 -0.12833629472E+02  0.12833629472E+02  0.00000000000E+00 0.  1.
          2    1    1    2  501    0  0.19462725468E+02  0.89290009475E+01 -0.46742305037E+00  0.21418291829E+02  0.00000000000E+00 0.  1.
         -2    1    1    2    0  502 -0.19462725468E+02 -0.89290009475E+01  0.58735883756E+02  0.62517427819E+02  0.00000000000E+00 0. -1.
</event>
<event>
 4    1  0.1820060E+004  0.2965017E+02  0.7546771E-02  0.1422661E+00
         21   -1    0    0  503  502  0.00000000000E+00  0.00000000000E+00  0.24387284750E+01  0.24387284750E+01  0.00000000000E+00 0. -1.
         21   -1    0    0  501  503 -0.00000000000E+00 -0.00000000000E+00 -0.93904843830E+03  0.93904843830E+03  0.00000000000E+00 0.  1.
          2    1    1    2  501    0  0.29350548519E+02 -0.42044964756E+01 -0.83780512229E+03  0.83832962218E+03  0.00000000000E+00 0.  1.
         -2    1    1    2    0  502 -0.29350548519E+02  0.42044964756E+01 -0.98804587539E+02  0.10315754460E+03  0.00000000000E+00 0. -1.
</event>
<event>
 4    1  0.1820060E+004  0.2000775E+02  0.7546771E-02  0.1533917E+00
         21   -1    0    0  503  502  0.00000000000E+00  0.00000000000E+00  0.86844281225E+02  0.86844281225E+02  0.00000000000E+00 0.  1.
         21   -1    0    0  501  503 -0.00000000000E+00 -0.00000000000E+00 -0.75867324729E+01  0.75867324729E+01  0.00000000000E+00 0. -1.
          2    1    1    2  501    0 -0.15388308916E+02 -0.12787106733E+02  0.10051207905E+02  0.22390554487E+02  0.00000000000E+00 0. -1.
         -2    1    1    2    0  502  0.15388308916E+02  0.12787106733E+02  0.69206340847E+02  0.72040459211E+02  0.00000000000E+00 0.  1.
</event>
<event>
 4    1  0.1820060E+004  0.3739547E+02  0.7546771E-02  0.1364463E+00
         21   -1    0    0  501  502  0.00000000000E+00  0.00000000000E+00  0.35301799983E+02  0.35301799983E+02  0.00000000000E+00 0.  1.
         21   -1    0    0  502  503 -0.00000000000E+00 -0.00000000000E+00 -0.69201387806E+02  0.69201387806E+02  0.00000000000E+00 0. -1.
          2    1    1    2  501    0 -0.12712858874E+02  0.35168226711E+02  0.17216711222E+02  0.41168387096E+02  0.00000000000E+00 0.  1.
         -2    1    1    2    0  503  0.12712858874E+02 -0.35168226711E+02 -0.51116299045E+02  0.63334800693E+02  0.00000000000E+00 0. -1.
</event>
<event>
 4    1  0.1820060E+004  0.2019481E+02  0.7546771E-02  0.1531078E+00
         21   -1    0    0  503  502  0.00000000000E+00  0.00000000000E+00  0.97995653031E+01  0.97995653031E+01  0.00000000000E+00 0. -1.
         21   -1    0    0  501  503 -0.00000000000E+00 -0.00000000000E+00 -0.48601311366E+02  0.48601311366E+02  0.00000000000E+00 0.  1.
          2    1    1    2  501    0  0.15468792239E+02  0.12982554144E+02 -0.30470211436E+02  0.36554945361E+02  0.00000000000E+00 0.  1.
         -2    1    1    2    0  502 -0.15468792239E+02 -0.12982554144E+02 -0.83315346272E+01  0.21845931307E+02  0.00000000000E+00 0. -1.
</event>
<event>
 4    1  0.1820060E+004  0.2109180E+02  0.7546771E-02  0.1517958E+00
         21   -1    0    0  503  502  0.00000000000E+00  0.00000000000E+00  0.80018129181E+00  0.80018129181E+00  0.00000000000E+00 0. -1.
         21   -1    0    0  501  503 -0.00000000000E+00 -0.00000000000E+00 -0.73187839329E+03  0.73187839329E+03  0.00000000000E+00 0.  1.
          2    1    1    2  501    0  0.18582587149E+02 -0.99775496744E+01 -0.54514764608E+03  0.54555551511E+03  0.00000000000E+00 0.  1.
         -2    1    1    2    0  502 -0.18582587149E+02  0.99775496744E+01 -0.18593056592E+03  0.18712305947E+03  0.00000000000E+00 0. -1.
</event>
<event>
 4    1  0.1820060E+004  0.2039590E+02  0.7546771E-02  0.1528067E+00
         21   -1    0    0  503  502  0.00000000000E+00  0.00000000000E+00  0.31540993670E+01  0.31540993670E+01  0.00000000000E+00 0. -1.
         21   -1    0    0  501  503 -0.00000000000E+00 -0.00000000000E+00 -0.63763254963E+03  0.63763254963E+03  0.00000000000E+00 0.  1.
          2    1    1    2  501    0 -0.20349619272E+02  0.13731961345E+01 -0.60257956201E+03  0.60292463975E+03  0.00000000000E+00 0.  1.
         -2    1    1    2    0  502  0.20349619272E+02 -0.13731961345E+01 -0.31898888261E+02  0.37862009250E+02  0.00000000000E+00 0. -1.
</event>
<event>
 4    1  0.1820060E+004  0.1182894E+03  0.7546771E-02  0.1135419E+00
         21   -1    0    0  501  502  0.00000000000E+00  0.00000000000E+00  0.10939628095E+02  0.10939628095E+02  0.00000000000E+00 0.  1.
         21   -1    0    0  502  503 -0.00000000000E+00 -0.00000000000E+00 -0.16881022026E+04  0.16881022026E+04  0.00000000000E+00 0. -1.
          2    1    1    2  501    0 -0.11120907833E+03  0.40310371368E+02 -0.42040301571E+03  0.43672769635E+03  0.00000000000E+00 0.  1.
         -2    1    1    2    0  503  0.11120907833E+03 -0.40310371368E+02 -0.12567595588E+04  0.12623141343E+04  0.00000000000E+00 0. -1.
</event>
<event>
 4    1  0.1820060E+004  0.2166846E+02  0.7546771E-02  0.1509931E+00
         21   -1    0    0  503  502  0.00000000000E+00  0.00000000000E+00  0.45288414107E+01  0.45288414107E+01  0.00000000000E+00 0.  1.
         21   -1    0    0  501  503 -0.00000000000E+00 -0.00000000000E+00 -0.12382304706E+03  0.12382304706E+03  0.00000000000E+00 0. -1.
          2    1    1    2  501    0  0.20263696107E+02  0.76749541468E+01 -0.33758972212E+02  0.40114716824E+02  0.00000000000E+00 0. -1.
         -2    1    1    2    0  502 -0.20263696107E+02 -0.76749541468E+01 -0.85535233439E+02  0.88237171648E+02  0.00000000000E+00 0.  1.
</event>
<event>
 4    1  0.1820060E+004  0.2076070E+02  0.7546771E-02  0.1522709E+00
         21   -1    0    0  501  502  0.00000000000E+00  0.00000000000E+00  0.12195391586E+02  0.12195391586E+02  0.00000000000E+00 0.  1.
         21   -1    0    0  502  503 -0.00000000000E+00 -0.00000000000E+00 -0.37996511961E+02  0.37996511961E+02  0.00000000000E+00 0. -1.
          2    1    1    2  501    0  0.39319556230E+00 -0.20756977856E+02 -0.62670574998E+01  0.21686003370E+02  0.00000000000E+00 0. -1.
         -2    1    1    2    0  503 -0.39319556230E+00  0.20756977856E+02 -0.19534062875E+02  0.28505900176E+02  0.00000000000E+00 0.  1.
</event>
<event>
 4    1  0.1820060E+004  0.2410843E+02  0.7546771E-02  0.1479030E+00
         21   -1    0    0  503  502  0.00000000000E+00  0.00000000000E+00  0.82554455216E+01  0.82554455216E+01  0.00000000000E+00 0. -1.
         21   -1    0    0  501  503 -0.00000000000E+00 -0.00000000000E+00 -0.83637535295E+02  0.83637535295E+02  0.00000000000E+00 0.  1.
          2    1    1    2  501    0  0.22941737056E+02  0.74089811923E+01 -0.55967410595E+02  0.60939046187E+02  0.00000000000E+00 0.  1.
         -2    1    1    2    0  502 -0.22941737056E+02 -0.74089811923E+01 -0.19414679178E+02  0.30953934630E+02  0.00000000000E+00 0. -1.
</event>
<event>
 4    1  0.1820060E+004  0.2799457E+02  0.7546771E-02  0.1437865E+00
         21   -1    0    0  503  502  0.00000000000E+00  0.00000000000E+00  0.11336036840E+03  0.11336036840E+03  0.00000000000E+00 0. -1.
         21   -1    0    0  501  503 -0.00000000000E+00 -0.00000000000E+00 -0.69569643736E+01  0.69569643736E+01  0.00000000000E+00 0.  1.
          2    1    1    2  501    0  0.26359343034E+02 -0.94276660062E+01  0.48436503559E+02  0.55944532606E+02  0.00000000000E+00 0.  1.
         -2    1    1    2    0  502 -0.26359343034E+02  0.94276660062E+01  0.57966900463E+02  0.64372800163E+02  0.00000000000E+00 0. -1.
</event>
<event>
 4    1  0.1820060E+004  0.3647880E+02  0.7546771E-02  0.1370455E+00
         21   -1    0    0  503  502  0.00000000000E+00  0.00000000000E+00  0.25737526655E+03  0.25737526655E+03  0.00000000000E+00 0.  1.
         21   -1    0    0  501  503 -0.00000000000E+00 -0.00000000000E+00 -0.77298882064E+01  0.77298882064E+01  0.00000000000E+00 0. -1.
          2    1    1    2  501    0 -0.24140500631E+02  0.27348468472E+02  0.48546635362E+02  0.60724610361E+02  0.00000000000E+00 0.  1.
         -2    1    1    2    0  502  0.24140500631E+02 -0.27348468472E+02  0.20109874298E+03  0.20438054439E+03  0.00000000000E+00 0. -1.
</event>
<event>
 4    1  0.1820060E+004  0.2758773E+02  0.7546771E-02  0.1441792E+00
         21   -1    0    0  501  502  0.00000000000E+00  0.00000000000E+00  0.38413705089E+03  0.38413705089E+03  0.00000000000E+00 0. -1.
         21   -1    0    0  502  503 -0.00000000000E+00 -0.00000000000E+00 -0.19839757141E+01  0.19839757141E+01  0.00000000000E+00 0.  1.
          2    1    1    2  501    0 -0.26758862718E+02  0.67116204998E+01  0.18395848392E+03  0.18601560792E+03  0.00000000000E+00 0. -1.
         -2    1    1    2    0  503  0.26758862718E+02 -0.67116204998E+01  0.19819459125E+03  0.20010541868E+03  0.00000000000E+00 0.  1.
</event>
<event>
 4    1  0.1820060E+004  0.2309905E+02  0.7546771E-02  0.1491258E+00
         21   -1    0    0  501  502  0.00000000000E+00  0.00000000000E+00  0.38283748893E+01  0.38283748893E+01  0.00000000000E+00 0.  1.
         21   -1    0    0  502  503 -0.00000000000E+00 -0.00000000000E+00 -0.21619875958E+03  0.21619875958E+03  0.00000000000E+00 0. -1.
          2    1    1    2  501    0 -0.21706479884E+02  0.78990368623E+01 -0.40604267087E+02  0.46714800203E+02  0.00000000000E+00 0.  1.
         -2    1    1    2    0  503  0.21706479884E+02 -0.78990368623E+01 -0.17176611760E+03  0.17331233426E+03  0.00000000000E+00 0. -1.
</event>
<event>
 4    1  0.1820060E+004  0.2592279E+02  0.7546771E-02  0.1458740E+00
         21   -1    0    0  503  502  0.00000000000E+00  0.00000000000E+00  0.29023882249E+01  0.29023882249E+01  0.00000000000E+00 0.  1.
         21   -1    0    0  501  503 -0.00000000000E+00 -0.00000000000E+00 -0.52261785766E+03  0.52261785766E+03  0.00000000000E+00 0. -1.
          2    1    1    2  501    0  0.22791232702E+02 -0.12351136425E+02 -0.45595843470E+03  0.45669473944E+03  0.00000000000E+00 0. -1.
         -2    1    1    2    0  502 -0.22791232702E+02  0.12351136425E+02 -0.63757034741E+02  0.68825506449E+02  0.00000000000E+00 0.  1.
</event>
<event>
 4    1  0.1820060E+004  0.2405686E+02  0.7546771E-02  0.1479637E+00
         21   -1    0    0  503  502  0.00000000000E+00  0.00000000000E+00  0.31309281713E+02  0.31309281713E+02  0.00000000000E+00 0. -1.
         21   -1    0    0  501  503 -0.00000000000E+00 -0.00000000000E+00 -0.18774585781E+02  0.18774585781E+02  0.00000000000E+00 0.  1.
          2    1    1    2  501    0 -0.44355208282E+01 -0.23644417978E+02  0.31538884810E+01  0.24262715410E+02  0.00000000000E+00 0. -1.
         -2    1    1    2    0  502  0.44355208282E+01  0.23644417978E+02  0.93808074507E+01  0.25821152084E+02  0.00000000000E+00 0.  1.
</event>
<event>
 4    1  0.1820060E+004  0.2034150E+02  0.7546771E-02  0.1528878E+00
         21   -1    0    0  503  502  0.00000000000E+00  0.00000000000E+00  0.10127524041E+02  0.10127524041E+02  0.00000000000E+00 0.  1.
         21   -1    0    0  501  503 -0.00000000000E+00 -0.00000000000E+00 -0.63576281264E+02  0.63576281264E+02  0.00000000000E+00 0. -1.
          2    1    1    2  501    0 -0.16630159598E+02  0.11713861690E+02 -0.48754299540E+02  0.52827629963E+02  0.00000000000E+00 0.  1.
         -2    1    1    2    0  502  0.16630159598E+02 -0.11713861690E+02 -0.46944576841E+01  0.20876175342E+02  0.00000000000E+00 0. -1.
</event>
<event>
 4    1  0.1820060E+004  0.3260627E+02  0.7546771E-02  0.1398221E+00
         21   -1    0    0  501  502  0.00000000000E+00  0.00000000000E+00  0.79606995036E+01  0.79606995036E+01  0.00000000000E+00 0.  1.
         21   -1    0    0  502  503 -0.00000000000E+00 -0.00000000000E+00 -0.17124333091E+03  0.17124333091E+03  0.00000000000E+00 0. -1.
          2    1    1    2  501    0 -0.10635389368E+02  0.30822996808E+02 -0.39604410029E+02  0.51299882388E+02  0.00000000000E+00 0.  1.
         -2    1    1    2    0  503  0.10635389368E+02 -0.30822996808E+02 -0.12367822138E+03  0.12790414802E+03  0.00000000000E+00 0. -1.
</event>
<event>
 4    1  0.1820060E+004  0.2976258E+02  0.7546771E-02  0.1421671E+00
         21   -1    0    0  503  502  0.00000000000E+00  0.00000000000E+00  0.53034403835E+02  0.53034403835E+02  0.00000000000E+00 0. -1.
         21   -1    0    0  501  503 -0.00000000000E+00 -0.00000000000E+00 -0.61809894004E+02  0.61809894004E+02  0.00000000000E+00 0.  1.
          2    1    1    2  501    0 -0.29066465367E+02 -0.63993456645E+01 -0.53441691914E+02  0.61170462386E+02  0.00000000000E+00 0.  1.
         -2    1    1    2    0  502  0.29066465367E+02  0.63993456645E+01  0.44666201745E+02  0.53673835453E+02  0.00000000000E+00 0. -1.
</event>
<event>
 4    1  0.1820060E+004  0.2196706E+02  0.7546771E-02  0.1505893E+00
         21   -1    0    0  503  502  0.00000000000E+00  0.00000000000E+00  0.12489094200E+02  0.12489094200E+02  0.00000000000E+00 0.  1.
         21   -1    0    0  501  503 -0.00000000000E+00 -0.00000000000E+00 -0.40589691708E+02  0.40589691708E+02  0.00000000000E+00 0. -1.
          2    1    1    2  501    0 -0.95945920272E+01 -0.19760956547E+02 -0.19870080905E+02  0.29620461087E+02  0.00000000000E+00 0.  1.
         -2    1    1    2    0  502  0.95945920272E+01  0.19760956547E+02 -0.82305166029E+01  0.23458324821E+02  0.00000000000E+00 0. -1.
</event>
<event>
 4    1  0.1820060E+004  0.2184643E+02  0.7546771E-02  0.1507515E+00
         21   -1    0    0  501  502  0.00000000000E+00  0.00000000000E+00  0.25680870330E+01  0.25680870330E+01  0.00000000000E+00 0.  1.
         21   -1    0    0  502  503 -0.00000000000E+00 -0.00000000000E+00 -0.29631241794E+03  0.29631241794E+03  0.00000000000E+00 0. -1.
          2    1    1    2  501    0 -0.10314611663E+02  0.19258125039E+02 -0.55627093815E+02  0.59763200718E+02  0.00000000000E+00 0.  1.
         -2    1    1    2    0  503  0.10314611663E+02 -0.19258125039E+02 -0.23811723709E+03  0.23911730426E+03  0.00000000000E+00 0. -1.
</event>
<event>
 4    1  0.1820060E+004  0.2648841E+02  0.7546771E-02  0.1452816E+00
         21   -1    0    0  501  502  0.00000000000E+00  0.00000000000E+00  0.10738945008E+03  0.10738945008E+03  0.00000000000E+00 0.  1.
         21   -1    0    0  502  503 -0.00000000000E+00 -0.00000000000E+00 -0.11537007654E+02  0.11537007654E+02  0.00000000000E+00 0. -1.
          2    1    1    2  501    0  0.26135303675E+02  0.43106604803E+01  0.87085653330E+02  0.91024979582E+02  0.00000000000E+00 0.  1.
         -2    1    1    2    0  503 -0.26135303675E+02 -0.43106604803E+01  0.87667890941E+01  0.27901478151E+02  0.00000000000E+00 0. -1.
</event>
<event>
 4    1  0.1820060E+004  0.2134761E+02  0.7546771E-02  0.1514359E+00
         21   -1    0    0  501  502  0.00000000000E+00  0.00000000000E+00  0.38668840368E+01  0.38668840368E+01  0.00000000000E+00 0. -1.
         21   -1    0    0  502  503 -0.00000000000E+00 -0.00000000000E+00 -0.19781003782E+03  0.19781003782E+03  0.00000000000E+00 0.  1.
          2    1    1    2  501    0  0.19556710053E+02 -0.85589349870E+01 -0.32860521273E+02  0.39185892035E+02  0.00000000000E+00 0. -1.
         -2    1    1    2    0  503 -0.19556710053E+02  0.85589349870E+01 -0.16108263251E+03  0.16249102982E+03  0.00000000000E+00 0.  1.
</event>
<event>
 4    1  0.1820060E+004  0.5317717E+02  0.7546771E-02  0.1284955E+00
         21   -1    0    0  501  502  0.00000000000E+00  0.00000000000E+00  0.18611656864E+03  0.18611656864E+03  0.00000000000E+00 0.  1.
         21   -1    0    0  502  503 -0.00000000000E+00 -0.00000000000E+00 -0.17364494813E+02  0.17364494813E+02  0.00000000000E+00 0. -1.
          2    1    1    2  501    0 -0.35579280453E+02  0.39521218835E+02  0.12034811500E+03  0.13157310029E+03  0.00000000000E+00 0. -1.
         -2    1    1    2    0  503  0.35579280453E+02 -0.39521218835E+02  0.48403958820E+02  0.71907963155E+02  0.00000000000E+00 0.  1.
</event>
<event>
 4    1  0.1820060E+004  0.2211216E+02  0.7546771E-02  0.1503958E+00
         21   -1    0    0  501  502  0.00000000000E+00  0.00000000000E+00  0.40258591558E+00  0.40258591558E+00  0.00000000000E+00 0.  1.
         21   -1    0    0  502  503 -0.00000000000E+00 -0.00000000000E+00 -0.12161603907E+04  0.12161603907E+04  0.00000000000E+00 0. -1.
          2    1    1    2  501    0 -0.58071411210E-01  0.22112082676E+02 -0.63023703651E+03  0.63062482489E+03  0.00000000000E+00 0.  1.
         -2    1    1    2    0  503  0.58071411210E-01 -0.22112082676E+02 -0.58552076824E+03  0.58593815169E+03  0.00000000000E+00 0. -1.
</event>
<event>
 4    1  0.1820060E+004  0.2617323E+02  0.7546771E-02  0.1456095E+00
         21   -1    0    0  503  502  0.00000000000E+00  0.00000000000E+00  0.29435701428E+02  0.29435701428E+02  0.00000000000E+00 0. -1.
         21   -1    0    0  501  503 -0.00000000000E+00 -0.00000000000E+00 -0.95065419660E+02  0.95065419660E+02  0.00000000000E+00 0.  1.
          2    1    1    2  501    0  0.26124149232E+02  0.16021234753E+01 -0.86911866433E+02  0.90767342694E+02  0.00000000000E+00 0.  1.
         -2    1    1    2    0  502 -0.26124149232E+02 -0.16021234753E+01  0.21282148201E+02  0.33733778395E+02  0.00000000000E+00 0. -1.
</event>
<event>
 4    1  0.1820060E+004  0.2584867E+02  0.7546771E-02  0.1459529E+00
         21   -1    0    0  503  502  0.00000000000E+00  0.00000000000E+00  0.57487021301E+02  0.57487021301E+02  0.00000000000E+00 0. -1.
         21   -1    0    0  501  503 -0.00000000000E+00 -0.00000000000E+00 -0.56219394760E+02  0.56219394760E+02  0.00000000000E+00 0.  1.
          2    1    1    2  501    0  0.12556996111E+02 -0.22593703057E+02 -0.50002642407E+02  0.56288700614E+02  0.00000000000E+00 0.  1.
         -2    1    1    2    0  502 -0.12556996111E+02  0.22593703057E+02  0.51270268948E+02  0.57417715447E+02  0.00000000000E+00 0. -1.
</event>
<event>
 4    1  0.1820060E+004  0.2031101E+02  0.7546771E-02  0.1529333E+00
         21   -1    0    0  503  502  0.00000000000E+00  0.00000000000E+00  0.40887012196E+00  0.40887012196E+00  0.00000000000E+00 0.  1.
         21   -1    0    0  501  503 -0.00000000000E+00 -0.00000000000E+00 -0.16848801179E+04  0.16848801179E+04  0.00000000000E+00 0. -1.
          2    1    1    2  501    0  0.19093948875E+02 -0.69251912326E+01 -0.13759449289E+04  0.13760948312E+04  0.00000000000E+00 0. -1.
         -2    1    1    2    0  502 -0.19093948875E+02  0.69251912326E+01 -0.30852631890E+03  0.30919415682E+03  0.00000000000E+00 0.  1.
</event>
<event>
 4    1  0.1820060E+004  0.2314612E+02  0.7546771E-02  0.1490671E+00
         21   -1    0    0  503  502  0.00000000000E+00  0.00000000000E+00  0.47171024503E+02  0.47171024503E+02  0.00000000000E+00 0. -1.
         21   -1    0    0  501  503 -0.00000000000E+00 -0.00000000000E+00 -0.12321802617E+02  0.12321802617E+02  0.00000000000E+00 0.  1.
          2    1    1    2  501    0 -0.19248675044E+02 -0.12854228207E+02  0.25746364289E+02  0.34621062200E+02  0.00000000000E+00 0. -1.
         -2    1    1    2    0  502  0.19248675044E+02  0.12854228207E+02  0.91028575974E+01  0.24871764919E+02  0.00000000000E+00 0.  1.
</event>
<event>
 4    1  0.1820060E+004  0.2253719E+02  0.7546771E-02  0.1498393E+00
         21   -1    0    0  501  502  0.00000000000E+00  0.00000000000E+00  0.49143751122E+03  0.49143751122E+03  0.00000000000E+00 0. -1.
         21   -1    0    0  502  503 -0.00000000000E+00 -0.00000000000E+00 -0.20260728305E+01  0.20260728305E+01  0.00000000000E+00 0.  1.
          2    1    1    2  501    0  0.20652581591E+02  0.90219545861E+01  0.41739605706E+03  0.41800405888E+03  0.00000000000E+00 0. -1.
         -2    1    1    2    0  503 -0.20652581591E+02 -0.90219545861E+01  0.72015381328E+02  0.75459525169E+02  0.00000000000E+00 0.  1.
</event>
<event>
 4    1  0.1820060E+004  0.2676171E+02  0.7546771E-02  0.1450017E+00
         21   -1    0    0  503  502  0.00000000000E+00  0.00000000000E+00  0.34102580023E+02  0.34102580023E+02  0.00000000000E+00 0.  1.
         21   -1    0    0  501  503 -0.00000000000E+00 -0.00000000000E+00 -0.47189195317E+02  0.47189195317E+02  0.00000000000E+00 0. -1.
          2    1    1    2  501    0  0.23386162453E+02 -0.13010630400E+02 -0.36822752907E+02  0.45520371586E+02  0.00000000000E+00 0. -1.
         -2    1    1    2    0  502 -0.23386162453E+02  0.13010630400E+02  0.23736137614E+02  0.35771403754E+02  0.00000000000E+00 0.  1.
</event>
<event>
 4    1  0.1820060E+004  0.2187483E+02  0.7546771E-02  0.1507132E+00
         21   -1    0    0  501  502  0.00000000000E+00  0.00000000000E+00  0.36562884832E+01  0.36562884832E+01  0.00000000000E+00 0.  1.
         21   -1    0    0  502  503 -0.00000000000E+00 -0.00000000000E+00 -0.22295030360E+03  0.22295030360E+03  0.00000000000E+00 0. -1.
          2    1    1    2  501    0  0.14863056230E+02  0.16049850318E+02 -0.36832880174E+02  0.42838874841E+02  0.00000000000E+00 0.  1.
         -2    1    1    2    0  503 -0.14863056230E+02 -0.16049850318E+02 -0.18246113494E+03  0.18376771724E+03  0.00000000000E+00 0. -1.
</event>
<event>
 4    1  0.1820060E+004  0.2007535E+02  0.7546771E-02  0.1532887E+00
         21   -1    0    0  503  502  0.00000000000E+00  0.00000000000E+00  0.15184093573E+01  0.15184093573E+01  0.00000000000E+00 0. -1.
         21   -1    0    0  501  503 -0.00000000000E+00 -0.00000000000E+00 -0.27864548237E+03  0.27864548237E+03  0.00000000000E+00 0.  1.
          2    1    1    2  501    0  0.15724389212E+02  0.12480507945E+02 -0.16907945316E+03  0.17026708717E+03  0.00000000000E+00 0. -1.
         -2    1    1    2    0  502 -0.15724389212E+02 -0.12480507945E+02 -0.10804761985E+03  0.10989680455E+03  0.00000000000E+00 0.  1.
</event>
<event>
 4    1  0.1820060E+004  0.3167183E+02  0.7546771E-02  0.1405604E+00
         21   -1    0    0  501  502  0.00000000000E+00  0.00000000000E+00  0.22458380197E+01  0.22458380197E+01  0.00000000000E+00 0.  1.
         21   -1    0    0  502  503 -0.00000000000E+00 -0.00000000000E+00 -0.52095712331E+03  0.52095712331E+03  0.00000000000E+00 0. -1.
          2    1    1    2  501    0 -0.36393340061E+01  0.31462036853E+02 -0.16055649950E+03  0.16365052413E+03  0.00000000000E+00 0.  1.
         -2    1    1    2    0  503  0.36393340061E+01 -0.31462036853E+02 -0.35815478579E+03  0.35955243721E+03  0.00000000000E+00 0. -1.
</event>
<event>
 4    1  0.1820060E+004  0.2516527E+02  0.7546771E-02  0.1466963E+00
         21   -1    0    0  501  502  0.00000000000E+00  0.00000000000E+00  0.28980166446E+03  0.28980166446E+03  0.00000000000E+00 0. -1.
         21   -1    0    0  502  503 -0.00000000000E+00 -0.00000000000E+00 -0.21630270428E+02  0.21630270428E+02  0.00000000000E+00 0.  1.
          2    1    1    2  501    0 -0.60516221091E+01  0.24426802852E+02  0.28172646940E+03  0.28284818258E+03  0.00000000000E+00 0. -1.
         -2    1    1    2    0  503  0.60516221091E+01 -0.24426802852E+02 -0.13555075369E+02  0.28583752308E+02  0.00000000000E+00 0.  1.
</event>
<event>
 4    1  0.1820060E+004  0.2732330E+02  0.7546771E-02  0.1444387E+00
         21   -1    0    0  503  502  0.00000000000E+00  0.00000000000E+00  0.26547191199E+02  0.26547191199E+02  0.00000000000E+00 0.  1.
         21   -1    0    0  501  503 -0.00000000000E+00 -0.00000000000E+00 -0.43143295549E+02  0.43143295549E+02  0.00000000000E+00 0. -1.
          2    1    1    2  501    0  0.32364487860E+01 -0.27130945805E+02  0.12262703099E+02  0.29948901621E+02  0.00000000000E+00 0.  1.
         -2    1    1    2    0  502 -0.32364487860E+01  0.27130945805E+02 -0.28858807449E+02  0.39741585127E+02  0.00000000000E+00 0. -1.
</event>
<event>
 4    1  0.1820060E+004  0.2380946E+02  0.7546771E-02  0.1482576E+00
         21   -1    0    0  501  502  0.00000000000E+00  0.00000000000E+00  0.69063503217E+02  0.69063503217E+02  0.00000000000E+00 0. -1.
         21   -1    0    0  502  503 -0.00000000000E+00 -0.00000000000E+00 -0.82685864699E+01  0.82685864699E+01  0.00000000000E+00 0.  1.
          2    1    1    2  501    0 -0.29361348488E+01 -0.23627732007E+02  0.33700381521E+02  0.41262650451E+02  0.00000000000E+00 0. -1.
         -2    1    1    2    0  503  0.29361348488E+01  0.23627732007E+02  0.27094535227E+02  0.36069439236E+02  0.00000000000E+00 0.  1.
</event>
<event>
 4    1  0.1820060E+004  0.2041181E+02  0.7546771E-02  0.1527831E+00
         21   -1    0    0  503  502  0.00000000000E+00  0.00000000000E+00  0.18407952049E+03  0.18407952049E+03  0.00000000000E+00 0. -1.
         21   -1    0    0  501  503 -0.00000000000E+00 -0.00000000000E+00 -0.26023903658E+01  0.26023903658E+01  0.00000000000E+00 0.  1.
          2    1    1    2  501    0 -0.20410409262E+02 -0.23938881515E+00  0.57049280731E+02  0.60590944416E+02  0.00000000000E+00 0.  1.
         -2    1    1    2    0  502  0.20410409262E+02  0.23938881515E+00  0.12442784940E+03  0.12609096644E+03  0.00000000000E+00 0. -1.
</event>
<event>
 4    1  0.1820060E+004  0.2350138E+02  0.7546771E-02  0.1486296E+00
         21   -1    0    0  501  502  0.00000000000E+00  0.00000000000E+00  0.28332184510E+02  0.28332184510E+02  0.00000000000E+00 0.  1.
         21   -1    0    0  502  503 -0.00000000000E+00 -0.00000000000E+00 -0.50166253688E+02  0.50166253688E+02  0.00000000000E+00 0. -1.
          2    1    1    2  501    0 -0.89797601010E+01 -0.21718169925E+02  0.19772915506E+02  0.30712915589E+02  0.00000000000E+00 0.  1.
         -2    1    1    2    0  503  0.89797601010E+01  0.21718169925E+02 -0.41606984685E+02  0.47785522608E+02  0.00000000000E+00 0. -1.
</event>
<event>
 4    1  0.1820060E+004  0.2693901E+02  0.7546771E-02  0.1448222E+00
         21   -1    0    0  503  502  0.00000000000E+00  0.00000000000E+00  0.33985773843E+02  0.33985773843E+02  0.00000000000E+00 0. -1.
         21   -1    0    0  501  503 -0.00000000000E+00 -0.00000000000E+00 -0.49736194605E+02  0.49736194605E+02  0.00000000000E+00 0.  1.
          2    1    1    2  501    0 -0.18402960015E+02  0.19673359705E+02 -0.39498070105E+02  0.47810119864E+02  0.00000000000E+00 0.  1.
         -2    1    1    2    0  502  0.18402960015E+02 -0.19673359705E+02  0.23747649343E+02  0.35911848584E+02  0.00000000000E+00 0. -1.
</event>
<event>
 4    1  0.1820060E+004  0.5229286E+02  0.7546771E-02  0.1288526E+00
         21   -1    0    0  501  502  0.00000000000E+00  0.00000000000E+00  0.49271467102E+01  0.49271467102E+01  0.00000000000E+00 0. -1.
         21   -1    0    0  502  503 -0.00000000000E+00 -0.00000000000E+00 -0.66921290033E+03  0.66921290033E+03  0.00000000000E+00 0.  1.
          2    1    1    2  501    0  0.28359734040E+02  0.43934817795E+02 -0.19288983125E+03  0.19985251995E+03  0.00000000000E+00 0. -1.
         -2    1    1    2    0  503 -0.28359734040E+02 -0.43934817795E+02 -0.47139592237E+03  0.47428752710E+03  0.00000000000E+00 0.  1.
</event>
<event>
 4    1  0.1820060E+004  0.2165685E+02  0.7546771E-02  0.1510090E+00
         21   -1    0    0  503  502  0.00000000000E+00  0.00000000000E+00  0.98376943551E+01  0.98376943551E+01  0.00000000000E+00 0.  1.
         21   -1    0    0  501  503 -0.00000000000E+00 -0.00000000000E+00 -0.89289030480E+02  0.89289030480E+02  0.00000000000E+00 0. -1.
          2    1    1    2  501    0  0.21413706470E+02 -0.32360848460E+01 -0.73561580304E+02  0.76683278273E+02  0.00000000000E+00 0. -1.
         -2    1    1    2    0  502 -0.21413706470E+02  0.32360848460E+01 -0.58897558208E+01  0.22443446562E+02  0.00000000000E+00 0.  1.
</event>
<event>
 4    1  0.1820060E+004  0.2172391E+02  0.7546771E-02  0.1509175E+00
         21   -1    0    0  501  502  0.00000000000E+00  0.00000000000E+00  0.90074186982E+02  0.90074186982E+02  0.00000000000E+00 0.  1.
         21   -1    0    0  502  503 -0.00000000000E+00 -0.00000000000E+00 -0.14883939864E+02  0.14883939864E+02  0.00000000000E+00 0. -1.
          2    1    1    2  501    0  0.15880854380E+02  0.14823180319E+02  0.79839557933E+02  0.82742269860E+02  0.00000000000E+00 0.  1.
         -2    1    1    2    0  503 -0.15880854380E+02 -0.14823180319E+02 -0.46493108147E+01  0.22215856986E+02  0.00000000000E+00 0. -1.
</event>
<event>
 4    1  0.1820060E+004  0.2091948E+02  0.7546771E-02  0.1520418E+00
         21   -1    0    0  503  502  0.00000000000E+00  0.00000000000E+00  0.17678957529E+03  0.17678957529E+03  0.00000000000E+00 0.  1.
         21   -1    0    0  501  503 -0.00000000000E+00 -0.00000000000E+00 -0.33876326423E+02  0.33876326423E+02  0.00000000000E+00 0. -1.
          2    1    1    2  501    0  0.20442501962E+01  0.20819362050E+02 -0.29954904814E+02  0.36536572327E+02  0.00000000000E+00 0. -1.
         -2    1    1    2    0  502 -0.20442501962E+01 -0.20819362050E+02  0.17286815368E+03  0.17412932938E+03  0.00000000000E+00 0.  1.
</event>
<event>
 4    1  0.1820060E+004  0.2017947E+02  0.7546771E-02  0.1531310E+00
         21   -1    0    0  501  502  0.00000000000E+00  0.00000000000E+00  0.71081314921E+01  0.71081314921E+01  0.00000000000E+00 0.  1.
         21   -1    0    0  502  503 -0.00000000000E+00 -0.00000000000E+00 -0.80603438489E+02  0.80603438489E+02  0.00000000000E+00 0. -1.
          2    1    1    2  501    0  0.16492954437E+02  0.11627263896E+02 -0.13160709863E+02  0.24091805575E+02  0.00000000000E+00 0.  1.
         -2    1    1    2    0  503 -0.16492954437E+02 -0.11627263896E+02 -0.60334597134E+02  0.63619764406E+02  0.00000000000E+00 0. -1.
</event>
<event>
 4    1  0.1820060E+004  0.5062652E+02  0.7546771E-02  0.1295479E+00
         21   -1    0    0  503  502  0.00000000000E+00  0.00000000000E+00  0.18464598746E+03  0.18464598746E+03  0.00000000000E+00 0. -1.
         21   -1    0    0  501  503 -0.00000000000E+00 -0.00000000000E+00 -0.47885702141E+02  0.47885702141E+02  0.00000000000E+00 0.  1.
          2    1    1    2  501    0 -0.20142227165E+02  0.46447121340E+02 -0.29595839923E+02  0.58642630711E+02  0.00000000000E+00 0.  1.
         -2    1    1    2    0  502  0.20142227165E+02 -0.46447121340E+02  0.16635612525E+03  0.17388905889E+03  0.00000000000E+00 0. -1.
</event>
<event>
 4    1  0.1820060E+004  0.2821932E+02  0.7546771E-02  0.1435730E+00
         21   -1    0    0  501  502  0.00000000000E+00  0.00000000000E+00  0.93925359152E+02  0.93925359152E+02  0.00000000000E+00 0.  1.
         21   -1    0    0  502  503 -0.00000000000E+00 -0.00000000000E+00 -0.12511703781E+02  0.12511703781E+02  0.00000000000E+00 0. -1.
          2    1    1    2  501    0  0.51425179628E+01  0.27746795186E+02  0.70922963720E+02  0.76330838571E+02  0.00000000000E+00 0. -1.
         -2    1    1    2    0  503 -0.51425179628E+01 -0.27746795186E+02  0.10490691651E+02  0.30106224363E+02  0.00000000000E+00 0.  1.
</event>
<event>
 4    1  0.1820060E+004  0.2296961E+02  0.7546771E-02  0.1492880E+00
         21   -1    0    0  501  502  0.00000000000E+00  0.00000000000E+00  0.34080214381E+02  0.34080214381E+02  0.00000000000E+00 0. -1.
         21   -1    0    0  502  503 -0.00000000000E+00 -0.00000000000E+00 -0.49245586689E+02  0.49245586689E+02  0.00000000000E+00 0.  1.
          2    1    1    2  501    0 -0.22820728263E+02  0.26110231545E+01  0.26915414806E+02  0.35384214482E+02  0.00000000000E+00 0. -1.
         -2    1    1    2    0  503  0.22820728263E+02 -0.26110231545E+01 -0.42080787114E+02  0.47941586587E+02  0.00000000000E+00 0.  1.
</event>
<event>
 4    1  0.1820060E+004  0.2012809E+02  0.7546771E-02  0.1532087E+00
         21   -1    0    0  503  502  0.00000000000E+00  0.00000000000E+00  0.16578459562E+01  0.16578459562E+01  0.00000000000E+00 0.  1.
         21   -1    0    0  501  503 -0.00000000000E+00 -0.00000000000E+00 -0.62796517840E+03  0.62796517840E+03  0.00000000000E+00 0. -1.
          2    1    1    2  501    0  0.11876050645E+02 -0.16251137435E+02 -0.55919904809E+03  0.55956118113E+03  0.00000000000E+00 0. -1.
         -2    1    1    2    0  502 -0.11876050645E+02  0.16251137435E+02 -0.67108284358E+02  0.70061843227E+02  0.00000000000E+00 0.  1.
</event>
<event>
 4    1  0.1820060E+004  0.2031299E+02  0.7546771E-02  0.1529304E+00
         21   -1    0    0  501  502  0.00000000000E+00  0.00000000000E+00  0.11749780658E+02  0.11749780658E+02  0.00000000000E+00 0. -1.
         21   -1    0    0  502  503 -0.00000000000E+00 -0.00000000000E+00 -0.44361139746E+02  0.44361139746E+02  0.00000000000E+00 0.  1.
          2    1    1    2  501    0  0.74565220443E+01  0.18894916907E+02 -0.34986567205E+01  0.20612088802E+02  0.00000000000E+00 0. -1.
         -2    1    1    2    0  503 -0.74565220443E+01 -0.18894916907E+02 -0.29112702368E+02  0.35498831602E+02  0.00000000000E+00 0.  1.
</event>
<event>
 4    1  0.1820060E+004  0.2008862E+02  0.7546771E-02  0.1532685E+00
         21   -1    0    0  503  502  0.00000000000E+00  0.00000000000E+00  0.19636708905E+01  0.19636708905E+01  0.00000000000E+00 0. -1.
         21   -1    0    0  501  503 -0.00000000000E+00 -0.00000000000E+00 -0.26832385532E+03  0.26832385532E+03  0.00000000000E+00 0.  1.
          2    1    1    2  501    0  0.26369993424E+00 -0.20086888291E+02 -0.19856786273E+03  0.19958143382E+03  0.00000000000E+00 0.  1.
         -2    1    1    2    0  502 -0.26369993424E+00  0.20086888291E+02 -0.67792321699E+02  0.70706092384E+02  0.00000000000E+00 0. -1.
</event>
<event>
 4    1  0.1820060E+004  0.2491061E+02  0.7546771E-02  0.1469806E+00
         21   -1    0    0  503  502  0.00000000000E+00  0.00000000000E+00  0.10792579503E+02  0.10792579503E+02  0.00000000000E+00 0. -1.
         21   -1    0    0  501  503 -0.00000000000E+00 -0.00000000000E+00 -0.14839693591E+03  0.14839693591E+03  0.00000000000E+00 0.  1.
          2    1    1    2  501    0  0.24901635790E+02 -0.66860059926E+00 -0.13109734161E+03  0.13344306452E+03  0.00000000000E+00 0.  1.
         -2    1    1    2    0  502 -0.24901635790E+02  0.66860059926E+00 -0.65070147932E+01  0.25746450888E+02  0.00000000000E+00 0. -1.
</event>
<event>
 4    1  0.1820060E+004  0.2299460E+02  0.7546771E-02  0.1492566E+00
         21   -1    0    0  503  502  0.00000000000E+00  0.00000000000E+00  0.35842402610E+03  0.35842402610E+03  0.00000000000E+00 0. -1.
         21   -1    0    0  501  503 -0.00000000000E+00 -0.00000000000E+00 -0.17446857004E+02  0.17446857004E+02  0.00000000000E+00 0.  1.
          2    1    1    2  501    0  0.15741071955E+02 -0.16762172226E+02 -0.93259939638E+01  0.24813825329E+02  0.00000000000E+00 0.  1.
         -2    1    1    2    0  502 -0.15741071955E+02  0.16762172226E+02  0.35030316306E+03  0.35105705777E+03  0.00000000000E+00 0. -1.
</event>
<event>
 4    1  0.1820060E+004  0.3008473E+02  0.7546771E-02  0.1418862E+00
         21   -1    0    0  501  502  0.00000000000E+00  0.00000000000E+00  0.32350186142E+03  0.32350186142E+03  0.00000000000E+00 0.  1.
         21   -1    0    0  502  503 -0.00000000000E+00 -0.00000000000E+00 -0.58491700477E+01  0.58491700477E+01  0.00000000000E+00 0. -1.
          2    1    1    2  501    0  0.29573786848E+02  0.55210452899E+01  0.27776689544E+03  0.27939137248E+03  0.00000000000E+00 0.  1.
         -2    1    1    2    0  503 -0.29573786848E+02 -0.55210452899E+01  0.39885795923E+02  0.49959658987E+02  0.00000000000E+00 0. -1.
</event>
<event>
 4    1  0.1820060E+004  0.5173948E+02  0.7546771E-02  0.1290802E+00
         21   -1    0    0  503  502  0.00000000000E+00  0.00000000000E+00  0.89641783147E+03  0.89641783147E+03  0.00000000000E+00 0.  1.
         21   -1    0    0  501  503 -0.00000000000E+00 -0.00000000000E+00 -0.22804926347E+02  0.22804926347E+02  0.00000000000E+00 0. -1.
          2    1    1    2  501    0  0.27361242468E+02 -0.43912819765E+02  0.83435743225E+01  0.52407905526E+02  0.00000000000E+00 0. -1.
         -2    1    1    2    0  502 -0.27361242468E+02  0.43912819765E+02  0.86526933080E+03  0.86681485229E+03  0.00000000000E+00 0.  1.
</event>
<event>
 4    1  0.1820060E+004  0.2487471E+02  0.7546771E-02  0.1470210E+00
         21   -1    0    0  501  502  0.00000000000E+00  0.00000000000E+00  0.10647057754E+03  0.10647057754E+03  0.00000000000E+00 0.  1.
         21   -1    0    0  502  503 -0.00000000000E+00 -0.00000000000E+00 -0.96876412370E+01  0.96876412370E+01  0.00000000000E+00 0. -1.
          2    1    1    2  501    0 -0.16539120259E+02  0.18579796534E+02  0.85129170921E+02  0.88688934371E+02  0.00000000000E+00 0.  1.
         -2    1    1    2    0  503  0.16539120259E+02 -0.18579796534E+02  0.11653765381E+02  0.27469284405E+02  0.00000000000E+00 0. -1.
</event>
<event>
 4    1  0.1820060E+004  0.2796150E+02  0.7546771E-02  0.1438182E+00
         21   -1    0    0  503  502  0.00000000000E+00  0.00000000000E+00  0.12676946560E+02  0.12676946560E+02  0.00000000000E+00 0. -1.
         21   -1    0    0  501  503 -0.00000000000E+00 -0.00000000000E+00 -0.66613797914E+02  0.66613797914E+02  0.00000000000E+00 0.  1.
          2    1    1    2  501    0  0.27920908872E+02 -0.15060513775E+01 -0.37763845509E+02  0.46988864326E+02  0.00000000000E+00 0.  1.
         -2    1    1    2    0  502 -0.27920908872E+02  0.15060513775E+01 -0.16173005845E+02  0.32301880147E+02  0.00000000000E+00 0. -1.
</event>
<event>
 4    1  0.1820060E+004  0.3423343E+02  0.7546771E-02  0.1386034E+00
         21   -1    0    0  503  502  0.00000000000E+00  0.00000000000E+00  0.51111097308E+01  0.51111097308E+01  0.00000000000E+00 0.  1.
         21   -1    0    0  501  503 -0.00000000000E+00 -0.00000000000E+00 -0.23387644467E+03  0.23387644467E+03  0.00000000000E+00 0. -1.
          2    1    1    2  501    0  0.25745705591E+02 -0.22562947258E+02 -0.97649608186E+02  0.10347644140E+03  0.00000000000E+00 0.  1.
         -2    1    1    2    0  502 -0.25745705591E+02  0.22562947258E+02 -0.13111572675E+03  0.13551111300E+03  0.00000000000E+00 0. -1.
</event>
<event>
 4    1  0.1820060E+004  0.2235721E+02  0.7546771E-02  0.1500731E+00
         21   -1    0    0  503  502  0.00000000000E+00  0.00000000000E+00  0.69527696166E+01  0.69527696166E+01  0.00000000000E+00 0.  1.
         21   -1    0    0  501  503 -0.00000000000E+00 -0.00000000000E+00 -0.16247215838E+03  0.16247215838E+03  0.00000000000E+00 0. -1.
          2    1    1    2  501    0 -0.24890383513E+01  0.22218220131E+02 -0.14101190671E+03  0.14277325538E+03  0.00000000000E+00 0. -1.
         -2    1    1    2    0  502  0.24890383513E+01 -0.22218220131E+02 -0.14507482052E+02  0.26651672616E+02  0.00000000000E+00 0.  1.
</event>
<event>
 4    1  0.1820060E+004  0.3467397E+02  0.7546771E-02  0.1382870E+00
         21   -1    0    0  503  502  0.00000000000E+00  0.00000000000E+00  0.21946016517E+01  0.21946016517E+01  0.00000000000E+00 0. -1.
         21   -1    0    0  501  503 -0.00000000000E+00 -0.00000000000E+00 -0.55100278381E+03  0.55100278381E+03  0.00000000000E+00 0.  1.
          2    1    1    2  501    0  0.83451040951E+01  0.33654764257E+02 -0.29537010653E+03  0.29739835869E+03  0.00000000000E+00 0.  1.
         -2    1    1    2    0  502 -0.83451040951E+01 -0.33654764257E+02 -0.25343807563E+03  0.25579902677E+03  0.00000000000E+00 0. -1.
</event>
<event>
 4    1  0.1820060E+004  0.2135109E+02  0.7546771E-02  0.1514311E+00
         21   -1    0    0  503  502  0.00000000000E+00  0.00000000000E+00  0.15292730799E+03  0.15292730799E+03  0.00000000000E+00 0.  1.
         21   -1    0    0  501  503 -0.00000000000E+00 -0.00000000000E+00 -0.38846723636E+01  0.38846723636E+01  0.00000000000E+00 0. -1.
          2    1    1    2  501    0 -0.29597379568E+01  0.21144953907E+02  0.36704164971E+02  0.42462511121E+02  0.00000000000E+00 0. -1.
         -2    1    1    2    0  502  0.29597379568E+01 -0.21144953907E+02  0.11233847065E+03  0.11434946923E+03  0.00000000000E+00 0.  1.
</event>
<event>
 4    1  0.1820060E+004  0.2580718E+02  0.7546771E-02  0.1459973E+00
         21   -1    0    0  503  502  0.00000000000E+00  0.00000000000E+00  0.53374962817E+01  0.53374962817E+01  0.00000000000E+00 0.  1.
         21   -1    0    0  501  503 -0.00000000000E+00 -0.00000000000E+00 -0.46277088009E+03  0.46277088009E+03  0.00000000000E+00 0. -1.
          2    1    1    2  501    0  0.25807162784E+02 -0.27772510945E-01 -0.42874256779E+03  0.42951856753E+03  0.00000000000E+00 0. -1.
         -2    1    1    2    0  502 -0.25807162784E+02  0.27772510945E-01 -0.28690816019E+02  0.38589808837E+02  0.00000000000E+00 0.  1.
</event>
<event>
 4    1  0.1820060E+004  0.4847859E+02  0.7546771E-02  0.1304907E+00
         21   -1    0    0  503  502  0.00000000000E+00  0.00000000000E+00  0.51235091975E+01  0.51235091975E+01  0.00000000000E+00 0. -1.
         21   -1    0    0  501  503 -0.00000000000E+00 -0.00000000000E+00 -0.46820935388E+03  0.46820935388E+03  0.00000000000E+00 0.  1.
          2    1    1    2  501    0  0.39422548362E+02  0.28214119154E+02 -0.19782178539E+03  0.20367531174E+03  0.00000000000E+00 0. -1.
         -2    1    1    2    0  502 -0.39422548362E+02 -0.28214119154E+02 -0.26526405929E+03  0.26965755134E+03  0.00000000000E+00 0.  1.
</event>
<event>
 4    1  0.1820060E+004  0.2547031E+02  0.7546771E-02  0.1463610E+00
         21   -1    0    0  503  502  0.00000000000E+00  0.00000000000E+00  0.17843852478E+02  0.17843852478E+02  0.00000000000E+00 0.  1.
         21   -1    0    0  501  503 -0.00000000000E+00 -0.00000000000E+00 -0.36758146003E+02  0.36758146003E+02  0.00000000000E+00 0. -1.
          2    1    1    2  501    0  0.96156208171E+01  0.23585519621E+02 -0.66027254577E+01  0.26312219271E+02  0.00000000000E+00 0.  1.
         -2    1    1    2    0  502 -0.96156208171E+01 -0.23585519621E+02 -0.12311568067E+02  0.28289779211E+02  0.00000000000E+00 0. -1.
</event>
<event>
 4    1  0.1820060E+004  0.2023426E+02  0.7546771E-02  0.1530484E+00
         21   -1    0    0  501  502  0.00000000000E+00  0.00000000000E+00  0.30962322146E+03  0.30962322146E+03  0.00000000000E+00 0. -1.
         21   -1    0    0  502  503 -0.00000000000E+00 -0.00000000000E+00 -0.43198791252E+01  0.43198791252E+01  0.00000000000E+00 0.  1.
          2    1    1    2  501    0 -0.43743533110E+01 -0.19755766035E+02  0.28340959842E+03  0.28413100101E+03  0.00000000000E+00 0. -1.
         -2    1    1    2    0  503  0.43743533110E+01  0.19755766035E+02  0.21893743919E+02  0.29812099579E+02  0.00000000000E+00 0.  1.
</event>
<event>
 4    1  0.1820060E+004  0.2022356E+02  0.7546771E-02  0.1530645E+00
         21   -1    0    0  503  502  0.00000000000E+00  0.00000000000E+00  0.73636532511E+01  0.73636532511E+01  0.00000000000E+00 0. -1.
         21   -1    0    0  501  503 -0.00000000000E+00 -0.00000000000E+00 -0.19704087572E+03  0.19704087572E+03  0.00000000000E+00 0.  1.
          2    1    1    2  501    0 -0.46381461046E+01 -0.19684513595E+02 -0.18144675999E+03  0.18257031299E+03  0.00000000000E+00 0.  1.
         -2    1    1    2    0  502  0.46381461046E+01  0.19684513595E+02 -0.82304624757E+01  0.21834215977E+02  0.00000000000E+00 0. -1.
</event>
<event>
 4    1  0.1820060E+004  0.3860210E+02  0.7546771E-02  0.1356878E+00
         21   -1    0    0  503  502  0.00000000000E+00  0.00000000000E+00  0.17402826779E+02  0.17402826779E+02  0.00000000000E+00 0.  1.
         21   -1    0    0  501  503 -0.00000000000E+00 -0.00000000000E+00 -0.88256080524E+02  0.88256080524E+02  0.00000000000E+00 0. -1.
          2    1    1    2  501    0  0.32427295316E+02  0.20942607693E+02 -0.44547700162E+02  0.58945906459E+02  0.00000000000E+00 0. -1.
         -2    1    1    2    0  502 -0.32427295316E+02 -0.20942607693E+02 -0.26305553583E+02  0.46713000844E+02  0.00000000000E+00 0.  1.
</event>
<event>
 4    1  0.1820060E+004  0.4193208E+02  0.7546771E-02  0.1337521E+00
         21   -1    0    0  503  502  0.00000000000E+00  0.00000000000E+00  0.64873917520E+02  0.64873917520E+02  0.00000000000E+00 0.  1.
         21   -1    0    0  501  503 -0.00000000000E+00 -0.00000000000E+00 -0.27244111302E+02  0.27244111302E+02  0.00000000000E+00 0. -1.
          2    1    1    2  501    0  0.37963807802E+02  0.17805856377E+02  0.22125833973E+02  0.47411514985E+02  0.00000000000E+00 0.  1.
         -2    1    1    2    0  502 -0.37963807802E+02 -0.17805856377E+02  0.15503972245E+02  0.44706513838E+02  0.00000000000E+00 0. -1.
</event>
<event>
 4    1  0.1820060E+004  0.3550663E+02  0.7546771E-02  0.1377036E+00
         21   -1    0    0  501  502  0.00000000000E+00  0.00000000000E+00  0.15978339053E+03  0.15978339053E+03  0.00000000000E+00 0. -1.
         21   -1    0    0  502  503 -0.00000000000E+00 -0.00000000000E+00 -0.11731913413E+02  0.11731913413E+02  0.00000000000E+00 0.  1.
          2    1    1    2  501    0  0.34284985778E+02 -0.92336667741E+01  0.12309976204E+03  0.12811819647E+03  0.00000000000E+00 0. -1.
         -2    1    1    2    0  503 -0.34284985778E+02  0.92336667741E+01  0.24951715076E+02  0.43397107474E+02  0.00000000000E+00 0.  1.
</event>
<event>
 4    1  0.1820060E+004  0.2773236E+02  0.7546771E-02  0.1440387E+00
         21   -1    0    0  501  502  0.00000000000E+00  0.00000000000E+00  0.35373500479E+02  0.35373500479E+02  0.00000000000E+00 0.  1.
         21   -1    0    0  502  503 -0.00000000000E+00 -0.00000000000E+00 -0.21746922940E+02  0.21746922940E+02  0.00000000000E+00 0. -1.
          2    1    1    2  501    0 -0.22316909306E+02 -0.16463273335E+02  0.63752245211E+01  0.28455707645E+02  0.00000000000E+00 0.  1.
         -2    1    1    2    0  503  0.22316909306E+02  0.16463273335E+02  0.72513530179E+01  0.28664715775E+02  0.00000000000E+00 0. -1.
</event>
<event>
 4    1  0.1820060E+004  0.3136909E+02  0.7546771E-02  0.1408061E+00
         21   -1    0    0  501  502  0.00000000000E+00  0.00000000000E+00  0.10490187954E+02  0.10490187954E+02  0.00000000000E+00 0. -1.
         21   -1    0    0  502  503 -0.00000000000E+00 -0.00000000000E+00 -0.23231519779E+03  0.23231519779E+03  0.00000000000E+00 0.  1.
          2    1    1    2  501    0  0.30770558988E+02  0.60985521556E+01 -0.17170930500E+02  0.35761159001E+02  0.00000000000E+00 0. -1.
         -2    1    1    2    0  503 -0.30770558988E+02 -0.60985521556E+01 -0.20465407934E+03  0.20704422674E+03  0.00000000000E+00 0.  1.
</event>
<event>
 4    1  0.1820060E+004  0.2090701E+02  0.7546771E-02  0.1520597E+00
         21   -1    0    0  503  502  0.00000000000E+00  0.00000000000E+00  0.42421669169E+02  0.42421669169E+02  0.00000000000E+00 0. -1.
         21   -1    0    0  501  503 -0.00000000000E+00 -0.00000000000E+00 -0.14185411951E+02  0.14185411951E+02  0.00000000000E+00 0.  1.
          2    1    1    2  501    0  0.20803081365E+02  0.20820099728E+01 -0.68753030931E+00  0.20918309151E+02  0.00000000000E+00 0.  1.
         -2    1    1    2    0  502 -0.20803081365E+02 -0.20820099728E+01  0.28923787527E+02  0.35688771969E+02  0.00000000000E+00 0. -1.
</event>
<event>
 4    1  0.1820060E+004  0.5344543E+02  0.7546771E-02  0.1283888E+00
         21   -1    0    0  503  502  0.00000000000E+00  0.00000000000E+00  0.85200539287E+02  0.85200539287E+02  0.00000000000E+00 0.  1.
         21   -1    0    0  501  503 -0.00000000000E+00 -0.00000000000E+00 -0.68667090786E+02  0.68667090786E+02  0.00000000000E+00 0. -1.
          2    1    1    2  501    0 -0.53320912070E+02  0.36461449936E+01 -0.46769921744E+02  0.71019994489E+02  0.00000000000E+00 0. -1.
         -2    1    1    2    0  502  0.53320912070E+02 -0.36461449936E+01  0.63303370245E+02  0.82847635583E+02  0.00000000000E+00 0.  1.
</event>
<event>
 4    1  0.1820060E+004  0.2480384E+02  0.7546771E-02  0.1471010E+00
         21   -1    0    0  501  502  0.00000000000E+00  0.00000000000E+00  0.15112324529E+02  0.15112324529E+02  0.00000000000E+00 0.  1.
         21   -1    0    0  502  503 -0.00000000000E+00 -0.00000000000E+00 -0.17632037373E+03  0.17632037373E+03  0.00000000000E+00 0. -1.
          2    1    1    2  501    0  0.24681802926E+02 -0.24574423747E+01  0.33382084443E+01  0.25027465999E+02  0.00000000000E+00 0.  1.
         -2    1    1    2    0  503 -0.24681802926E+02  0.24574423747E+01 -0.16454625765E+03  0.16640523226E+03  0.00000000000E+00 0. -1.
</event>
<event>
 4    1  0.1820060E+004  0.2359114E+02  0.7546771E-02  0.1485206E+00
         21   -1    0    0  503  502  0.00000000000E+00  0.00000000000E+00  0.24606462047E+03  0.24606462047E+03  0.00000000000E+00 0. -1.
         21   -1    0    0  501  503 -0.00000000000E+00 -0.00000000000E+00 -0.67510229683E+01  0.67510229683E+01  0.00000000000E+00 0.  1.
          2    1    1    2  501    0 -0.50095893267E-02 -0.23591140800E+02  0.16576392672E+02  0.28832598623E+02  0.00000000000E+00 0.  1.
         -2    1    1    2    0  502  0.50095893267E-02  0.23591140800E+02  0.22273720483E+03  0.22398304481E+03  0.00000000000E+00 0. -1.
</event>
<event>
 4    1  0.1820060E+004  0.2840360E+02  0.7546771E-02  0.1433996E+00
         21   -1    0    0  503  502  0.00000000000E+00  0.00000000000E+00  0.12371946630E+04  0.12371946630E+04  0.00000000000E+00 0. -1.
         21   -1    0    0  501  503 -0.00000000000E+00 -0.00000000000E+00 -0.69583285117E+01  0.69583285117E+01  0.00000000000E+00 0.  1.
          2    1    1    2  501    0 -0.11276097780E+02  0.26069404506E+02  0.22907167467E+02  0.36489759574E+02  0.00000000000E+00 0.  1.
         -2    1    1    2    0  502  0.11276097780E+02 -0.26069404506E+02  0.12073291670E+04  0.12076632319E+04  0.00000000000E+00 0. -1.
</event>
<event>
 4    1  0.1820060E+004  0.2435054E+02  0.7546771E-02  0.1476202E+00
         21   -1    0    0  503  502  0.00000000000E+00  0.00000000000E+00  0.15146814272E+03  0.15146814272E+03  0.00000000000E+00 0.  1.
         21   -1    0    0  501  503 -0.00000000000E+00 -0.00000000000E+00 -0.42569063347E+01  0.42569063347E+01  0.00000000000E+00 0. -1.
          2    1    1    2  501    0 -0.22781835836E+02 -0.85986357553E+01  0.51528560317E+02  0.56992465373E+02  0.00000000000E+00 0.  1.
         -2    1    1    2    0  502  0.22781835836E+02  0.85986357553E+01  0.95682676072E+02  0.98732583685E+02  0.00000000000E+00 0. -1.
</event>
<event>
 4    1  0.1820060E+004  0.2048456E+02  0.7546771E-02  0.1526753E+00
         21   -1    0    0  501  502  0.00000000000E+00  0.00000000000E+00  0.17308062635E+03  0.17308062635E+03  0.00000000000E+00 0. -1.
         21   -1    0    0  502  503 -0.00000000000E+00 -0.00000000000E+00 -0.35189083189E+02  0.35189083189E+02  0.00000000000E+00 0.  1.
          2    1    1    2  501    0  0.17896229925E+02  0.99670587611E+01  0.16942935212E+03  0.17066318485E+03  0.00000000000E+00 0. -1.
         -2    1    1    2    0  503 -0.17896229925E+02 -0.99670587611E+01 -0.31537808950E+02  0.37606524690E+02  0.00000000000E+00 0.  1.
</event>
<event>
 4    1  0.1820060E+004  0.2044500E+02  0.7546771E-02  0.1527338E+00
         21   -1    0    0  501  502  0.00000000000E+00  0.00000000000E+00  0.16732384897E+02  0.16732384897E+02  0.00000000000E+00 0. -1.
         21   -1    0    0  502  503 -0.00000000000E+00 -0.00000000000E+00 -0.30813478997E+02  0.30813478997E+02  0.00000000000E+00 0.  1.
          2    1    1    2  501    0 -0.33648493505E+01  0.20166202790E+02  0.33019424517E+01  0.20709919605E+02  0.00000000000E+00 0. -1.
         -2    1    1    2    0  503  0.33648493505E+01 -0.20166202790E+02 -0.17383036552E+02  0.26835944289E+02  0.00000000000E+00 0.  1.
</event>
<event>
 4    1  0.1820060E+004  0.4047268E+02  0.7546771E-02  0.1345738E+00
         21   -1    0    0  503  502  0.00000000000E+00  0.00000000000E+00  0.37420919952E+01  0.37420919952E+01  0.00000000000E+00 0.  1.
         21   -1    0    0  501  503 -0.00000000000E+00 -0.00000000000E+00 -0.70918588339E+03  0.70918588339E+03  0.00000000000E+00 0. -1.
          2    1    1    2  501    0 -0.38420458232E+02  0.12724237044E+02 -0.57325952802E+03  0.57468645737E+03  0.00000000000E+00 0. -1.
         -2    1    1    2    0  502  0.38420458232E+02 -0.12724237044E+02 -0.13218426338E+03  0.13824151802E+03  0.00000000000E+00 0.  1.
</event>
<event>
 4    1  0.1820060E+004  0.2263132E+02  0.7546771E-02  0.1497180E+00
         21   -1    0    0  501  502  0.00000000000E+00  0.00000000000E+00  0.58663827619E+01  0.58663827619E+01  0.00000000000E+00 0. -1.
         21   -1    0    0  502  503 -0.00000000000E+00 -0.00000000000E+00 -0.14025349678E+03  0.14025349678E+03  0.00000000000E+00 0.  1.
          2    1    1    2  501    0  0.12788768390E+02 -0.18671471229E+02 -0.22304449822E+02  0.31775224887E+02  0.00000000000E+00 0. -1.
         -2    1    1    2    0  503 -0.12788768390E+02  0.18671471229E+02 -0.11208266419E+03  0.11434465465E+03  0.00000000000E+00 0.  1.
</event>
<event>
 4    1  0.1820060E+004  0.2582777E+02  0.7546771E-02  0.1459752E+00
         21   -1    0    0  503  502  0.00000000000E+00  0.00000000000E+00  0.21706762952E+03  0.21706762952E+03  0.00000000000E+00 0. -1.
         21   -1    0    0  501  503 -0.00000000000E+00 -0.00000000000E+00 -0.34370050989E+01  0.34370050989E+01  0.00000000000E+00 0.  1.
          2    1    1    2  501    0 -0.18560059365E+02  0.17961014223E+02  0.70941078944E+02  0.75496427183E+02  0.00000000000E+00 0.  1.
         -2    1    1    2    0  502  0.18560059365E+02 -0.17961014223E+02  0.14268954548E+03  0.14500820744E+03  0.00000000000E+00 0. -1.
</event>
<event>
 4    1  0.1820060E+004  0.8961711E+02  0.7546771E-02  0.1183128E+00
         21   -1    0    0  503  502  0.00000000000E+00  0.00000000000E+00  0.91217655425E+02  0.91217655425E+02  0.00000000000E+00 0. -1.
         21   -1    0    0  501  503 -0.00000000000E+00 -0.00000000000E+00 -0.34990219833E+03  0.34990219833E+03  0.00000000000E+00 0.  1.
          2    1    1    2  501    0 -0.78453693481E+02 -0.43315642295E+02 -0.32014554401E+03  0.33245209615E+03  0.00000000000E+00 0.  1.
         -2    1    1    2    0  502  0.78453693481E+02  0.43315642295E+02  0.61461001096E+02  0.10866775761E+03  0.00000000000E+00 0. -1.
</event>
<event>
 4    1  0.1820060E+004  0.2599142E+02  0.7546771E-02  0.1458011E+00
         21   -1    0    0  503  502  0.00000000000E+00  0.00000000000E+00  0.15180309504E+03  0.15180309504E+03  0.00000000000E+00 0.  1.
         21   -1    0    0  501  503 -0.00000000000E+00 -0.00000000000E+00 -0.20388907747E+02  0.20388907747E+02  0.00000000000E+00 0. -1.
          2    1    1    2  501    0  0.19000711432E+02 -0.17734906367E+02 -0.10415323914E+02  0.28000587690E+02  0.00000000000E+00 0. -1.
         -2    1    1    2    0  502 -0.19000711432E+02  0.17734906367E+02  0.14182951120E+03  0.14419141509E+03  0.00000000000E+00 0.  1.
</event>
<event>
 4    1  0.1820060E+004  0.2063222E+02  0.7546771E-02  0.1524581E+00
         21   -1    0    0  503  502  0.00000000000E+00  0.00000000000E+00  0.17424691269E+03  0.17424691269E+03  0.00000000000E+00 0.  1.
         21   -1    0    0  501  503 -0.00000000000E+00 -0.00000000000E+00 -0.24467908310E+01  0.24467908310E+01  0.00000000000E+00 0. -1.
          2    1    1    2  501    0  0.13677367771E+02 -0.15447263850E+02  0.89369222578E+02  0.91719934004E+02  0.00000000000E+00 0. -1.
         -2    1    1    2    0  502 -0.13677367771E+02  0.15447263850E+02  0.82430899283E+02  0.84973769519E+02  0.00000000000E+00 0.  1.
</event>
<event>
 4    1  0.1820060E+004  0.3262667E+02  0.7546771E-02  0.1398063E+00
         21   -1    0    0  501  502  0.00000000000E+00  0.00000000000E+00  0.11853737836E+03  0.11853737836E+03  0.00000000000E+00 0. -1.
         21   -1    0    0  502  503 -0.00000000000E+00 -0.00000000000E+00 -0.22419551242E+02  0.22419551242E+02  0.00000000000E+00 0.  1.
          2    1    1    2  501    0  0.30084859225E+02 -0.12625401709E+02  0.10262599747E+03  0.10768748711E+03  0.00000000000E+00 0. -1.
         -2    1    1    2    0  503 -0.30084859225E+02  0.12625401709E+02 -0.65081703479E+01  0.33269442499E+02  0.00000000000E+00 0.  1.
</event>
<event>
 4    1  0.1820060E+004  0.5280840E+02  0.7546771E-02  0.1286435E+00
         21   -1    0    0  503  502  0.00000000000E+00  0.00000000000E+00  0.29603053249E+02  0.29603053249E+02  0.00000000000E+00 0. -1.
         21   -1    0    0  501  503 -0.00000000000E+00 -0.00000000000E+00 -0.16114751779E+03  0.16114751779E+03  0.00000000000E+00 0.  1.
          2    1    1    2  501    0 -0.44859062855E+02 -0.27863813029E+02 -0.12724434423E+03  0.13776737907E+03  0.00000000000E+00 0.  1.
         -2    1    1    2    0  502  0.44859062855E+02  0.27863813029E+02 -0.43001203116E+01  0.52983191971E+02  0.00000000000E+00 0. -1.
</event>
<event>
 4    1  0.1820060E+004  0.2755906E+02  0.7546771E-02  0.1442072E+00
         21   -1    0    0  501  502  0.00000000000E+00  0.00000000000E+00  0.10413954640E+02  0.10413954640E+02  0.00000000000E+00 0. -1.
         21   -1    0    0  502  503 -0.00000000000E+00 -0.00000000000E+00 -0.78013176988E+02  0.78013176988E+02  0.00000000000E+00 0.  1.
          2    1    1    2  501    0 -0.22800062036E+02 -0.15480930014E+02 -0.22514946227E+02  0.35586863118E+02  0.00000000000E+00 0. -1.
         -2    1    1    2    0  503  0.22800062036E+02  0.15480930014E+02 -0.45084276120E+02  0.52840268510E+02  0.00000000000E+00 0.  1.
</event>
<event>
 4    1  0.1820060E+004  0.2805991E+02  0.7546771E-02  0.1437242E+00
         21   -1    0    0  503  502  0.00000000000E+00  0.00000000000E+00  0.62216091083E+01  0.62216091083E+01  0.00000000000E+00 0. -1.
         21   -1    0    0  501  503 -0.00000000000E+00 -0.00000000000E+00 -0.12693436545E+03  0.12693436545E+03  0.00000000000E+00 0.  1.
          2    1    1    2  501    0  0.25324386590E+02 -0.12084448534E+02 -0.56703336046E+02  0.63266316246E+02  0.00000000000E+00 0.  1.
         -2    1    1    2    0  502 -0.25324386590E+02  0.12084448534E+02 -0.64009420294E+02  0.69889658311E+02  0.00000000000E+00 0. -1.
</event>
<event>
 4    1  0.1820060E+004  0.2053516E+02  0.7546771E-02  0.1526006E+00
         21   -1    0    0  503  502  0.00000000000E+00  0.00000000000E+00  0.26679230762E+01  0.26679230762E+01  0.00000000000E+00 0.  1.
         21   -1    0    0  501  503 -0.00000000000E+00 -0.00000000000E+00 -0.20520374205E+03  0.20520374205E+03  0.00000000000E+00 0. -1.
          2    1    1    2  501    0 -0.96127138586E+01  0.18146314163E+02 -0.15108551509E+03  0.15247467283E+03  0.00000000000E+00 0. -1.
         -2    1    1    2    0  502  0.96127138586E+01 -0.18146314163E+02 -0.51450303885E+02  0.55396992295E+02  0.00000000000E+00 0.  1.
</event>
<event>
 4    1  0.1820060E+004  0.3038191E+02  0.7546771E-02  0.1416306E+00
         21   -1    0    0  501  502  0.00000000000E+00  0.00000000000E+00  0.41663632015E+01  0.41663632015E+01  0.00000000000E+00 0. -1.
         21   -1    0    0  502  503 -0.00000000000E+00 -0.00000000000E+00 -0.31822057268E+03  0.31822057268E+03  0.00000000000E+00 0.  1.
          2    1    1    2  501    0 -0.27304272516E+02 -0.13324317704E+02 -0.68182950909E+02  0.74645666549E+02  0.00000000000E+00 0. -1.
         -2    1    1    2    0  503  0.27304272516E+02  0.13324317704E+02 -0.24587125857E+03  0.24774126933E+03  0.00000000000E+00 0.  1.
</event>
<event>
 4    1  0.1820060E+004  0.2261726E+02  0.7546771E-02  0.1497361E+00
         21   -1    0    0  501  502  0.00000000000E+00  0.00000000000E+00  0.15307517725E+02  0.15307517725E+02  0.00000000000E+00 0.  1.
         21   -1    0    0  502  503 -0.00000000000E+00 -0.00000000000E+00 -0.33492011586E+02  0.33492011586E+02  0.00000000000E+00 0. -1.
          2    1    1    2  501    0 -0.17044939733E+02  0.14866420017E+02 -0.10242391422E+02  0.24828350663E+02  0.00000000000E+00 0.  1.
         -2    1    1    2    0  503  0.17044939733E+02 -0.14866420017E+02 -0.79421024386E+01  0.23971178648E+02  0.00000000000E+00 0. -1.
</event>
<event>
 4    1  0.1820060E+004  0.2150037E+02  0.7546771E-02  0.1512239E+00
         21   -1    0    0  501  502  0.00000000000E+00  0.00000000000E+00  0.31840336716E+02  0.31840336716E+02  0.00000000000E+00 0. -1.
         21   -1    0    0  502  503 -0.00000000000E+00 -0.00000000000E+00 -0.16113271362E+02  0.16113271362E+02  0.00000000000E+00 0.  1.
          2    1    1    2  501    0  0.40999065056E+01 -0.21105842616E+02  0.15407213332E+02  0.26450861017E+02  0.00000000000E+00 0.  1.
         -2    1    1    2    0  503 -0.40999065056E+01  0.21105842616E+02  0.31985202304E+00  0.21502747061E+02  0.00000000000E+00 0. -1.
</event>
<event>
 4    1  0.1820060E+004  0.2120911E+02  0.7546771E-02  0.1516300E+00
         21   -1    0    0  501  502  0.00000000000E+00  0.00000000000E+00  0.67200177794E+01  0.67200177794E+01  0.00000000000E+00 0. -1.
         21   -1    0    0  502  503 -0.00000000000E+00 -0.00000000000E+00 -0.66941724593E+02  0.66941724593E+02  0.00000000000E+00 0.  1.
          2    1    1    2  501    0  0.83680065701E+01 -0.19488528095E+02 -0.30376024207E+02  0.37047659952E+02  0.00000000000E+00 0. -1.
         -2    1    1    2    0  503 -0.83680065701E+01  0.19488528095E+02 -0.29845682607E+02  0.36614082421E+02  0.00000000000E+00 0.  1.
</event>
<event>
 4    1  0.1820060E+004  0.2136465E+02  0.7546771E-02  0.1514122E+00
         21   -1    0    0  501  502  0.00000000000E+00  0.00000000000E+00  0.37917567542E+02  0.37917567542E+02  0.00000000000E+00 0.  1.
         21   -1    0    0  502  503 -0.00000000000E+00 -0.00000000000E+00 -0.30235527145E+02  0.30235527145E+02  0.00000000000E+00 0. -1.
          2    1    1    2  501    0  0.16844881100E+02  0.13141472903E+02  0.30277526138E+02  0.37056401854E+02  0.00000000000E+00 0.  1.
         -2    1    1    2    0  503 -0.16844881100E+02 -0.13141472903E+02 -0.22595485740E+02  0.31096692834E+02  0.00000000000E+00 0. -1.
</event>
<event>
 4    1  0.1820060E+004  0.2004670E+02  0.7546771E-02  0.1533323E+00
         21   -1    0    0  501  502  0.00000000000E+00  0.00000000000E+00  0.48447595389E+02  0.48447595389E+02  0.00000000000E+00 0. -1.
         21   -1    0    0  502  503 -0.00000000000E+00 -0.00000000000E+00 -0.28331859196E+02  0.28331859196E+02  0.00000000000E+00 0.  1.
          2    1    1    2  501    0 -0.18807295620E+02 -0.69394321000E+01  0.42342283049E+02  0.46848041797E+02  0.00000000000E+00 0. -1.
         -2    1    1    2    0  503  0.18807295620E+02  0.69394321000E+01 -0.22226546856E+02  0.29931412789E+02  0.00000000000E+00 0.  1.
</event>
<event>
 4    1  0.1820060E+004  0.2767064E+02  0.7546771E-02  0.1440985E+00
         21   -1    0    0  503  502  0.00000000000E+00  0.00000000000E+00  0.51456922619E+01  0.51456922619E+01  0.00000000000E+00 0. -1.
         21   -1    0    0  501  503 -0.00000000000E+00 -0.00000000000E+00 -0.18936629568E+03  0.18936629568E+03  0.00000000000E+00 0.  1.
          2    1    1    2  501    0  0.11234947323E+02  0.25287154863E+02 -0.13712590461E+03  0.13988987796E+03  0.00000000000E+00 0.  1.
         -2    1    1    2    0  502 -0.11234947323E+02 -0.25287154863E+02 -0.47094698815E+02  0.54622109982E+02  0.00000000000E+00 0. -1.
</event>
<event>
 4    1  0.1820060E+004  0.4404083E+02  0.7546771E-02  0.1326306E+00
         21   -1    0    0  501  502  0.00000000000E+00  0.00000000000E+00  0.21846775440E+03  0.21846775440E+03  0.00000000000E+00 0.  1.
         21   -1    0    0  502  503 -0.00000000000E+00 -0.00000000000E+00 -0.16398717495E+02  0.16398717495E+02  0.00000000000E+00 0. -1.
          2    1    1    2  501    0 -0.24633890467E+02 -0.36507068417E+02  0.18056080752E+03  0.18585424347E+03  0.00000000000E+00 0.  1.
         -2    1    1    2    0  503  0.24633890467E+02  0.36507068417E+02  0.21508229388E+02  0.49012228427E+02  0.00000000000E+00 0. -1.
</event>
<event>
 4    1  0.1820060E+004  0.2008351E+02  0.7546771E-02  0.1532763E+00
         21   -1    0    0  501  502  0.00000000000E+00  0.00000000000E+00  0.16046899624E+02  0.16046899624E+02  0.00000000000E+00 0. -1.
         21   -1    0    0  502  503 -0.00000000000E+00 -0.00000000000E+00 -0.28279558411E+02  0.28279558411E+02  0.00000000000E+00 0.  1.
          2    1    1    2  501    0 -0.18891702672E+01 -0.19994459518E+02  0.12735907144E+01  0.20123851744E+02  0.00000000000E+00 0. -1.
         -2    1    1    2    0  503  0.18891702672E+01  0.19994459518E+02 -0.13506249501E+02  0.24202606291E+02  0.00000000000E+00 0.  1.
</event>
<event>
 4    1  0.1820060E+004  0.3125225E+02  0.7546771E-02  0.1409018E+00
         21   -1    0    0  501  502  0.00000000000E+00  0.00000000000E+00  0.30124103692E+02  0.30124103692E+02  0.00000000000E+00 0. -1.
         21   -1    0    0  502  503 -0.00000000000E+00 -0.00000000000E+00 -0.10754048230E+03  0.10754048230E+03  0.00000000000E+00 0.  1.
          2    1    1    2  501    0  0.20369262685E+02  0.23702244744E+02  0.18819611382E+02  0.36481242315E+02  0.00000000000E+00 0. -1.
         -2    1    1    2    0  503 -0.20369262685E+02 -0.23702244744E+02 -0.96235989995E+02  0.10118334368E+03  0.00000000000E+00 0.  1.
</event>
<event>
 4    1  0.1820060E+004  0.3153851E+02  0.7546771E-02  0.1406682E+00
         21   -1    0    0  503  502  0.00000000000E+00  0.00000000000E+00  0.46935354788E+01  0.46935354788E+01  0.00000000000E+00 0. -1.
         21   -1    0    0  501  503 -0.00000000000E+00 -0.00000000000E+00 -0.21296933432E+03  0.21296933432E+03  0.00000000000E+00 0.  1.
          2    1    1    2  501    0  0.14065643165E+02  0.28228269068E+02 -0.96516824697E+02  0.10153903162E+03  0.00000000000E+00 0. -1.
         -2    1    1    2    0  502 -0.14065643165E+02 -0.28228269068E+02 -0.11175897415E+03  0.11612383819E+03  0.00000000000E+00 0.  1.
</event>
<event>
 4    1  0.1820060E+004  0.2340872E+02  0.7546771E-02  0.1487429E+00
         21   -1    0    0  503  502  0.00000000000E+00  0.00000000000E+00  0.28730987934E+03  0.28730987934E+03  0.00000000000E+00 0. -1.
         21   -1    0    0  501  503 -0.00000000000E+00 -0.00000000000E+00 -0.20079219352E+01  0.20079219352E+01  0.00000000000E+00 0.  1.
          2    1    1    2  501    0  0.14525310235E+02  0.18357117500E+02  0.11025797404E+03  0.11271552351E+03  0.00000000000E+00 0.  1.
         -2    1    1    2    0  502 -0.14525310235E+02 -0.18357117500E+02  0.17504398336E+03  0.17660227776E+03  0.00000000000E+00 0. -1.
</event>
<event>
 4    1  0.1820060E+004  0.2138318E+02  0.7546771E-02  0.1513864E+00
         21   -1    0    0  503  502  0.00000000000E+00  0.00000000000E+00  0.11013118313E+02  0.11013118313E+02  0.00000000000E+00 0. -1.
         21   -1    0    0  501  503 -0.00000000000E+00 -0.00000000000E+00 -0.43933709075E+02  0.43933709075E+02  0.00000000000E+00 0.  1.
          2    1    1    2  501    0 -0.18027126210E+02  0.11500560592E+02 -0.22902821508E+02  0.31333359321E+02  0.00000000000E+00 0. -1.
         -2    1    1    2    0  502  0.18027126210E+02 -0.11500560592E+02 -0.10017769254E+02  0.23613468067E+02  0.00000000000E+00 0.  1.
</event>
<event>
 4    1  0.1820060E+004  0.2407249E+02  0.7546771E-02  0.1479453E+00
         21   -1    0    0  501  502  0.00000000000E+00  0.00000000000E+00  0.80931340118E+03  0.80931340118E+03  0.00000000000E+00 0.  1.
         21   -1    0    0  502  503 -0.00000000000E+00 -0.00000000000E+00 -0.71868367304E+00  0.71868367304E+00  0.00000000000E+00 0. -1.
          2    1    1    2  501    0  0.37195054479E+01 -0.23783399622E+02  0.42895320638E+03  0.42962813930E+03  0.00000000000E+00 0.  1.
         -2    1    1    2    0  503 -0.37195054479E+01  0.23783399622E+02  0.37964151113E+03  0.38040394555E+03  0.00000000000E+00 0. -1.
</event>
<event>
 4    1  0.1820060E+004  0.2170555E+02  0.7546771E-02  0.1509425E+00
         21   -1    0    0  503  502  0.00000000000E+00  0.00000000000E+00  0.25232433702E+01  0.25232433702E+01  0.00000000000E+00 0.  1.
         21   -1    0    0  501  503 -0.00000000000E+00 -0.00000000000E+00 -0.18697076975E+03  0.18697076975E+03  0.00000000000E+00 0. -1.
          2    1    1    2  501    0  0.19090349258E+02 -0.10329057915E+02 -0.95718600810E+02  0.98148771838E+02  0.00000000000E+00 0.  1.
         -2    1    1    2    0  502 -0.19090349258E+02  0.10329057915E+02 -0.88728925567E+02  0.91345241280E+02  0.00000000000E+00 0. -1.
</event>
<event>
 4    1  0.1820060E+004  0.2332354E+02  0.7546771E-02  0.1488475E+00
         21   -1    0    0  503  502  0.00000000000E+00  0.00000000000E+00  0.40674547295E+03  0.40674547295E+03  0.00000000000E+00 0.  1.
         21   -1    0    0  501  503 -0.00000000000E+00 -0.00000000000E+00 -0.22813426509E+02  0.22813426509E+02  0.00000000000E+00 0. -1.
          2    1    1    2  501    0 -0.12478165453E+02  0.19704896155E+02 -0.16422730913E+02  0.28525315707E+02  0.00000000000E+00 0. -1.
         -2    1    1    2    0  502  0.12478165453E+02 -0.19704896155E+02  0.40035477736E+03  0.40103358376E+03  0.00000000000E+00 0.  1.
</event>
<event>
 4    1  0.1820060E+004  0.2238066E+02  0.7546771E-02  0.1500425E+00
         21   -1    0    0  503  502  0.00000000000E+00  0.00000000000E+00  0.33934595314E+03  0.33934595314E+03  0.00000000000E+00 0. -1.
         21   -1    0    0  501  503 -0.00000000000E+00 -0.00000000000E+00 -0.20099237330E+01  0.20099237330E+01  0.00000000000E+00 0.  1.
          2    1    1    2  501    0  0.63437150008E+00 -0.22371671535E+02  0.80704240444E+02  0.83750036060E+02  0.00000000000E+00 0.  1.
         -2    1    1    2    0  502 -0.63437150008E+00  0.22371671535E+02  0.25663178896E+03  0.25760584081E+03  0.00000000000E+00 0. -1.
</event>
<event>
 4    1  0.1820060E+004  0.2366848E+02  0.7546771E-02  0.1484270E+00
         21   -1    0    0  503  502  0.00000000000E+00  0.00000000000E+00  0.20237258470E+03  0.20237258470E+03  0.00000000000E+00 0.  1.
         21   -1    0    0  501  503 -0.00000000000E+00 -0.00000000000E+00 -0.35569064310E+02  0.35569064310E+02  0.00000000000E+00 0. -1.
          2    1    1    2  501    0  0.17519755858E+02  0.15913995632E+02 -0.30845881592E+02  0.38880142920E+02  0.00000000000E+00 0. -1.
         -2    1    1    2    0  502 -0.17519755858E+02 -0.15913995632E+02  0.19764940198E+03  0.19906150609E+03  0.00000000000E+00 0.  1.
</event>
<event>
 4    1  0.1820060E+004  0.2412388E+02  0.7546771E-02  0.1478848E+00
         21   -1    0    0  501  502  0.00000000000E+00  0.00000000000E+00  0.12275497269E+03  0.12275497269E+03  0.00000000000E+00 0.  1.
         21   -1    0    0  502  503 -0.00000000000E+00 -0.00000000000E+00 -0.52275808295E+01  0.52275808295E+01  0.00000000000E+00 0. -1.
          2    1    1    2  501    0 -0.23671896417E+02  0.46478746296E+01  0.78290009233E+02  0.81922444814E+02  0.00000000000E+00 0.  1.
         -2    1    1    2    0  503  0.23671896417E+02 -0.46478746296E+01  0.39237382626E+02  0.46060108705E+02  0.00000000000E+00 0. -1.
</event>
<event>
 4    1  0.1820060E+004  0.4913733E+02  0.7546771E-02  0.1301957E+00
         21   -1    0    0  501  502  0.00000000000E+00  0.00000000000E+00  0.32666641336E+02  0.32666641336E+02  0.00000000000E+00 0.  1.
         21   -1    0    0  502  503 -0.00000000000E+00 -0.00000000000E+00 -0.12676255230E+03  0.12676255230E+03  0.00000000000E+00 0. -1.
          2    1    1    2  501    0 -0.13290392669E+02  0.47305840255E+02  0.44232787781E+01  0.49336015796E+02  0.00000000000E+00 0.  1.
         -2    1    1    2    0  503  0.13290392669E+02 -0.47305840255E+02 -0.98519189746E+02  0.11009317784E+03  0.00000000000E+00 0. -1.
</event>
<event>
 4    1  0.1820060E+004  0.2927759E+02  0.7546771E-02  0.1425980E+00
         21   -1    0    0  503  502  0.00000000000E+00  0.00000000000E+00  0.13715853587E+03  0.13715853587E+03  0.00000000000E+00 0.  1.
         21   -1    0    0  501  503 -0.00000000000E+00 -0.00000000000E+00 -0.62636334979E+01  0.62636334979E+01  0.00000000000E+00 0. -1.
          2    1    1    2  501    0 -0.27055757423E+02  0.11187644334E+02  0.68849362958E+02  0.74815855106E+02  0.00000000000E+00 0.  1.
         -2    1    1    2    0  502  0.27055757423E+02 -0.11187644334E+02  0.62045539414E+02  0.68606314262E+02  0.00000000000E+00 0. -1.
</event>
<event>
 4    1  0.1820060E+004  0.3563192E+02  0.7546771E-02  0.1376174E+00
         21   -1    0    0  503  502  0.00000000000E+00  0.00000000000E+00  0.67714643007E+00  0.67714643007E+00  0.00000000000E+00 0.  1.
         21   -1    0    0  501  503 -0.00000000000E+00 -0.00000000000E+00 -0.18750668973E+04  0.18750668973E+04  0.00000000000E+00 0. -1.
          2    1    1    2  501    0 -0.26321258354E+02  0.24017184630E+02 -0.94369858066E+03  0.94437103139E+03  0.00000000000E+00 0.  1.
         -2    1    1    2    0  502  0.26321258354E+02 -0.24017184630E+02 -0.93069117021E+03  0.93137301233E+03  0.00000000000E+00 0. -1.
</event>
<event>
 4    1  0.1820060E+004  0.2441275E+02  0.7546771E-02  0.1475481E+00
         21   -1    0    0  501  502  0.00000000000E+00  0.00000000000E+00  0.40073523667E+02  0.40073523667E+02  0.00000000000E+00 0. -1.
         21   -1    0    0  502  503 -0.00000000000E+00 -0.00000000000E+00 -0.25493999351E+02  0.25493999351E+02  0.00000000000E+00 0.  1.
          2    1    1    2  501    0 -0.19211133016E+02 -0.15063695025E+02  0.28450864700E+02  0.37489121645E+02  0.00000000000E+00 0. -1.
         -2    1    1    2    0  503  0.19211133016E+02  0.15063695025E+02 -0.13871340385E+02  0.28078401372E+02  0.00000000000E+00 0.  1.
</event>
<event>
 4    1  0.1820060E+004  0.3701115E+02  0.7546771E-02  0.1366950E+00
         21   -1    0    0  501  502  0.00000000000E+00  0.00000000000E+00  0.13285612065E+03  0.13285612065E+03  0.00000000000E+00 0.  1.
         21   -1    0    0  502  503 -0.00000000000E+00 -0.00000000000E+00 -0.11452436241E+02  0.11452436241E+02  0.00000000000E+00 0. -1.
          2    1    1    2  501    0 -0.32661698155E+02 -0.17408009428E+02  0.83485134825E+02  0.91321372391E+02  0.00000000000E+00 0.  1.
         -2    1    1    2    0  503  0.32661698155E+02  0.17408009428E+02  0.37918549581E+02  0.52987184497E+02  0.00000000000E+00 0. -1.
</event>
<event>
 4    1  0.1820060E+004  0.2585223E+02  0.7546771E-02  0.1459491E+00
         21   -1    0    0  501  502  0.00000000000E+00  0.00000000000E+00  0.12610220541E+02  0.12610220541E+02  0.00000000000E+00 0. -1.
         21   -1    0    0  502  503 -0.00000000000E+00 -0.00000000000E+00 -0.12637585493E+03  0.12637585493E+03  0.00000000000E+00 0.  1.
          2    1    1    2  501    0 -0.20017468697E+01  0.25774619779E+02 -0.39302899548E+01  0.26149286690E+02  0.00000000000E+00 0. -1.
         -2    1    1    2    0  503  0.20017468697E+01 -0.25774619779E+02 -0.10983534444E+03  0.11283678879E+03  0.00000000000E+00 0.  1.
</event>
<event>
 4    1  0.1820060E+004  0.2431479E+02  0.7546771E-02  0.1476617E+00
         21   -1    0    0  503  502  0.00000000000E+00  0.00000000000E+00  0.19395594572E+02  0.19395594572E+02  0.00000000000E+00 0. -1.
         21   -1    0    0  501  503 -0.00000000000E+00 -0.00000000000E+00 -0.31308821654E+02  0.31308821654E+02  0.00000000000E+00 0.  1.
          2    1    1    2  501    0  0.20728536081E+02  0.12709718221E+02 -0.10077475828E+02  0.26320422952E+02  0.00000000000E+00 0.  1.
         -2    1    1    2    0  502 -0.20728536081E+02 -0.12709718221E+02 -0.18357512532E+01  0.24383993274E+02  0.00000000000E+00 0. -1.
</event>
<event>
 4    1  0.1820060E+004  0.2838662E+02  0.7546771E-02  0.1434155E+00
         21   -1    0    0  503  502  0.00000000000E+00  0.00000000000E+00  0.26041420075E+01  0.26041420075E+01  0.00000000000E+00 0.  1.
         21   -1    0    0  501  503 -0.00000000000E+00 -0.00000000000E+00 -0.34629622344E+03  0.34629622344E+03  0.00000000000E+00 0. -1.
          2    1    1    2  501    0  0.25074972126E+02  0.13305854260E+02 -0.22876554972E+03  0.23052001372E+03  0.00000000000E+00 0. -1.
         -2    1    1    2    0  502 -0.25074972126E+02 -0.13305854260E+02 -0.11492653171E+03  0.11838035173E+03  0.00000000000E+00 0.  1.
</event>
<event>
 4    1  0.1820060E+004  0.2026252E+02  0.7546771E-02  0.1530060E+00
         21   -1    0    0  501  502  0.00000000000E+00  0.00000000000E+00  0.19247740973E+03  0.19247740973E+03  0.00000000000E+00 0.  1.
         21   -1    0    0  502  503 -0.00000000000E+00 -0.00000000000E+00 -0.54467696268E+01  0.54467696268E+01  0.00000000000E+00 0. -1.
          2    1    1    2  501    0 -0.12400655915E+02 -0.16024777407E+02  0.17070429126E+03  0.17190266086E+03  0.00000000000E+00 0.  1.
         -2    1    1    2    0  503  0.12400655915E+02  0.16024777407E+02  0.16326348843E+02  0.26021518492E+02  0.00000000000E+00 0. -1.
</event>
<event>
 4    1  0.1820060E+004  0.3054148E+02  0.7546771E-02  0.1414948E+00
         21   -1    0    0  503  502  0.00000000000E+00  0.00000000000E+00  0.10950974789E+01  0.10950974789E+01  0.00000000000E+00 0.  1.
         21   -1    0    0  501  503 -0.00000000000E+00 -0.00000000000E+00 -0.11862675939E+04  0.11862675939E+04  0.00000000000E+00 0. -1.
          2    1    1    2  501    0 -0.29787663253E+02 -0.67436597769E+01 -0.90783418684E+03  0.90834778176E+03  0.00000000000E+00 0. -1.
         -2    1    1    2    0  502  0.29787663253E+02  0.67436597769E+01 -0.27733830954E+03  0.27901490958E+03  0.00000000000E+00 0.  1.
</event>
<event>
 4    1  0.1820060E+004  0.2684152E+02  0.7546771E-02  0.1449207E+00
         21   -1    0    0  503  502  0.00000000000E+00  0.00000000000E+00  0.76445888554E+01  0.76445888554E+01  0.00000000000E+00 0. -1.
         21   -1    0    0  501  503 -0.00000000000E+00 -0.00000000000E+00 -0.97398943686E+02  0.97398943686E+02  0.00000000000E+00 0.  1.
          2    1    1    2  501    0 -0.11547979607E+02 -0.24230381114E+02 -0.54327852213E+02  0.60596887115E+02  0.00000000000E+00 0.  1.
         -2    1    1    2    0  502  0.11547979607E+02  0.24230381114E+02 -0.35426502617E+02  0.44446645426E+02  0.00000000000E+00 0. -1.
</event>
<event>
 4    1  0.1820060E+004  0.2413150E+02  0.7546771E-02  0.1478758E+00
         21   -1    0    0  501  502  0.00000000000E+00  0.00000000000E+00  0.36885805460E+01  0.36885805460E+01  0.00000000000E+00 0.  1.
         21   -1    0    0  502  503 -0.00000000000E+00 -0.00000000000E+00 -0.21757965864E+03  0.21757965864E+03  0.00000000000E+00 0. -1.
          2    1    1    2  501    0 -0.23502846432E+02  0.54722549071E+01 -0.48990758725E+02  0.54611572076E+02  0.00000000000E+00 0.  1.
         -2    1    1    2    0  503  0.23502846432E+02 -0.54722549071E+01 -0.16490031937E+03  0.16665666711E+03  0.00000000000E+00 0. -1.
</event>
<event>
 4    1  0.1820060E+004  0.2918068E+02  0.7546771E-02  0.1426852E+00
         21   -1    0    0  501  502  0.00000000000E+00  0.00000000000E+00  0.85251247883E+02  0.85251247883E+02  0.00000000000E+00 0.  1.
         21   -1    0    0  502  503 -0.00000000000E+00 -0.00000000000E+00 -0.13364267776E+02  0.13364267776E+02  0.00000000000E+00 0. -1.
          2    1    1    2  501    0 -0.28466199937E+02  0.64177427493E+01  0.60725934356E+02  0.67373222160E+02  0.00000000000E+00 0.  1.
         -2    1    1    2    0  503  0.28466199937E+02 -0.64177427493E+01  0.11161045751E+02  0.31242293499E+02  0.00000000000E+00 0. -1.
</event>
<event>
 4    1  0.1820060E+004  0.2099115E+02  0.7546771E-02  0.1519391E+00
         21   -1    0    0  503  502  0.00000000000E+00  0.00000000000E+00  0.19150724921E+01  0.19150724921E+01  0.00000000000E+00 0. -1.
         21   -1    0    0  501  503 -0.00000000000E+00 -0.00000000000E+00 -0.47519877130E+03  0.47519877130E+03  0.00000000000E+00 0.  1.
          2    1    1    2  501    0 -0.20875719791E+02 -0.21983054705E+01 -0.40797397118E+03  0.40851363427E+03  0.00000000000E+00 0.  1.
         -2    1    1    2    0  502  0.20875719791E+02  0.21983054705E+01 -0.65309727630E+02  0.68600209525E+02  0.00000000000E+00 0. -1.
</event>
<event>
 4    1  0.1820060E+004  0.2028557E+02  0.7546771E-02  0.1529714E+00
         21   -1    0    0  501  502  0.00000000000E+00  0.00000000000E+00  0.43612490872E+01  0.43612490872E+01  0.00000000000E+00 0. -1.
         21   -1    0    0  502  503 -0.00000000000E+00 -0.00000000000E+00 -0.99616422644E+02  0.99616422644E+02  0.00000000000E+00 0.  1.
          2    1    1    2  501    0  0.14778396658E+02 -0.13896165095E+02 -0.35679234929E+02  0.41042809568E+02  0.00000000000E+00 0.  1.
         -2    1    1    2    0  503 -0.14778396658E+02  0.13896165095E+02 -0.59575938628E+02  0.62934862164E+02  0.00000000000E+00 0. -1.
</event>
<event>
 4    1  0.1820060E+004  0.2486260E+02  0.7546771E-02  0.1470346E+00
         21   -1    0    0  501  502  0.00000000000E+00  0.00000000000E+00  0.10329394881E+01  0.10329394881E+01  0.00000000000E+00 0. -1.
         21   -1    0    0  502  503 -0.00000000000E+00 -0.00000000000E+00 -0.95606126781E+03  0.95606126781E+03  0.00000000000E+00 0.  1.
          2    1    1    2  501    0 -0.16919749151E+02 -0.18217332829E+02 -0.18483259904E+03  0.18649728898E+03  0.00000000000E+00 0. -1.
         -2    1    1    2    0  503  0.16919749151E+02  0.18217332829E+02 -0.77019572928E+03  0.77059691832E+03  0.00000000000E+00 0.  1.
</event>
<event>
 4    1  0.1820060E+004  0.2012530E+02  0.7546771E-02  0.1532129E+00
         21   -1    0    0  503  502  0.00000000000E+00  0.00000000000E+00  0.33843213226E+03  0.33843213226E+03  0.00000000000E+00 0.  1.
         21   -1    0    0  501  503 -0.00000000000E+00 -0.00000000000E+00 -0.12282639794E+01  0.12282639794E+01  0.00000000000E+00 0. -1.
          2    1    1    2  501    0  0.19956218388E+02  0.26032627785E+01  0.14141013963E+03  0.14283506299E+03  0.00000000000E+00 0. -1.
         -2    1    1    2    0  502 -0.19956218388E+02 -0.26032627785E+01  0.19579372864E+03  0.19682533324E+03  0.00000000000E+00 0.  1.
</event>
<event>
 4    1  0.1820060E+004  0.2114610E+02  0.7546771E-02  0.1517189E+00
         21   -1    0    0  501  502  0.00000000000E+00  0.00000000000E+00  0.10040610889E+02  0.10040610889E+02  0.00000000000E+00 0. -1.
         21   -1    0    0  502  503 -0.00000000000E+00 -0.00000000000E+00 -0.90147221008E+02  0.90147221008E+02  0.00000000000E+00 0.  1.
          2    1    1    2  501    0 -0.14855876905E+02 -0.15048605473E+02 -0.44205095419E+01  0.21603206010E+02  0.00000000000E+00 0. -1.
         -2    1    1    2    0  503  0.14855876905E+02  0.15048605473E+02 -0.75686100577E+02  0.78584625887E+02  0.00000000000E+00 0.  1.
</event>
<event>
 4    1  0.1820060E+004  0.2580410E+02  0.7546771E-02  0.1460006E+00
         21   -1    0    0  503  502  0.00000000000E+00  0.00000000000E+00  0.10130325283E+02  0.10130325283E+02  0.00000000000E+00 0. -1.
         21   -1    0    0  501  503 -0.00000000000E+00 -0.00000000000E+00 -0.18322274507E+03  0.18322274507E+03  0.00000000000E+00 0.  1.
          2    1    1    2  501    0  0.24678489078E+02 -0.75381425860E+01 -0.16396379523E+03  0.16598185914E+03  0.00000000000E+00 0.  1.
         -2    1    1    2    0  502 -0.24678489078E+02  0.75381425860E+01 -0.91286245491E+01  0.27371211207E+02  0.00000000000E+00 0. -1.
</event>
<event>
 4    1  0.1820060E+004  0.2827572E+02  0.7546771E-02  0.1435198E+00
         21   -1    0    0  503  502  0.00000000000E+00  0.00000000000E+00  0.20030982579E+01  0.20030982579E+01  0.00000000000E+00 0. -1.
         21   -1    0    0  501  503 -0.00000000000E+00 -0.00000000000E+00 -0.71560866726E+03  0.71560866726E+03  0.00000000000E+00 0.  1.
          2    1    1    2  501    0  0.27615899032E+02 -0.60727716588E+01 -0.11819358283E+03  0.12152875979E+03  0.00000000000E+00 0. -1.
         -2    1    1    2    0  502 -0.27615899032E+02  0.60727716588E+01 -0.59541198617E+03  0.59608300572E+03  0.00000000000E+00 0.  1.
</event>
<event>
 4    1  0.1820060E+004  0.2351848E+02  0.7546771E-02  0.1486088E+00
         21   -1    0    0  503  502  0.00000000000E+00  0.00000000000E+00  0.52877174610E+01  0.52877174610E+01  0.00000000000E+00 0.  1.
         21   -1    0    0  501  503 -0.00000000000E+00 -0.00000000000E+00 -0.10801311872E+03  0.10801311872E+03  0.00000000000E+00 0. -1.
          2    1    1    2  501    0 -0.91337841630E+01 -0.21672395900E+02 -0.61426396400E+02  0.65774774283E+02  0.00000000000E+00 0. -1.
         -2    1    1    2    0  502  0.91337841630E+01  0.21672395900E+02 -0.41299004856E+02  0.47526061895E+02  0.00000000000E+00 0.  1.
</event>
<event>
 4    1  0.1820060E+004  0.3302973E+02  0.7546771E-02  0.1394970E+00
         21   -1    0    0  503  502  0.00000000000E+00  0.00000000000E+00  0.94856568272E+03  0.94856568272E+03  0.00000000000E+00 0. -1.
         21   -1    0    0  501  503 -0.00000000000E+00 -0.00000000000E+00 -0.15512387182E+01  0.15512387182E+01  0.00000000000E+00 0.  1.
          2    1    1    2  501    0  0.24902687969E+02  0.21698371480E+02  0.23193618070E+03  0.23427623676E+03  0.00000000000E+00 0.  1.
         -2    1    1    2    0  502 -0.24902687969E+02 -0.21698371480E+02  0.71507826330E+03  0.71584068468E+03  0.00000000000E+00 0. -1.
</event>
<event>
 4    1  0.1820060E+004  0.2136741E+02  0.7546771E-02  0.1514083E+00
         21   -1    0    0  503  502  0.00000000000E+00  0.00000000000E+00  0.61831478640E+02  0.61831478640E+02  0.00000000000E+00 0. -1.
         21   -1    0    0  501  503 -0.00000000000E+00 -0.00000000000E+00 -0.20058786324E+02  0.20058786324E+02  0.00000000000E+00 0.  1.
          2    1    1    2  501    0  0.15342435807E+02 -0.14871985708E+02 -0.11661296685E+02  0.24342393797E+02  0.00000000000E+00 0.  1.
         -2    1    1    2    0  502 -0.15342435807E+02  0.14871985708E+02  0.53433989001E+02  0.57547871168E+02  0.00000000000E+00 0. -1.
</event>
<event>
 4    1  0.1820060E+004  0.3405962E+02  0.7546771E-02  0.1387298E+00
         21   -1    0    0  501  502  0.00000000000E+00  0.00000000000E+00  0.10118173004E+02  0.10118173004E+02  0.00000000000E+00 0.  1.
         21   -1    0    0  502  503 -0.00000000000E+00 -0.00000000000E+00 -0.12537733030E+03  0.12537733030E+03  0.00000000000E+00 0. -1.
          2    1    1    2  501    0  0.12961042879E+02 -0.31497128395E+02 -0.37813723970E+02  0.50891408412E+02  0.00000000000E+00 0.  1.
         -2    1    1    2    0  503 -0.12961042879E+02  0.31497128395E+02 -0.77445433324E+02  0.84604094891E+02  0.00000000000E+00 0. -1.
</event>
<event>
 4    1  0.1820060E+004  0.2931055E+02  0.7546771E-02  0.1425684E+00
         21   -1    0    0  503  502  0.00000000000E+00  0.00000000000E+00  0.15288553822E+03  0.15288553822E+03  0.00000000000E+00 0.  1.
         21   -1    0    0  501  503 -0.00000000000E+00 -0.00000000000E+00 -0.19619912875E+02  0.19619912875E+02  0.00000000000E+00 0. -1.
          2    1    1    2  501    0 -0.10034344863E+02 -0.27539435142E+02 -0.62286574152E+01  0.29965058618E+02  0.00000000000E+00 0. -1.
         -2    1    1    2    0  502  0.10034344863E+02  0.27539435142E+02  0.13949428276E+03  0.14254039248E+03  0.00000000000E+00 0.  1.
</event>
<event>
 4    1  0.1820060E+004  0.2394851E+02  0.7546771E-02  0.1480919E+00
         21   -1    0    0  501  502  0.00000000000E+00  0.00000000000E+00  0.16031922107E+02  0.16031922107E+02  0.00000000000E+00 0.  1.
         21   -1    0    0  502  503 -0.00000000000E+00 -0.00000000000E+00 -0.80545863076E+02  0.80545863076E+02  0.00000000000E+00 0. -1.
          2    1    1    2  501    0  0.19013115067E+02  0.14561333234E+02  0.37450355492E+01  0.24239559843E+02  0.00000000000E+00 0.  1.
         -2    1    1    2    0  503 -0.19013115067E+02 -0.14561333234E+02 -0.68258976518E+02  0.72338225340E+02  0.00000000000E+00 0. -1.
</event>
<event>
 4    1  0.1820060E+004  0.2118682E+02  0.7546771E-02  0.1516614E+00
         21   -1    0    0  503  502  0.00000000000E+00  0.00000000000E+00  0.59473789601E+02  0.59473789601E+02  0.00000000000E+00 0. -1.
         21   -1    0    0  501  503 -0.00000000000E+00 -0.00000000000E+00 -0.94972701398E+02  0.94972701398E+02  0.00000000000E+00 0.  1.
          2    1    1    2  501    0 -0.18037052425E+02 -0.11115129551E+02 -0.91840694045E+02  0.94252821962E+02  0.00000000000E+00 0.  1.
         -2    1    1    2    0  502  0.18037052425E+02  0.11115129551E+02  0.56341782249E+02  0.60193669036E+02  0.00000000000E+00 0. -1.
</event>
<event>
 4    1  0.1820060E+004  0.3612384E+02  0.7546771E-02  0.1372830E+00
         21   -1    0    0  501  502  0.00000000000E+00  0.00000000000E+00  0.92419653211E+02  0.92419653211E+02  0.00000000000E+00 0.  1.
         21   -1    0    0  502  503 -0.00000000000E+00 -0.00000000000E+00 -0.88934634493E+02  0.88934634493E+02  0.00000000000E+00 0. -1.
          2    1    1    2  501    0  0.36106309589E+02 -0.11252428016E+01  0.84910595737E+02  0.92275354413E+02  0.00000000000E+00 0.  1.
         -2    1    1    2    0  503 -0.36106309589E+02  0.11252428016E+01 -0.81425577019E+02  0.89078933291E+02  0.00000000000E+00 0. -1.
</event>
<event>
 4    1  0.1820060E+004  0.2018726E+02  0.7546771E-02  0.1531192E+00
         21   -1    0    0  501  502  0.00000000000E+00  0.00000000000E+00  0.12395380898E+01  0.12395380898E+01  0.00000000000E+00 0. -1.
         21   -1    0    0  502  503 -0.00000000000E+00 -0.00000000000E+00 -0.48148431408E+03  0.48148431408E+03  0.00000000000E+00 0.  1.
          2    1    1    2  501    0  0.18114636814E+02  0.89098594123E+01 -0.10419266258E+03  0.10613028125E+03  0.00000000000E+00 0. -1.
         -2    1    1    2    0  503 -0.18114636814E+02 -0.89098594123E+01 -0.37605211341E+03  0.37659357092E+03  0.00000000000E+00 0.  1.
</event>
<event>
 4    1  0.1820060E+004  0.2094732E+02  0.7546771E-02  0.1520018E+00
         21   -1    0    0  501  502  0.00000000000E+00  0.00000000000E+00  0.24062384201E+01  0.24062384201E+01  0.00000000000E+00 0. -1.
         21   -1    0    0  502  503 -0.00000000000E+00 -0.00000000000E+00 -0.18399364495E+03  0.18399364495E+03  0.00000000000E+00 0.  1.
          2    1    1    2  501    0  0.15520429918E+02  0.14067921898E+02 -0.99588495480E+02  0.10176766973E+03  0.00000000000E+00 0.  1.
         -2    1    1    2    0  503 -0.15520429918E+02 -0.14067921898E+02 -0.81998911048E+02  0.84632213633E+02  0.00000000000E+00 0. -1.
</event>
<event>
 4    1  0.1820060E+004  0.2120149E+02  0.7546771E-02  0.1516407E+00
         21   -1    0    0  501  502  0.00000000000E+00  0.00000000000E+00  0.20739393423E+01  0.20739393423E+01  0.00000000000E+00 0.  1.
         21   -1    0    0  502  503 -0.00000000000E+00 -0.00000000000E+00 -0.24467829161E+03  0.24467829161E+03  0.00000000000E+00 0. -1.
          2    1    1    2  501    0  0.92991269923E+01  0.19053329510E+02 -0.16299320448E+03  0.16436632208E+03  0.00000000000E+00 0. -1.
         -2    1    1    2    0  503 -0.92991269923E+01 -0.19053329510E+02 -0.79611147789E+02  0.82385908871E+02  0.00000000000E+00 0.  1.
</event>
<event>
 4    1  0.1820060E+004  0.4230765E+02  0.7546771E-02  0.1335469E+00
         21   -1    0    0  501  502  0.00000000000E+00  0.00000000000E+00  0.22202193897E+03  0.22202193897E+03  0.00000000000E+00 0. -1.
         21   -1    0    0  502  503 -0.00000000000E+00 -0.00000000000E+00 -0.12016697205E+02  0.12016697205E+02  0.00000000000E+00 0.  1.
          2    1    1    2  501    0  0.17523613460E+02 -0.38507928076E+02  0.17213351679E+03  0.17725655180E+03  0.00000000000E+00 0. -1.
         -2    1    1    2    0  503 -0.17523613460E+02  0.38507928076E+02  0.37871724977E+02  0.56782084377E+02  0.00000000000E+00 0.  1.
</event>
<event>
 4    1  0.1820060E+004  0.2094949E+02  0.7546771E-02  0.1519987E+00
         21   -1    0    0  503  502  0.00000000000E+00  0.00000000000E+00  0.29726950886E+03  0.29726950886E+03  0.00000000000E+00 0. -1.
         21   -1    0    0  501  503 -0.00000000000E+00 -0.00000000000E+00 -0.15837006696E+01  0.15837006696E+01  0.00000000000E+00 0.  1.
          2    1    1    2  501    0 -0.12610615597E+02 -0.16728825026E+02  0.18674236486E+03  0.18791378887E+03  0.00000000000E+00 0. -1.
         -2    1    1    2    0  502  0.12610615597E+02  0.16728825026E+02  0.10894344333E+03  0.11093942066E+03  0.00000000000E+00 0.  1.
</event>
<event>
 4    1  0.1820060E+004  0.2308819E+02  0.7546771E-02  0.1491394E+00
         21   -1    0    0  501  502  0.00000000000E+00  0.00000000000E+00  0.40633498986E+03  0.40633498986E+03  0.00000000000E+00 0. -1.
         21   -1    0    0  502  503 -0.00000000000E+00 -0.00000000000E+00 -0.13320348855E+01  0.13320348855E+01  0.00000000000E+00 0.  1.
          2    1    1    2  501    0  0.19952613490E+02  0.11617132369E+02  0.22757181283E+03  0.22874001518E+03  0.00000000000E+00 0.  1.
         -2    1    1    2    0  503 -0.19952613490E+02 -0.11617132369E+02  0.17743114215E+03  0.17892700957E+03  0.00000000000E+00 0. -1.
</event>
<event>
 4    1  0.1820060E+004  0.2009370E+02  0.7546771E-02  0.1532608E+00
         21   -1    0    0  503  502  0.00000000000E+00  0.00000000000E+00  0.35071181083E+03  0.35071181083E+03  0.00000000000E+00 0.  1.
         21   -1    0    0  501  503 -0.00000000000E+00 -0.00000000000E+00 -0.15298005004E+01  0.15298005004E+01  0.00000000000E+00 0. -1.
          2    1    1    2  501    0 -0.16817526051E+02  0.10996710135E+02  0.86980651901E+02  0.89271443482E+02  0.00000000000E+00 0. -1.
         -2    1    1    2    0  502  0.16817526051E+02 -0.10996710135E+02  0.26220135842E+03  0.26297016784E+03  0.00000000000E+00 0.  1.
</event>
<event>
 4    1  0.1820060E+004  0.2210120E+02  0.7546771E-02  0.1504104E+00
         21   -1    0    0  503  502  0.00000000000E+00  0.00000000000E+00  0.22001767198E+03  0.22001767198E+03  0.00000000000E+00 0. -1.
         21   -1    0    0  501  503 -0.00000000000E+00 -0.00000000000E+00 -0.63848760542E+01  0.63848760542E+01  0.00000000000E+00 0.  1.
          2    1    1    2  501    0 -0.21556799516E+02  0.48751786355E+01  0.15390234865E+02  0.26931808355E+02  0.00000000000E+00 0.  1.
         -2    1    1    2    0  502  0.21556799516E+02 -0.48751786355E+01  0.19824256106E+03  0.19947073968E+03  0.00000000000E+00 0. -1.
</event>
<event>
 4    1  0.1820060E+004  0.2541788E+02  0.7546771E-02  0.1464182E+00
         21   -1    0    0  501  502  0.00000000000E+00  0.00000000000E+00  0.17999276235E+02  0.17999276235E+02  0.00000000000E+00 0. -1.
         21   -1    0    0  502  503 -0.00000000000E+00 -0.00000000000E+00 -0.40271367913E+02  0.40271367913E+02  0.00000000000E+00 0.  1.
          2    1    1    2  501    0  0.18668585409E+02  0.17249716113E+02 -0.15305334989E+01  0.25463921928E+02  0.00000000000E+00 0. -1.
         -2    1    1    2    0  503 -0.18668585409E+02 -0.17249716113E+02 -0.20741558178E+02  0.32806722220E+02  0.00000000000E+00 0.  1.
</event>
<event>
 4    1  0.1820060E+004  0.2090660E+02  0.7546771E-02  0.1520603E+00
         21   -1    0    0  503  502  0.00000000000E+00  0.00000000000E+00  0.74347525228E+01  0.74347525228E+01  0.00000000000E+00 0.  1.
         21   -1    0    0  501  503 -0.00000000000E+00 -0.00000000000E+00 -0.59951585250E+02  0.59951585250E+02  0.00000000000E+00 0. -1.
          2    1    1    2  501    0  0.73177388863E+01 -0.19584087858E+02 -0.30949250288E+02  0.37348920908E+02  0.00000000000E+00 0. -1.
         -2    1    1    2    0  502 -0.73177388863E+01  0.19584087858E+02 -0.21567582439E+02  0.30037416865E+02  0.00000000000E+00 0.  1.
</event>
<event>
 4    1  0.1820060E+004  0.2787847E+02  0.7546771E-02  0.1438978E+00
         21   -1    0    0  503  502  0.00000000000E+00  0.00000000000E+00  0.19567013513E+01  0.19567013513E+01  0.00000000000E+00 0. -1.
         21   -1    0    0  501  503 -0.00000000000E+00 -0.00000000000E+00 -0.12372119669E+04  0.12372119669E+04  0.00000000000E+00 0.  1.
          2    1    1    2  501    0  0.25255400292E+02  0.11805672410E+02 -0.11281563021E+04  0.11285007094E+04  0.00000000000E+00 0.  1.
         -2    1    1    2    0  502 -0.25255400292E+02 -0.11805672410E+02 -0.10709896347E+03  0.11066795887E+03  0.00000000000E+00 0. -1.
</event>
<event>
 4    1  0.1820060E+004  0.2505177E+02  0.7546771E-02  0.1468225E+00
         21   -1    0    0  503  502  0.00000000000E+00  0.00000000000E+00  0.10170918037E+02  0.10170918037E+02  0.00000000000E+00 0.  1.
         21   -1    0    0  501  503 -0.00000000000E+00 -0.00000000000E+00 -0.74348443741E+02  0.74348443741E+02  0.00000000000E+00 0. -1.
          2    1    1    2  501    0 -0.16008895620E+02 -0.19269318771E+02 -0.49516122563E+02  0.55492682207E+02  0.00000000000E+00 0. -1.
         -2    1    1    2    0  502  0.16008895620E+02  0.19269318771E+02 -0.14661403141E+02  0.29026679571E+02  0.00000000000E+00 0.  1.
</event>
<event>
 4    1  0.1820060E+004  0.2410104E+02  0.7546771E-02  0.1479117E+00
         21   -1    0    0  501  502  0.00000000000E+00  0.00000000000E+00  0.42076222300E+01  0.42076222300E+01  0.00000000000E+00 0. -1.
         21   -1    0    0  502  503 -0.00000000000E+00 -0.00000000000E+00 -0.51392980745E+03  0.51392980745E+03  0.00000000000E+00 0.  1.
          2    1    1    2  501    0 -0.19406169009E+02 -0.14291982002E+02 -0.33302879501E+02  0.41108903272E+02  0.00000000000E+00 0. -1.
         -2    1    1    2    0  503  0.19406169009E+02  0.14291982002E+02 -0.47641930572E+03  0.47702852641E+03  0.00000000000E+00 0.  1.
</event>
<event>
 4    1  0.1820060E+004  0.2909470E+02  0.7546771E-02  0.1427630E+00
         21   -1    0    0  501  502  0.00000000000E+00  0.00000000000E+00  0.79242940663E+02  0.79242940663E+02  0.00000000000E+00 0.  1.
         21   -1    0    0  502  503 -0.00000000000E+00 -0.00000000000E+00 -0.10783449844E+02  0.10783449844E+02  0.00000000000E+00 0. -1.
          2    1    1    2  501    0 -0.25289233891E+02  0.14385966297E+02  0.29871403281E+02  0.41698946162E+02  0.00000000000E+00 0.  1.
         -2    1    1    2    0  503  0.25289233891E+02 -0.14385966297E+02  0.38588087539E+02  0.48327444345E+02  0.00000000000E+00 0. -1.
</event>
<event>
 4    1  0.1820060E+004  0.2108660E+02  0.7546771E-02  0.1518032E+00
         21   -1    0    0  501  502  0.00000000000E+00  0.00000000000E+00  0.22005725839E+03  0.22005725839E+03  0.00000000000E+00 0. -1.
         21   -1    0    0  502  503 -0.00000000000E+00 -0.00000000000E+00 -0.23160755220E+01  0.23160755220E+01  0.00000000000E+00 0.  1.
          2    1    1    2  501    0 -0.13361466971E+02 -0.16313052969E+02  0.14858497194E+03  0.15007377647E+03  0.00000000000E+00 0. -1.
         -2    1    1    2    0  503  0.13361466971E+02  0.16313052969E+02  0.69156210929E+02  0.72299557446E+02  0.00000000000E+00 0.  1.
</event>
<event>
 4    1  0.1820060E+004  0.3836223E+02  0.7546771E-02  0.1358360E+00
         21   -1    0    0  501  502  0.00000000000E+00  0.00000000000E+00  0.40287828263E+01  0.40287828263E+01  0.00000000000E+00 0.  1.
         21   -1    0    0  502  503 -0.00000000000E+00 -0.00000000000E+00 -0.36703706144E+03  0.36703706144E+03  0.00000000000E+00 0. -1.
          2    1    1    2  501    0 -0.63148133587E+01  0.37838916204E+02 -0.19431682733E+03  0.19806738710E+03  0.00000000000E+00 0. -1.
         -2    1    1    2    0  503  0.63148133587E+01 -0.37838916204E+02 -0.16869145128E+03  0.17299845717E+03  0.00000000000E+00 0.  1.
</event>
<event>
 4    1  0.1820060E+004  0.2722449E+02  0.7546771E-02  0.1445366E+00
         21   -1    0    0  501  502  0.00000000000E+00  0.00000000000E+00  0.10117399777E+02  0.10117399777E+02  0.00000000000E+00 0.  1.
         21   -1    0    0  502  503 -0.00000000000E+00 -0.00000000000E+00 -0.80066896291E+02  0.80066896291E+02  0.00000000000E+00 0. -1.
          2    1    1    2  501    0  0.13729762023E+02 -0.23508857388E+02 -0.21824402921E+02  0.34892367414E+02  0.00000000000E+00 0.  1.
         -2    1    1    2    0  503 -0.13729762023E+02  0.23508857388E+02 -0.48125093592E+02  0.55291928653E+02  0.00000000000E+00 0. -1.
</event>
<event>
 4    1  0.1820060E+004  0.2332002E+02  0.7546771E-02  0.1488518E+00
         21   -1    0    0  503  502  0.00000000000E+00  0.00000000000E+00  0.14236108334E+03  0.14236108334E+03  0.00000000000E+00 0.  1.
         21   -1    0    0  501  503 -0.00000000000E+00 -0.00000000000E+00 -0.48838817863E+01  0.48838817863E+01  0.00000000000E+00 0. -1.
          2    1    1    2  501    0 -0.18938692441E+02 -0.13606954470E+02  0.10309984805E+03  0.10570431377E+03  0.00000000000E+00 0.  1.
         -2    1    1    2    0  502  0.18938692441E+02  0.13606954470E+02  0.34377353505E+02  0.41540651360E+02  0.00000000000E+00 0. -1.
</event>
<event>
 4    1  0.1820060E+004  0.2196652E+02  0.7546771E-02  0.1505900E+00
         21   -1    0    0  503  502  0.00000000000E+00  0.00000000000E+00  0.83073214982E+00  0.83073214982E+00  0.00000000000E+00 0. -1.
         21   -1    0    0  501  503 -0.00000000000E+00 -0.00000000000E+00 -0.12151655250E+04  0.12151655250E+04  0.00000000000E+00 0.  1.
          2    1    1    2  501    0  0.20791991253E+02 -0.70866824742E+01 -0.10464442774E+04  0.10466748080E+04  0.00000000000E+00 0.  1.
         -2    1    1    2    0  502 -0.20791991253E+02  0.70866824742E+01 -0.16789051540E+03  0.16932144912E+03  0.00000000000E+00 0. -1.
</event>
<event>
 4    1  0.1820060E+004  0.2305847E+02  0.7546771E-02  0.1491765E+00
         21   -1    0    0  503  502  0.00000000000E+00  0.00000000000E+00  0.50156948351E+01  0.50156948351E+01  0.00000000000E+00 0. -1.
         21   -1    0    0  501  503 -0.00000000000E+00 -0.00000000000E+00 -0.10827151972E+03  0.10827151972E+03  0.00000000000E+00 0.  1.
          2    1    1    2  501    0 -0.41419667862E+01 -0.22683411987E+02 -0.59821812748E+02  0.64111951683E+02  0.00000000000E+00 0.  1.
         -2    1    1    2    0  502  0.41419667862E+01  0.22683411987E+02 -0.43434012140E+02  0.49175262875E+02  0.00000000000E+00 0. -1.
</event>
<event>
 4    1  0.1820060E+004  0.2142087E+02  0.7546771E-02  0.1513340E+00
         21   -1    0    0  503  502  0.00000000000E+00  0.00000000000E+00  0.88714414346E+02  0.88714414346E+02  0.00000000000E+00 0.  1.
         21   -1    0    0  501  503 -0.00000000000E+00 -0.00000000000E+00 -0.57292594513E+01  0.57292594513E+01  0.00000000000E+00 0. -1.
          2    1    1    2  501    0  0.51071359178E+01  0.20803140480E+02  0.26768661641E+02  0.34284322031E+02  0.00000000000E+00 0.  1.
         -2    1    1    2    0  502 -0.51071359178E+01 -0.20803140480E+02  0.56216493254E+02  0.60159351766E+02  0.00000000000E+00 0. -1.
</event>
<event>
 4    1  0.1820060E+004  0.2235881E+02  0.7546771E-02  0.1500710E+00
         21   -1    0    0  501  502  0.00000000000E+00  0.00000000000E+00  0.66841726692E+01  0.66841726692E+01  0.00000000000E+00 0. -1.
         21   -1    0    0  502  503 -0.00000000000E+00 -0.00000000000E+00 -0.76902605733E+02  0.76902605733E+02  0.00000000000E+00 0.  1.
          2    1    1    2  501    0 -0.96241430107E+01 -0.20181488039E+02 -0.28183993158E+02  0.35975742640E+02  0.00000000000E+00 0.  1.
         -2    1    1    2    0  503  0.96241430107E+01  0.20181488039E+02 -0.42034439906E+02  0.47611035762E+02  0.00000000000E+00 0. -1.
</event>
<event>
 4    1  0.1820060E+004  0.2648542E+02  0.7546771E-02  0.1452847E+00
         21   -1    0    0  503  502  0.00000000000E+00  0.00000000000E+00  0.11053536419E+02  0.11053536419E+02  0.00000000000E+00 0. -1.
         21   -1    0    0  501  503 -0.00000000000E+00 -0.00000000000E+00 -0.79353449135E+02  0.79353449135E+02  0.00000000000E+00 0.  1.
          2    1    1    2  501    0 -0.43043453678E+01  0.26133309502E+02 -0.54378920787E+02  0.60485901502E+02  0.00000000000E+00 0.  1.
         -2    1    1    2    0  502  0.43043453678E+01 -0.26133309502E+02 -0.13920991929E+02  0.29921084052E+02  0.00000000000E+00 0. -1.
</event>
<event>
 4    1  0.1820060E+004  0.2211449E+02  0.7546771E-02  0.1503927E+00
         21   -1    0    0  501  502  0.00000000000E+00  0.00000000000E+00  0.64365167183E+03  0.64365167183E+03  0.00000000000E+00 0.  1.
         21   -1    0    0  502  503 -0.00000000000E+00 -0.00000000000E+00 -0.75989285777E+00  0.75989285777E+00  0.00000000000E+00 0. -1.
          2    1    1    2  501    0  0.35908575575E+01  0.21821010606E+02  0.31801220903E+03  0.31878019991E+03  0.00000000000E+00 0. -1.
         -2    1    1    2    0  503 -0.35908575575E+01 -0.21821010606E+02  0.32487956994E+03  0.32563136478E+03  0.00000000000E+00 0.  1.
</event>
<event>
 4    1  0.1820060E+004  0.2032748E+02  0.7546771E-02  0.1529087E+00
         21   -1    0    0  503  502  0.00000000000E+00  0.00000000000E+00  0.23812578350E+03  0.23812578350E+03  0.00000000000E+00 0.  1.
         21   -1    0    0  501  503 -0.00000000000E+00 -0.00000000000E+00 -0.26010251054E+01  0.26010251054E+01  0.00000000000E+00 0. -1.
          2    1    1    2  501    0  0.13529663908E+02  0.15170847407E+02  0.48319749483E+02  0.52421413627E+02  0.00000000000E+00 0.  1.
         -2    1    1    2    0  502 -0.13529663908E+02 -0.15170847407E+02  0.18720500891E+03  0.18830539498E+03  0.00000000000E+00 0. -1.
</event>
<event>
 4    1  0.1820060E+004  0.2347802E+02  0.7546771E-02  0.1486581E+00
         21   -1    0    0  503  502  0.00000000000E+00  0.00000000000E+00  0.39806079023E+01  0.39806079023E+01  0.00000000000E+00 0.  1.
         21   -1    0    0  501  503 -0.00000000000E+00 -0.00000000000E+00 -0.14290733732E+03  0.14290733732E+03  0.00000000000E+00 0. -1.
          2    1    1    2  501    0 -0.16556963803E+02 -0.16645854321E+02 -0.56530034173E+02  0.61211618832E+02  0.00000000000E+00 0.  1.
         -2    1    1    2    0  502  0.16556963803E+02  0.16645854321E+02 -0.82396695244E+02  0.85676326389E+02  0.00000000000E+00 0. -1.
</event>
<event>
 4    1  0.1820060E+004  0.5775626E+02  0.7546771E-02  0.1267653E+00
         21   -1    0    0  503  502  0.00000000000E+00  0.00000000000E+00  0.73274064548E+02  0.73274064548E+02  0.00000000000E+00 0.  1.
         21   -1    0    0  501  503 -0.00000000000E+00 -0.00000000000E+00 -0.91296884996E+02  0.91296884996E+02  0.00000000000E+00 0. -1.
          2    1    1    2  501    0 -0.41702558769E+02  0.39958499505E+02 -0.67274790760E+02  0.88666129735E+02  0.00000000000E+00 0. -1.
         -2    1    1    2    0  502  0.41702558769E+02 -0.39958499505E+02  0.49251970312E+02  0.75904819809E+02  0.00000000000E+00 0.  1.
</event>
<event>
 4    1  0.1820060E+004  0.2879323E+02  0.7546771E-02  0.1430381E+00
         21   -1    0    0  501  502  0.00000000000E+00  0.00000000000E+00  0.45763506540E+01  0.45763506540E+01  0.00000000000E+00 0.  1.
         21   -1    0    0  502  503 -0.00000000000E+00 -0.00000000000E+00 -0.62030110535E+03  0.62030110535E+03  0.00000000000E+00 0. -1.
          2    1    1    2  501    0  0.77568475423E+01 -0.27728715589E+02 -0.44977397625E+02  0.53404275570E+02  0.00000000000E+00 0.  1.
         -2    1    1    2    0  503 -0.77568475423E+01  0.27728715589E+02 -0.57074735707E+03  0.57147318044E+03  0.00000000000E+00 0. -1.
</event>
<event>
 4    1  0.1820060E+004  0.2600741E+02  0.7546771E-02  0.1457842E+00
         21   -1    0    0  503  502  0.00000000000E+00  0.00000000000E+00  0.72773332187E+02  0.72773332187E+02  0.00000000000E+00 0.  1.
         21   -1    0    0  501  503 -0.00000000000E+00 -0.00000000000E+00 -0.25371088042E+02  0.25371088042E+02  0.00000000000E+00 0. -1.
          2    1    1    2  501    0 -0.13592606037E+02  0.22172653480E+02 -0.15361749950E+02  0.30205444257E+02  0.00000000000E+00 0. -1.
         -2    1    1    2    0  502  0.13592606037E+02 -0.22172653480E+02  0.62763994096E+02  0.67938975972E+02  0.00000000000E+00 0.  1.
</event>
<event>
 4    1  0.1820060E+004  0.2177917E+02  0.7546771E-02  0.1508425E+00
         21   -1    0    0  501  502  0.00000000000E+00  0.00000000000E+00  0.75361637319E+02  0.75361637319E+02  0.00000000000E+00 0. -1.
         21   -1    0    0  502  503 -0.00000000000E+00 -0.00000000000E+00 -0.14860016873E+02  0.14860016873E+02  0.00000000000E+00 0.  1.
          2    1    1    2  501    0 -0.20787102348E+02  0.64983712217E+01  0.64500644916E+02  0.68078378706E+02  0.00000000000E+00 0. -1.
         -2    1    1    2    0  503  0.20787102348E+02 -0.64983712217E+01 -0.39990244697E+01  0.22143275486E+02  0.00000000000E+00 0.  1.
</event>
<event>
 4    1  0.1820060E+004  0.2129834E+02  0.7546771E-02  0.1515048E+00
         21   -1    0    0  501  502  0.00000000000E+00  0.00000000000E+00  0.17380881189E+02  0.17380881189E+02  0.00000000000E+00 0.  1.
         21   -1    0    0  502  503 -0.00000000000E+00 -0.00000000000E+00 -0.46255245339E+02  0.46255245339E+02  0.00000000000E+00 0. -1.
          2    1    1    2  501    0 -0.18756920329E+02  0.10089453279E+02  0.65667617381E+01  0.22287698118E+02  0.00000000000E+00 0. -1.
         -2    1    1    2    0  503  0.18756920329E+02 -0.10089453279E+02 -0.35441125888E+02  0.41348428409E+02  0.00000000000E+00 0.  1.
</event>
<event>
 4    1  0.1820060E+004  0.3255154E+02  0.7546771E-02  0.1398645E+00
         21   -1    0    0  503  502  0.00000000000E+00  0.00000000000E+00  0.30066034223E+03  0.30066034223E+03  0.00000000000E+00 0. -1.
         21   -1    0    0  501  503 -0.00000000000E+00 -0.00000000000E+00 -0.41720696797E+01  0.41720696797E+01  0.00000000000E+00 0.  1.
          2    1    1    2  501    0 -0.61156233486E+01 -0.31971896524E+02  0.20830361258E+03  0.21083168175E+03  0.00000000000E+00 0. -1.
         -2    1    1    2    0  502  0.61156233486E+01  0.31971896524E+02  0.88184659973E+02  0.94000730161E+02  0.00000000000E+00 0.  1.
</event>
<event>
 4    1  0.1820060E+004  0.2287914E+02  0.7546771E-02  0.1494021E+00
         21   -1    0    0  501  502  0.00000000000E+00  0.00000000000E+00  0.38873380791E+01  0.38873380791E+01  0.00000000000E+00 0.  1.
         21   -1    0    0  502  503 -0.00000000000E+00 -0.00000000000E+00 -0.14947692046E+03  0.14947692046E+03  0.00000000000E+00 0. -1.
          2    1    1    2  501    0  0.15926743383E+02 -0.16425399291E+02 -0.96940448163E+02  0.99603741831E+02  0.00000000000E+00 0.  1.
         -2    1    1    2    0  503 -0.15926743383E+02  0.16425399291E+02 -0.48649134221E+02  0.53760516712E+02  0.00000000000E+00 0. -1.
</event>
<event>
 4    1  0.1820060E+004  0.2007538E+02  0.7546771E-02  0.1532887E+00
         21   -1    0    0  501  502  0.00000000000E+00  0.00000000000E+00  0.11764286063E+04  0.11764286063E+04  0.00000000000E+00 0. -1.
         21   -1    0    0  502  503 -0.00000000000E+00 -0.00000000000E+00 -0.15849116572E+01  0.15849116572E+01  0.00000000000E+00 0.  1.
          2    1    1    2  501    0  0.17720075760E+02 -0.94350230670E+01  0.11089005175E+04  0.11090822235E+04  0.00000000000E+00 0. -1.
         -2    1    1    2    0  503 -0.17720075760E+02  0.94350230670E+01  0.65943177091E+02  0.68931294418E+02  0.00000000000E+00 0.  1.
</event>
<event>
 4    1  0.1820060E+004  0.2142883E+02  0.7546771E-02  0.1513230E+00
         21   -1    0    0  501  502  0.00000000000E+00  0.00000000000E+00  0.26539923542E+02  0.26539923542E+02  0.00000000000E+00 0.  1.
         21   -1    0    0  502  503 -0.00000000000E+00 -0.00000000000E+00 -0.21299040401E+02  0.21299040401E+02  0.00000000000E+00 0. -1.
          2    1    1    2  501    0  0.16115838948E+02 -0.14123542891E+02  0.12982332849E+02  0.25054654159E+02  0.00000000000E+00 0.  1.
         -2    1    1    2    0  503 -0.16115838948E+02  0.14123542891E+02 -0.77414497085E+01  0.22784309785E+02  0.00000000000E+00 0. -1.
</event>
<event>
 4    1  0.1820060E+004  0.2634527E+02  0.7546771E-02  0.1454298E+00
         21   -1    0    0  503  502  0.00000000000E+00  0.00000000000E+00  0.15916096589E+02  0.15916096589E+02  0.00000000000E+00 0.  1.
         21   -1    0    0  501  503 -0.00000000000E+00 -0.00000000000E+00 -0.16555167253E+03  0.16555167253E+03  0.00000000000E+00 0. -1.
          2    1    1    2  501    0 -0.62564107845E+01  0.25591614433E+02 -0.15268988611E+03  0.15494603811E+03  0.00000000000E+00 0. -1.
         -2    1    1    2    0  502  0.62564107845E+01 -0.25591614433E+02  0.30543101687E+01  0.26521731011E+02  0.00000000000E+00 0.  1.
</event>
<event>
 4    1  0.1820060E+004  0.2880059E+02  0.7546771E-02  0.1430314E+00
         21   -1    0    0  501  502  0.00000000000E+00  0.00000000000E+00  0.92493135850E+00  0.92493135850E+00  0.00000000000E+00 0. -1.
         21   -1    0    0  502  503 -0.00000000000E+00 -0.00000000000E+00 -0.10860349398E+04  0.10860349398E+04  0.00000000000E+00 0.  1.
          2    1    1    2  501    0  0.18679821960E+02  0.21921186860E+02 -0.31568996984E+03  0.31700099565E+03  0.00000000000E+00 0. -1.
         -2    1    1    2    0  503 -0.18679821960E+02 -0.21921186860E+02 -0.76942003857E+03  0.76995887548E+03  0.00000000000E+00 0.  1.
</event>
<event>
 4    1  0.1820060E+004  0.2195419E+02  0.7546771E-02  0.1506065E+00
         21   -1    0    0  503  502  0.00000000000E+00  0.00000000000E+00  0.71385634222E+00  0.71385634222E+00  0.00000000000E+00 0.  1.
         21   -1    0    0  501  503 -0.00000000000E+00 -0.00000000000E+00 -0.91387992749E+03  0.91387992749E+03  0.00000000000E+00 0. -1.
          2    1    1    2  501    0  0.90291975515E+01 -0.20011502492E+02 -0.69029088827E+03  0.69063991853E+03  0.00000000000E+00 0. -1.
         -2    1    1    2    0  502 -0.90291975515E+01  0.20011502492E+02 -0.22287518288E+03  0.22395386531E+03  0.00000000000E+00 0.  1.
</event>
<event>
 4    1  0.1820060E+004  0.3757912E+02  0.7546771E-02  0.1363287E+00
         21   -1    0    0  501  502  0.00000000000E+00  0.00000000000E+00  0.13034487965E+03  0.13034487965E+03  0.00000000000E+00 0. -1.
         21   -1    0    0  502  503 -0.00000000000E+00 -0.00000000000E+00 -0.27516977788E+02  0.27516977788E+02  0.00000000000E+00 0.  1.
          2    1    1    2  501    0  0.10192135126E+02 -0.36170576363E+02  0.11287221060E+03  0.11896354962E+03  0.00000000000E+00 0. -1.
         -2    1    1    2    0  503 -0.10192135126E+02  0.36170576363E+02 -0.10044308739E+02  0.38898307815E+02  0.00000000000E+00 0.  1.
</event>
<event>
 4    1  0.1820060E+004  0.2161928E+02  0.7546771E-02  0.1510604E+00
         21   -1    0    0  501  502  0.00000000000E+00  0.00000000000E+00  0.10534800849E+03  0.10534800849E+03  0.00000000000E+00 0.  1.
         21   -1    0    0  502  503 -0.00000000000E+00 -0.00000000000E+00 -0.63067252778E+01  0.63067252778E+01  0.00000000000E+00 0. -1.
          2    1    1    2  501    0 -0.96378814672E+01  0.19352114807E+02  0.79920655295E+02  0.82793141319E+02  0.00000000000E+00 0.  1.
         -2    1    1    2    0  503  0.96378814672E+01 -0.19352114807E+02  0.19120627913E+02  0.28861592445E+02  0.00000000000E+00 0. -1.
</event>
<event>
 4    1  0.1820060E+004  0.2202187E+02  0.7546771E-02  0.1505160E+00
         21   -1    0    0  503  502  0.00000000000E+00  0.00000000000E+00  0.15319875851E+03  0.15319875851E+03  0.00000000000E+00 0.  1.
         21   -1    0    0  501  503 -0.00000000000E+00 -0.00000000000E+00 -0.79141849780E+01  0.79141849780E+01  0.00000000000E+00 0. -1.
          2    1    1    2  501    0 -0.60497548166E+01  0.21174594328E+02  0.10242896759E+02  0.24287443511E+02  0.00000000000E+00 0. -1.
         -2    1    1    2    0  502  0.60497548166E+01 -0.21174594328E+02  0.13504167678E+03  0.13682549998E+03  0.00000000000E+00 0.  1.
</event>
<event>
 4    1  0.1820060E+004  0.2206254E+02  0.7546771E-02  0.1504618E+00
         21   -1    0    0  501  502  0.00000000000E+00  0.00000000000E+00  0.13800014898E+02  0.13800014898E+02  0.00000000000E+00 0. -1.
         21   -1    0    0  502  503 -0.00000000000E+00 -0.00000000000E+00 -0.67922397564E+02  0.67922397564E+02  0.00000000000E+00 0.  1.
          2    1    1    2  501    0  0.21701100721E+02  0.39771917592E+01  0.12689079290E+01  0.22099003465E+02  0.00000000000E+00 0. -1.
         -2    1    1    2    0  503 -0.21701100721E+02 -0.39771917592E+01 -0.55391290595E+02  0.59623408998E+02  0.00000000000E+00 0.  1.
</event>
<event>
 4    1  0.1820060E+004  0.2585675E+02  0.7546771E-02  0.1459443E+00
         21   -1    0    0  501  502  0.00000000000E+00  0.00000000000E+00  0.94791481179E+01  0.94791481179E+01  0.00000000000E+00 0.  1.
         21   -1    0    0  502  503 -0.00000000000E+00 -0.00000000000E+00 -0.14082556055E+03  0.14082556055E+03  0.00000000000E+00 0. -1.
          2    1    1    2  501    0  0.11565298109E+02  0.23126074679E+02 -0.12577002528E+02  0.28753303166E+02  0.00000000000E+00 0.  1.
         -2    1    1    2    0  503 -0.11565298109E+02 -0.23126074679E+02 -0.11876940991E+03  0.12155140550E+03  0.00000000000E+00 0. -1.
</event>
<event>
 4    1  0.1820060E+004  0.2643860E+02  0.7546771E-02  0.1453330E+00
         21   -1    0    0  503  502  0.00000000000E+00  0.00000000000E+00  0.17024614664E+01  0.17024614664E+01  0.00000000000E+00 0. -1.
         21   -1    0    0  501  503 -0.00000000000E+00 -0.00000000000E+00 -0.66938424116E+03  0.66938424116E+03  0.00000000000E+00 0.  1.
          2    1    1    2  501    0 -0.11184165629E+02  0.23956505067E+02 -0.12520208854E+03  0.12796313012E+03  0.00000000000E+00 0. -1.
         -2    1    1    2    0  502  0.11184165629E+02 -0.23956505067E+02 -0.54247969116E+03  0.54312357251E+03  0.00000000000E+00 0.  1.
</event>
<event>
 4    1  0.1820060E+004  0.2106097E+02  0.7546771E-02  0.1518396E+00
         21   -1    0    0  501  502  0.00000000000E+00  0.00000000000E+00  0.17796215546E+02  0.17796215546E+02  0.00000000000E+00 0.  1.
         21   -1    0    0  502  503 -0.00000000000E+00 -0.00000000000E+00 -0.10414303801E+03  0.10414303801E+03  0.00000000000E+00 0. -1.
          2    1    1    2  501    0 -0.16201387494E+02 -0.13456576077E+02  0.10002069272E+02  0.23315355158E+02  0.00000000000E+00 0.  1.
         -2    1    1    2    0  503  0.16201387494E+02  0.13456576077E+02 -0.96348891739E+02  0.98623898401E+02  0.00000000000E+00 0. -1.
</event>
<event>
 4    1  0.1820060E+004  0.2627269E+02  0.7546771E-02  0.1455054E+00
         21   -1    0    0  503  502  0.00000000000E+00  0.00000000000E+00  0.16947339606E+04  0.16947339606E+04  0.00000000000E+00 0. -1.
         21   -1    0    0  501  503 -0.00000000000E+00 -0.00000000000E+00 -0.41174559956E+00  0.41174559956E+00  0.00000000000E+00 0.  1.
          2    1    1    2  501    0 -0.16560394287E+01 -0.26220445271E+02  0.93529488532E+03  0.93566381608E+03  0.00000000000E+00 0. -1.
         -2    1    1    2    0  502  0.16560394287E+01  0.26220445271E+02  0.75902732966E+03  0.75948189010E+03  0.00000000000E+00 0.  1.
</event>
<event>
 4    1  0.1820060E+004  0.2320711E+02  0.7546771E-02  0.1489914E+00
         21   -1    0    0  503  502  0.00000000000E+00  0.00000000000E+00  0.15002788855E+03  0.15002788855E+03  0.00000000000E+00 0. -1.
         21   -1    0    0  501  503 -0.00000000000E+00 -0.00000000000E+00 -0.47057599643E+01  0.47057599643E+01  0.00000000000E+00 0.  1.
          2    1    1    2  501    0  0.21669972697E+02  0.83055637118E+01  0.34985114974E+02  0.41982476999E+02  0.00000000000E+00 0.  1.
         -2    1    1    2    0  502 -0.21669972697E+02 -0.83055637118E+01  0.11033701361E+03  0.11275117151E+03  0.00000000000E+00 0. -1.
</event>
<event>
 4    1  0.1820060E+004  0.2068123E+02  0.7546771E-02  0.1523865E+00
         21   -1    0    0  501  502  0.00000000000E+00  0.00000000000E+00  0.14636926240E+04  0.14636926240E+04  0.00000000000E+00 0. -1.
         21   -1    0    0  502  503 -0.00000000000E+00 -0.00000000000E+00 -0.18159912926E+01  0.18159912926E+01  0.00000000000E+00 0.  1.
          2    1    1    2  501    0 -0.69055324649E+01 -0.19494282708E+02  0.14021539404E+04  0.14023064523E+04  0.00000000000E+00 0. -1.
         -2    1    1    2    0  503  0.69055324649E+01  0.19494282708E+02  0.59722692281E+02  0.63202163018E+02  0.00000000000E+00 0.  1.
</event>
<event>
 4    1  0.1820060E+004  0.3231497E+02  0.7546771E-02  0.1400491E+00
         21   -1    0    0  501  502  0.00000000000E+00  0.00000000000E+00  0.10205249662E+02  0.10205249662E+02  0.00000000000E+00 0. -1.
         21   -1    0    0  502  503 -0.00000000000E+00 -0.00000000000E+00 -0.13902428146E+03  0.13902428146E+03  0.00000000000E+00 0.  1.
          2    1    1    2  501    0  0.27934000912E+02  0.16246498505E+02 -0.26073642654E+02  0.41522186381E+02  0.00000000000E+00 0. -1.
         -2    1    1    2    0  503 -0.27934000912E+02 -0.16246498505E+02 -0.10274538914E+03  0.10770734474E+03  0.00000000000E+00 0.  1.
</event>
<event>
 4    1  0.1820060E+004  0.3074637E+02  0.7546771E-02  0.1413219E+00
         21   -1    0    0  501  502  0.00000000000E+00  0.00000000000E+00  0.17032490949E+03  0.17032490949E+03  0.00000000000E+00 0. -1.
         21   -1    0    0  502  503 -0.00000000000E+00 -0.00000000000E+00 -0.58837194969E+01  0.58837194969E+01  0.00000000000E+00 0.  1.
          2    1    1    2  501    0  0.10786109364E+02  0.28792349084E+02  0.10319662852E+03  0.10767954150E+03  0.00000000000E+00 0.  1.
         -2    1    1    2    0  503 -0.10786109364E+02 -0.28792349084E+02  0.61244561477E+02  0.68529087485E+02  0.00000000000E+00 0. -1.
</event>
<event>
 4    1  0.1820060E+004  0.2829135E+02  0.7546771E-02  0.1435050E+00
         21   -1    0    0  501  502  0.00000000000E+00  0.00000000000E+00  0.38867185840E+01  0.38867185840E+01  0.00000000000E+00 0.  1.
         21   -1    0    0  502  503 -0.00000000000E+00 -0.00000000000E+00 -0.32004809473E+03  0.32004809473E+03  0.00000000000E+00 0. -1.
          2    1    1    2  501    0 -0.26245787800E+02 -0.10562162771E+02 -0.61365873956E+02  0.67573450008E+02  0.00000000000E+00 0.  1.
         -2    1    1    2    0  503  0.26245787800E+02  0.10562162771E+02 -0.25479550219E+03  0.25636136330E+03  0.00000000000E+00 0. -1.
</event>
<event>
 4    1  0.1820060E+004  0.4030459E+02  0.7546771E-02  0.1346710E+00
         21   -1    0    0  501  502  0.00000000000E+00  0.00000000000E+00  0.10411057871E+03  0.10411057871E+03  0.00000000000E+00 0. -1.
         21   -1    0    0  502  503 -0.00000000000E+00 -0.00000000000E+00 -0.44087637980E+02  0.44087637980E+02  0.00000000000E+00 0.  1.
          2    1    1    2  501    0 -0.35504521596E+02 -0.19075871902E+02  0.89571960717E+02  0.98222177177E+02  0.00000000000E+00 0. -1.
         -2    1    1    2    0  503  0.35504521596E+02  0.19075871902E+02 -0.29549019991E+02  0.49976039509E+02  0.00000000000E+00 0.  1.
</event>
<event>
 4    1  0.1820060E+004  0.2006105E+02  0.7546771E-02  0.1533105E+00
         21   -1    0    0  503  502  0.00000000000E+00  0.00000000000E+00  0.13446539885E+02  0.13446539885E+02  0.00000000000E+00 0. -1.
         21   -1    0    0  501  503 -0.00000000000E+00 -0.00000000000E+00 -0.16045220338E+03  0.16045220338E+03  0.00000000000E+00 0.  1.
          2    1    1    2  501    0 -0.15539080052E+02  0.12687893147E+02 -0.15192465836E+03  0.15324342550E+03  0.00000000000E+00 0.  1.
         -2    1    1    2    0  502  0.15539080052E+02 -0.12687893147E+02  0.49189948673E+01  0.20655317762E+02  0.00000000000E+00 0. -1.
</event>
<event>
 4    1  0.1820060E+004  0.2839684E+02  0.7546771E-02  0.1434060E+00
         21   -1    0    0  503  502  0.00000000000E+00  0.00000000000E+00  0.56392120360E+01  0.56392120360E+01  0.00000000000E+00 0.  1.
         21   -1    0    0  501  503 -0.00000000000E+00 -0.00000000000E+00 -0.28000180960E+03  0.28000180960E+03  0.00000000000E+00 0. -1.
          2    1    1    2  501    0 -0.88924323907E+01  0.26968598225E+02 -0.23708482391E+03  0.23877938431E+03  0.00000000000E+00 0. -1.
         -2    1    1    2    0  502  0.88924323907E+01 -0.26968598225E+02 -0.37277773653E+02  0.46861637323E+02  0.00000000000E+00 0.  1.
</event>
<event>
 4    1  0.1820060E+004  0.2133984E+02  0.7546771E-02  0.1514468E+00
         21   -1    0    0  503  502  0.00000000000E+00  0.00000000000E+00  0.69163544073E+00  0.69163544073E+00  0.00000000000E+00 0. -1.
         21   -1    0    0  501  503 -0.00000000000E+00 -0.00000000000E+00 -0.11990836892E+04  0.11990836892E+04  0.00000000000E+00 0.  1.
          2    1    1    2  501    0  0.20152621839E+02 -0.70186029464E+01 -0.10020126839E+04  0.10022398953E+04  0.00000000000E+00 0.  1.
         -2    1    1    2    0  502 -0.20152621839E+02  0.70186029464E+01 -0.19637936985E+03  0.19753542937E+03  0.00000000000E+00 0. -1.
</event>
<event>
 4    1  0.1820060E+004  0.2232054E+02  0.7546771E-02  0.1501211E+00
         21   -1    0    0  501  502  0.00000000000E+00  0.00000000000E+00  0.18067190594E+03  0.18067190594E+03  0.00000000000E+00 0. -1.
         21   -1    0    0  502  503 -0.00000000000E+00 -0.00000000000E+00 -0.29391507381E+01  0.29391507381E+01  0.00000000000E+00 0.  1.
          2    1    1    2  501    0 -0.16615277318E+02 -0.14904323532E+02  0.11168835120E+03  0.11389685726E+03  0.00000000000E+00 0. -1.
         -2    1    1    2    0  503  0.16615277318E+02  0.14904323532E+02  0.66044404000E+02  0.69714199415E+02  0.00000000000E+00 0.  1.
</event>
<event>
 4    1  0.1820060E+004  0.2104887E+02  0.7546771E-02  0.1518568E+00
         21   -1    0    0  501  502  0.00000000000E+00  0.00000000000E+00  0.58721510154E+03  0.58721510154E+03  0.00000000000E+00 0.  1.
         21   -1    0    0  502  503 -0.00000000000E+00 -0.00000000000E+00 -0.11504525625E+01  0.11504525625E+01  0.00000000000E+00 0. -1.
          2    1    1    2  501    0  0.17215914873E+01  0.20978349010E+02  0.46561743862E+03  0.46609296729E+03  0.00000000000E+00 0.  1.
         -2    1    1    2    0  503 -0.17215914873E+01 -0.20978349010E+02  0.12044721036E+03  0.12227258682E+03  0.00000000000E+00 0. -1.
</event>
<event>
 4    1  0.1820060E+004  0.2036251E+02  0.7546771E-02  0.1528564E+00
         21   -1    0    0  503  502  0.00000000000E+00  0.00000000000E+00  0.35658835356E+02  0.35658835356E+02  0.00000000000E+00 0.  1.
         21   -1    0    0  501  503 -0.00000000000E+00 -0.00000000000E+00 -0.14593420846E+02  0.14593420846E+02  0.00000000000E+00 0. -1.
          2    1    1    2  501    0 -0.12155653226E+02  0.16336209093E+02 -0.79414643543E+00  0.20377985706E+02  0.00000000000E+00 0. -1.
         -2    1    1    2    0  502  0.12155653226E+02 -0.16336209093E+02  0.21859560945E+02  0.29874270495E+02  0.00000000000E+00 0.  1.
</event>
<event>
 4    1  0.1820060E+004  0.2184323E+02  0.7546771E-02  0.1507558E+00
         21   -1    0    0  503  502  0.00000000000E+00  0.00000000000E+00  0.20325463842E+02  0.20325463842E+02  0.00000000000E+00 0. -1.
         21   -1    0    0  501  503 -0.00000000000E+00 -0.00000000000E+00 -0.87752179665E+02  0.87752179665E+02  0.00000000000E+00 0.  1.
          2    1    1    2  501    0 -0.13354251647E+02  0.17285562777E+02 -0.79962914432E+02  0.82892667963E+02  0.00000000000E+00 0.  1.
         -2    1    1    2    0  502  0.13354251647E+02 -0.17285562777E+02  0.12536198609E+02  0.25184975544E+02  0.00000000000E+00 0. -1.
</event>
<event>
 4    1  0.1820060E+004  0.2069055E+02  0.7546771E-02  0.1523729E+00
         21   -1    0    0  501  502  0.00000000000E+00  0.00000000000E+00  0.85301225940E+02  0.85301225940E+02  0.00000000000E+00 0. -1.
         21   -1    0    0  502  503 -0.00000000000E+00 -0.00000000000E+00 -0.46596453285E+02  0.46596453285E+02  0.00000000000E+00 0.  1.
          2    1    1    2  501    0  0.19917065635E+02 -0.56044007983E+01  0.81648562050E+02  0.84229368374E+02  0.00000000000E+00 0. -1.
         -2    1    1    2    0  503 -0.19917065635E+02  0.56044007983E+01 -0.42943789395E+02  0.47668310851E+02  0.00000000000E+00 0.  1.
</event>
<event>
 4    1  0.1820060E+004  0.2262906E+02  0.7546771E-02  0.1497209E+00
         21   -1    0    0  503  502  0.00000000000E+00  0.00000000000E+00  0.83389087155E+01  0.83389087155E+01  0.00000000000E+00 0.  1.
         21   -1    0    0  501  503 -0.00000000000E+00 -0.00000000000E+00 -0.61867591850E+02  0.61867591850E+02  0.00000000000E+00 0. -1.
          2    1    1    2  501    0  0.20106030873E+02  0.10383738644E+02 -0.29790348395E+02  0.37410417843E+02  0.00000000000E+00 0. -1.
         -2    1    1    2    0  502 -0.20106030873E+02 -0.10383738644E+02 -0.23738334740E+02  0.32796082722E+02  0.00000000000E+00 0.  1.
</event>
<event>
 4    1  0.1820060E+004  0.2151565E+02  0.7546771E-02  0.1512028E+00
         21   -1    0    0  503  502  0.00000000000E+00  0.00000000000E+00  0.12724600326E+03  0.12724600326E+03  0.00000000000E+00 0. -1.
         21   -1    0    0  501  503 -0.00000000000E+00 -0.00000000000E+00 -0.36526453994E+01  0.36526453994E+01  0.00000000000E+00 0.  1.
          2    1    1    2  501    0  0.76636559043E+01 -0.20104520569E+02  0.65938307098E+02  0.69359813380E+02  0.00000000000E+00 0. -1.
         -2    1    1    2    0  502 -0.76636559043E+01  0.20104520569E+02  0.57655050763E+02  0.61538835280E+02  0.00000000000E+00 0.  1.
</event>
<event>
 4    1  0.1820060E+004  0.2062249E+02  0.7546771E-02  0.1524724E+00
         21   -1    0    0  503  502  0.00000000000E+00  0.00000000000E+00  0.16133300594E+02  0.16133300594E+02  0.00000000000E+00 0. -1.
         21   -1    0    0  501  503 -0.00000000000E+00 -0.00000000000E+00 -0.27953147993E+02  0.27953147993E+02  0.00000000000E+00 0.  1.
          2    1    1    2  501    0  0.75216359512E+01 -0.19201873696E+02 -0.11171024620E+02  0.23453757735E+02  0.00000000000E+00 0.  1.
         -2    1    1    2    0  502 -0.75216359512E+01  0.19201873696E+02 -0.64882277920E+00  0.20632690853E+02  0.00000000000E+00 0. -1.
</event>
<event>
 4    1  0.1820060E+004  0.2663992E+02  0.7546771E-02  0.1451259E+00
         21   -1    0    0  501  502  0.00000000000E+00  0.00000000000E+00  0.50445865042E+03  0.50445865042E+03  0.00000000000E+00 0.  1.
         21   -1    0    0  502  503 -0.00000000000E+00 -0.00000000000E+00 -0.14806937967E+01  0.14806937967E+01  0.00000000000E+00 0. -1.
          2    1    1    2  501    0 -0.10351782800E+02  0.24546399629E+02  0.30799122972E+03  0.30914120193E+03  0.00000000000E+00 0.  1.
         -2    1    1    2    0  503  0.10351782800E+02 -0.24546399629E+02  0.19498672690E+03  0.19679814229E+03  0.00000000000E+00 0. -1.
</event>
<event>
 4    1  0.1820060E+004  0.2207527E+02  0.7546771E-02  0.1504448E+00
         21   -1    0    0  501  502  0.00000000000E+00  0.00000000000E+00  0.84746654015E+01  0.84746654015E+01  0.00000000000E+00 0.  1.
         21   -1    0    0  502  503 -0.00000000000E+00 -0.00000000000E+00 -0.17040985302E+03  0.17040985302E+03  0.00000000000E+00 0. -1.
          2    1    1    2  501    0  0.73855515076E+01 -0.20803154000E+02 -0.81634984377E+01  0.23536361107E+02  0.00000000000E+00 0.  1.
         -2    1    1    2    0  503 -0.73855515076E+01  0.20803154000E+02 -0.15377168918E+03  0.15534815731E+03  0.00000000000E+00 0. -1.
</event>
<event>
 4    1  0.1820060E+004  0.2145327E+02  0.7546771E-02  0.1512891E+00
         21   -1    0    0  501  502  0.00000000000E+00  0.00000000000E+00  0.27592436838E+03  0.27592436838E+03  0.00000000000E+00 0.  1.
         21   -1    0    0  502  503 -0.00000000000E+00 -0.00000000000E+00 -0.17420493403E+01  0.17420493403E+01  0.00000000000E+00 0. -1.
          2    1    1    2  501    0  0.14701610841E+02 -0.15623870075E+02  0.16571414307E+03  0.16709703735E+03  0.00000000000E+00 0.  1.
         -2    1    1    2    0  503 -0.14701610841E+02  0.15623870075E+02  0.10846817596E+03  0.11056938036E+03  0.00000000000E+00 0. -1.
</event>
<event>
 4    1  0.1820060E+004  0.2115129E+02  0.7546771E-02  0.1517116E+00
         21   -1    0    0  503  502  0.00000000000E+00  0.00000000000E+00  0.19859924521E+02  0.19859924521E+02  0.00000000000E+00 0. -1.
         21   -1    0    0  501  503 -0.00000000000E+00 -0.00000000000E+00 -0.26738133668E+02  0.26738133668E+02  0.00000000000E+00 0.  1.
          2    1    1    2  501    0  0.20777638959E+02 -0.39581076309E+01 -0.12685907115E+02  0.24663923777E+02  0.00000000000E+00 0.  1.
         -2    1    1    2    0  502 -0.20777638959E+02  0.39581076309E+01  0.58076979681E+01  0.21934134413E+02  0.00000000000E+00 0. -1.
</event>
<event>
 4    1  0.1820060E+004  0.2107278E+02  0.7546771E-02  0.1518228E+00
         21   -1    0    0  501  502  0.00000000000E+00  0.00000000000E+00  0.31435370056E+02  0.31435370056E+02  0.00000000000E+00 0. -1.
         21   -1    0    0  502  503 -0.00000000000E+00 -0.00000000000E+00 -0.17583666437E+02  0.17583666437E+02  0.00000000000E+00 0.  1.
          2    1    1    2  501    0  0.17987733076E+01 -0.20995871312E+02  0.17794093724E+02  0.27580644826E+02  0.00000000000E+00 0. -1.
         -2    1    1    2    0  503 -0.17987733076E+01  0.20995871312E+02 -0.39423901053E+01  0.21438391668E+02  0.00000000000E+00 0.  1.
</event>
<event>
 4    1  0.1820060E+004  0.2289821E+02  0.7546771E-02  0.1493780E+00
         21   -1    0    0  503  502  0.00000000000E+00  0.00000000000E+00  0.38527779260E+02  0.38527779260E+02  0.00000000000E+00 0. -1.
         21   -1    0    0  501  503 -0.00000000000E+00 -0.00000000000E+00 -0.26665979303E+02  0.26665979303E+02  0.00000000000E+00 0.  1.
          2    1    1    2  501    0  0.85608672672E+01  0.21237689463E+02 -0.16878673547E+02  0.28446748897E+02  0.00000000000E+00 0.  1.
         -2    1    1    2    0  502 -0.85608672672E+01 -0.21237689463E+02  0.28740473504E+02  0.36747009666E+02  0.00000000000E+00 0. -1.
</event>
<event>
 4    1  0.1820060E+004  0.2647731E+02  0.7546771E-02  0.1452930E+00
         21   -1    0    0  503  502  0.00000000000E+00  0.00000000000E+00  0.89529762095E+01  0.89529762095E+01  0.00000000000E+00 0. -1.
         21   -1    0    0  501  503 -0.00000000000E+00 -0.00000000000E+00 -0.85978457521E+02  0.85978457521E+02  0.00000000000E+00 0.  1.
          2    1    1    2  501    0 -0.11589771066E+02  0.23805988896E+02 -0.52694426525E+02  0.58972455329E+02  0.00000000000E+00 0. -1.
         -2    1    1    2    0  502  0.11589771066E+02 -0.23805988896E+02 -0.24331054787E+02  0.35958978402E+02  0.00000000000E+00 0.  1.
</event>
<event>
 4    1  0.1820060E+004  0.2175152E+02  0.7546771E-02  0.1508800E+00
         21   -1    0    0  501  502  0.00000000000E+00  0.00000000000E+00  0.83186983819E+02  0.83186983819E+02  0.00000000000E+00 0.  1.
         21   -1    0    0  502  503 -0.00000000000E+00 -0.00000000000E+00 -0.10307637914E+02  0.10307637914E+02  0.00000000000E+00 0. -1.
          2    1    1    2  501    0  0.52220891329E+01 -0.21115355850E+02  0.67736702151E+02  0.71143441622E+02  0.00000000000E+00 0.  1.
         -2    1    1    2    0  503 -0.52220891329E+01  0.21115355850E+02  0.51426437541E+01  0.22351180111E+02  0.00000000000E+00 0. -1.
</event>
<event>
 4    1  0.1820060E+004  0.9948252E+02  0.7546771E-02  0.1164708E+00
         21   -1    0    0  503  502  0.00000000000E+00  0.00000000000E+00  0.17049837750E+03  0.17049837750E+03  0.00000000000E+00 0.  1.
         21   -1    0    0  501  503 -0.00000000000E+00 -0.00000000000E+00 -0.13810622247E+03  0.13810622247E+03  0.00000000000E+00 0. -1.
          2    1    1    2  501    0 -0.18642895939E+02  0.97720079426E+02 -0.10128659354E+03  0.14197093197E+03  0.00000000000E+00 0. -1.
         -2    1    1    2    0  502  0.18642895939E+02 -0.97720079426E+02  0.13367874857E+03  0.16663366800E+03  0.00000000000E+00 0.  1.
</event>
<event>
 4    1  0.1820060E+004  0.2155746E+02  0.7546771E-02  0.1511453E+00
         21   -1    0    0  503  502  0.00000000000E+00  0.00000000000E+00  0.43089687152E+01  0.43089687152E+01  0.00000000000E+00 0.  1.
         21   -1    0    0  501  503 -0.00000000000E+00 -0.00000000000E+00 -0.21062542370E+03  0.21062542370E+03  0.00000000000E+00 0. -1.
          2    1    1    2  501    0 -0.53801077694E+00 -0.21550741331E+02 -0.17822787220E+03  0.17952687358E+03  0.00000000000E+00 0. -1.
         -2    1    1    2    0  502  0.53801077694E+00  0.21550741331E+02 -0.28088582791E+02  0.35407518844E+02  0.00000000000E+00 0.  1.
</event>
<event>
 4    1  0.1820060E+004  0.2121258E+02  0.7546771E-02  0.1516251E+00
         21   -1    0    0  501  502  0.00000000000E+00  0.00000000000E+00  0.69795973713E+01  0.69795973713E+01  0.00000000000E+00 0. -1.
         21   -1    0    0  502  503 -0.00000000000E+00 -0.00000000000E+00 -0.16034894155E+03  0.16034894155E+03  0.00000000000E+00 0.  1.
          2    1    1    2  501    0 -0.29331363095E+01 -0.21008818610E+02 -0.11989945733E+02  0.24366627725E+02  0.00000000000E+00 0. -1.
         -2    1    1    2    0  503  0.29331363095E+01  0.21008818610E+02 -0.14137939844E+03  0.14296191120E+03  0.00000000000E+00 0.  1.
</event>
<event>
 4    1  0.1820060E+004  0.2088877E+02  0.7546771E-02  0.1520859E+00
         21   -1    0    0  503  502  0.00000000000E+00  0.00000000000E+00  0.15401438731E+02  0.15401438731E+02  0.00000000000E+00 0.  1.
         21   -1    0    0  501  503 -0.00000000000E+00 -0.00000000000E+00 -0.12813049003E+03  0.12813049003E+03  0.00000000000E+00 0. -1.
          2    1    1    2  501    0  0.54306237753E+01  0.20170497902E+02 -0.11970132157E+03  0.12151027548E+03  0.00000000000E+00 0. -1.
         -2    1    1    2    0  502 -0.54306237753E+01 -0.20170497902E+02  0.69722702797E+01  0.22021653277E+02  0.00000000000E+00 0.  1.
</event>
<event>
 4    1  0.1820060E+004  0.3959928E+02  0.7546771E-02  0.1350850E+00
         21   -1    0    0  503  502  0.00000000000E+00  0.00000000000E+00  0.37690712718E+03  0.37690712718E+03  0.00000000000E+00 0.  1.
         21   -1    0    0  501  503 -0.00000000000E+00 -0.00000000000E+00 -0.55036657326E+01  0.55036657326E+01  0.00000000000E+00 0. -1.
          2    1    1    2  501    0 -0.38695279173E+02 -0.84129743619E+01  0.91241888521E+02  0.99464491095E+02  0.00000000000E+00 0. -1.
         -2    1    1    2    0  502  0.38695279173E+02  0.84129743619E+01  0.28016157293E+03  0.28294630182E+03  0.00000000000E+00 0.  1.
</event>
<event>
 4    1  0.1820060E+004  0.2089259E+02  0.7546771E-02  0.1520804E+00
         21   -1    0    0  501  502  0.00000000000E+00  0.00000000000E+00  0.73468572993E+02  0.73468572993E+02  0.00000000000E+00 0.  1.
         21   -1    0    0  502  503 -0.00000000000E+00 -0.00000000000E+00 -0.59425627900E+01  0.59425627900E+01  0.00000000000E+00 0. -1.
          2    1    1    2  501    0 -0.16078189319E+02 -0.13341375478E+02  0.33189337451E+02  0.39217758628E+02  0.00000000000E+00 0. -1.
         -2    1    1    2    0  503  0.16078189319E+02  0.13341375478E+02  0.34336672752E+02  0.40193377155E+02  0.00000000000E+00 0.  1.
</event>
<event>
 4    1  0.1820060E+004  0.2591717E+02  0.7546771E-02  0.1458799E+00
         21   -1    0    0  501  502  0.00000000000E+00  0.00000000000E+00  0.62462799537E+03  0.62462799537E+03  0.00000000000E+00 0.  1.
         21   -1    0    0  502  503 -0.00000000000E+00 -0.00000000000E+00 -0.76995362975E+01  0.76995362975E+01  0.00000000000E+00 0. -1.
          2    1    1    2  501    0 -0.19370082586E+02  0.17219158975E+02  0.60171946482E+03  0.60227735627E+03  0.00000000000E+00 0.  1.
         -2    1    1    2    0  503  0.19370082586E+02 -0.17219158975E+02  0.15208994255E+02  0.30050175398E+02  0.00000000000E+00 0. -1.
</event>
<event>
 4    1  0.1820060E+004  0.3773554E+02  0.7546771E-02  0.1362292E+00
         21   -1    0    0  501  502  0.00000000000E+00  0.00000000000E+00  0.19568769227E+03  0.19568769227E+03  0.00000000000E+00 0. -1.
         21   -1    0    0  502  503 -0.00000000000E+00 -0.00000000000E+00 -0.73064752283E+01  0.73064752283E+01  0.00000000000E+00 0.  1.
          2    1    1    2  501    0 -0.24556828167E+02  0.28651931447E+02  0.10066413465E+03  0.10750459986E+03  0.00000000000E+00 0. -1.
         -2    1    1    2    0  503  0.24556828167E+02 -0.28651931447E+02  0.87717082389E+02  0.95489567640E+02  0.00000000000E+00 0.  1.
</event>
<event>
 4    1  0.1820060E+004  0.2187656E+02  0.7546771E-02  0.1507109E+00
         21   -1    0    0  501  502  0.00000000000E+00  0.00000000000E+00  0.38209430701E+03  0.38209430701E+03  0.00000000000E+00 0. -1.
         21   -1    0    0  502  503 -0.00000000000E+00 -0.00000000000E+00 -0.54287391153E+01  0.54287391153E+01  0.00000000000E+00 0.  1.
          2    1    1    2  501    0  0.19263799030E+02  0.10367726188E+02  0.35827813645E+03  0.35894540916E+03  0.00000000000E+00 0. -1.
         -2    1    1    2    0  503 -0.19263799030E+02 -0.10367726188E+02  0.18387431446E+02  0.28577636966E+02  0.00000000000E+00 0.  1.
</event>
<event>
 4    1  0.1820060E+004  0.2535087E+02  0.7546771E-02  0.1464916E+00
         21   -1    0    0  501  502  0.00000000000E+00  0.00000000000E+00  0.42618545181E+03  0.42618545181E+03  0.00000000000E+00 0.  1.
         21   -1    0    0  502  503 -0.00000000000E+00 -0.00000000000E+00 -0.17388166356E+01  0.17388166356E+01  0.00000000000E+00 0. -1.
          2    1    1    2  501    0 -0.12546571183E+02  0.22028389030E+02  0.29018668188E+03  0.29129190979E+03  0.00000000000E+00 0.  1.
         -2    1    1    2    0  503  0.12546571183E+02 -0.22028389030E+02  0.13425995330E+03  0.13663235865E+03  0.00000000000E+00 0. -1.
</event>
<event>
 4    1  0.1820060E+004  0.2376411E+02  0.7546771E-02  0.1483120E+00
         21   -1    0    0  501  502  0.00000000000E+00  0.00000000000E+00  0.20213643215E+02  0.20213643215E+02  0.00000000000E+00 0. -1.
         21   -1    0    0  502  503 -0.00000000000E+00 -0.00000000000E+00 -0.71503259274E+02  0.71503259274E+02  0.00000000000E+00 0.  1.
          2    1    1    2  501    0  0.16126933904E+02 -0.17454362744E+02  0.10150460645E+02  0.25841142143E+02  0.00000000000E+00 0. -1.
         -2    1    1    2    0  503 -0.16126933904E+02  0.17454362744E+02 -0.61440076703E+02  0.65875760347E+02  0.00000000000E+00 0.  1.
</event>
<event>
 4    1  0.1820060E+004  0.4602079E+02  0.7546771E-02  0.1316413E+00
         21   -1    0    0  501  502  0.00000000000E+00  0.00000000000E+00  0.24301094227E+02  0.24301094227E+02  0.00000000000E+00 0.  1.
         21   -1    0    0  502  503 -0.00000000000E+00 -0.00000000000E+00 -0.87161096008E+02  0.87161096008E+02  0.00000000000E+00 0. -1.
          2    1    1    2  501    0 -0.39746392064E+02  0.23197797878E+02 -0.30893212653E+02  0.55428369059E+02  0.00000000000E+00 0.  1.
         -2    1    1    2    0  503  0.39746392064E+02 -0.23197797878E+02 -0.31966789127E+02  0.56033821176E+02  0.00000000000E+00 0. -1.
</event>
<event>
 4    1  0.1820060E+004  0.4120210E+02  0.7546771E-02  0.1341582E+00
         21   -1    0    0  503  502  0.00000000000E+00  0.00000000000E+00  0.54258044489E+02  0.54258044489E+02  0.00000000000E+00 0. -1.
         21   -1    0    0  501  503 -0.00000000000E+00 -0.00000000000E+00 -0.38013805474E+02  0.38013805474E+02  0.00000000000E+00 0.  1.
          2    1    1    2  501    0 -0.35958787449E+02  0.20114149653E+02 -0.11284416360E+02  0.42719450648E+02  0.00000000000E+00 0.  1.
         -2    1    1    2    0  502  0.35958787449E+02 -0.20114149653E+02  0.27528655376E+02  0.49552399315E+02  0.00000000000E+00 0. -1.
</event>
<event>
 4    1  0.1820060E+004  0.7613230E+02  0.7546771E-02  0.1213123E+00
         21   -1    0    0  503  502  0.00000000000E+00  0.00000000000E+00  0.30897712274E+03  0.30897712274E+03  0.00000000000E+00 0.  1.
         21   -1    0    0  501  503 -0.00000000000E+00 -0.00000000000E+00 -0.31527645868E+02  0.31527645868E+02  0.00000000000E+00 0. -1.
          2    1    1    2  501    0 -0.24200025737E+02  0.72183691428E+02  0.30377338951E+02  0.81968953120E+02  0.00000000000E+00 0. -1.
         -2    1    1    2    0  502  0.24200025737E+02 -0.72183691428E+02  0.24707213792E+03  0.25853581549E+03  0.00000000000E+00 0.  1.
</event>
<event>
 4    1  0.1820060E+004  0.4022671E+02  0.7546771E-02  0.1347162E+00
         21   -1    0    0  503  502  0.00000000000E+00  0.00000000000E+00  0.91295424537E+03  0.91295424537E+03  0.00000000000E+00 0. -1.
         21   -1    0    0  501  503 -0.00000000000E+00 -0.00000000000E+00 -0.22156907674E+01  0.22156907674E+01  0.00000000000E+00 0.  1.
          2    1    1    2  501    0 -0.35946418278E+02 -0.18056658319E+02  0.25071296665E+03  0.25391963205E+03  0.00000000000E+00 0.  1.
         -2    1    1    2    0  502  0.35946418278E+02  0.18056658319E+02  0.66002558796E+03  0.66125030409E+03  0.00000000000E+00 0. -1.
</event>
<event>
 4    1  0.1820060E+004  0.2000009E+02  0.7546771E-02  0.1534034E+00
         21   -1    0    0  501  502  0.00000000000E+00  0.00000000000E+00  0.64639864135E+01  0.64639864135E+01  0.00000000000E+00 0. -1.
         21   -1    0    0  502  503 -0.00000000000E+00 -0.00000000000E+00 -0.14008852641E+03  0.14008852641E+03  0.00000000000E+00 0.  1.
          2    1    1    2  501    0 -0.12922049748E+02 -0.15265126908E+02 -0.12062299239E+02  0.23355995636E+02  0.00000000000E+00 0. -1.
         -2    1    1    2    0  503  0.12922049748E+02  0.15265126908E+02 -0.12156224076E+03  0.12319651719E+03  0.00000000000E+00 0.  1.
</event>
<event>
 4    1  0.1820060E+004  0.2285774E+02  0.7546771E-02  0.1494292E+00
         21   -1    0    0  503  502  0.00000000000E+00  0.00000000000E+00  0.24292172481E+03  0.24292172481E+03  0.00000000000E+00 0.  1.
         21   -1    0    0  501  503 -0.00000000000E+00 -0.00000000000E+00 -0.21519604505E+01  0.21519604505E+01  0.00000000000E+00 0. -1.
          2    1    1    2  501    0 -0.22775543309E+02 -0.19367512440E+01  0.12322873054E+03  0.12533074806E+03  0.00000000000E+00 0. -1.
         -2    1    1    2    0  502  0.22775543309E+02  0.19367512440E+01  0.11754103382E+03  0.11974293720E+03  0.00000000000E+00 0.  1.
</event>
<event>
 4    1  0.1820060E+004  0.2002471E+02  0.7546771E-02  0.1533658E+00
         21   -1    0    0  501  502  0.00000000000E+00  0.00000000000E+00  0.38772155266E+00  0.38772155266E+00  0.00000000000E+00 0. -1.
         21   -1    0    0  502  503 -0.00000000000E+00 -0.00000000000E+00 -0.10395684845E+04  0.10395684845E+04  0.00000000000E+00 0.  1.
          2    1    1    2  501    0  0.14372699117E+02 -0.13943267799E+02 -0.48229169901E+03  0.48270723231E+03  0.00000000000E+00 0.  1.
         -2    1    1    2    0  503 -0.14372699117E+02  0.13943267799E+02 -0.55688906391E+03  0.55724897371E+03  0.00000000000E+00 0. -1.
</event>
<event>
 4    1  0.1820060E+004  0.2015143E+02  0.7546771E-02  0.1531733E+00
         21   -1    0    0  501  502  0.00000000000E+00  0.00000000000E+00  0.10001354263E+01  0.10001354263E+01  0.00000000000E+00 0. -1.
         21   -1    0    0  502  503 -0.00000000000E+00 -0.00000000000E+00 -0.40602973316E+03  0.40602973316E+03  0.00000000000E+00 0.  1.
          2    1    1    2  501    0 -0.17975577273E+02 -0.91081664196E+01 -0.20320321177E+03  0.20419996412E+03  0.00000000000E+00 0.  1.
         -2    1    1    2    0  503  0.17975577273E+02  0.91081664196E+01 -0.20182638597E+03  0.20282990447E+03  0.00000000000E+00 0. -1.
</event>
<event>
 4    1  0.1820060E+004  0.2573550E+02  0.7546771E-02  0.1460741E+00
         21   -1    0    0  501  502  0.00000000000E+00  0.00000000000E+00  0.75542315153E+02  0.75542315153E+02  0.00000000000E+00 0. -1.
         21   -1    0    0  502  503 -0.00000000000E+00 -0.00000000000E+00 -0.88220320768E+01  0.88220320768E+01  0.00000000000E+00 0.  1.
          2    1    1    2  501    0 -0.14024373957E+02  0.21578528517E+02  0.36677089509E+02  0.44805410976E+02  0.00000000000E+00 0.  1.
         -2    1    1    2    0  503  0.14024373957E+02 -0.21578528517E+02  0.30043193567E+02  0.39558936254E+02  0.00000000000E+00 0. -1.
</event>
<event>
 4    1  0.1820060E+004  0.2262184E+02  0.7546771E-02  0.1497302E+00
         21   -1    0    0  503  502  0.00000000000E+00  0.00000000000E+00  0.71779141862E+02  0.71779141862E+02  0.00000000000E+00 0. -1.
         21   -1    0    0  501  503 -0.00000000000E+00 -0.00000000000E+00 -0.33017658522E+02  0.33017658522E+02  0.00000000000E+00 0.  1.
          2    1    1    2  501    0  0.16149661802E+02 -0.15840959412E+02 -0.27016876232E+02  0.35237184518E+02  0.00000000000E+00 0.  1.
         -2    1    1    2    0  502 -0.16149661802E+02  0.15840959412E+02  0.65778359572E+02  0.69559615866E+02  0.00000000000E+00 0. -1.
</event>
<event>
 4    1  0.1820060E+004  0.2598820E+02  0.7546771E-02  0.1458045E+00
         21   -1    0    0  503  502  0.00000000000E+00  0.00000000000E+00  0.59483673306E+01  0.59483673306E+01  0.00000000000E+00 0. -1.
         21   -1    0    0  501  503 -0.00000000000E+00 -0.00000000000E+00 -0.22731182838E+03  0.22731182838E+03  0.00000000000E+00 0.  1.
          2    1    1    2  501    0 -0.23992855887E+02  0.99864615670E+01 -0.19319316330E+03  0.19493328319E+03  0.00000000000E+00 0.  1.
         -2    1    1    2    0  502  0.23992855887E+02 -0.99864615670E+01 -0.28170297747E+02  0.38326912522E+02  0.00000000000E+00 0. -1.
</event>
<event>
 4    1  0.1820060E+004  0.2020972E+02  0.7546771E-02  0.1530854E+00
         21   -1    0    0  503  502  0.00000000000E+00  0.00000000000E+00  0.40503237766E+02  0.40503237766E+02  0.00000000000E+00 0.  1.
         21   -1    0    0  501  503 -0.00000000000E+00 -0.00000000000E+00 -0.11683621611E+02  0.11683621611E+02  0.00000000000E+00 0. -1.
          2    1    1    2  501    0 -0.30667868928E+00 -0.20207393433E+02  0.47546975228E+01  0.20761501624E+02  0.00000000000E+00 0. -1.
         -2    1    1    2    0  502  0.30667868928E+00  0.20207393433E+02  0.24064918632E+02  0.31425357754E+02  0.00000000000E+00 0.  1.
</event>
<event>
 4    1  0.1820060E+004  0.3609896E+02  0.7546771E-02  0.1372998E+00
         21   -1    0    0  503  502  0.00000000000E+00  0.00000000000E+00  0.47018074046E+01  0.47018074046E+01  0.00000000000E+00 0.  1.
         21   -1    0    0  501  503 -0.00000000000E+00 -0.00000000000E+00 -0.38299556910E+03  0.38299556910E+03  0.00000000000E+00 0. -1.
          2    1    1    2  501    0  0.29634955157E+02  0.20613205911E+02 -0.29105052648E+03  0.29328065703E+03  0.00000000000E+00 0. -1.
         -2    1    1    2    0  502 -0.29634955157E+02 -0.20613205911E+02 -0.87243235218E+02  0.94416719475E+02  0.00000000000E+00 0.  1.
</event>
<event>
 4    1  0.1820060E+004  0.2243417E+02  0.7546771E-02  0.1499728E+00
         21   -1    0    0  501  502  0.00000000000E+00  0.00000000000E+00  0.61358224999E+03  0.61358224999E+03  0.00000000000E+00 0. -1.
         21   -1    0    0  502  503 -0.00000000000E+00 -0.00000000000E+00 -0.89846499008E+00  0.89846499008E+00  0.00000000000E+00 0.  1.
          2    1    1    2  501    0 -0.72442355736E+00 -0.22422467988E+02  0.39699194628E+03  0.39762532273E+03  0.00000000000E+00 0. -1.
         -2    1    1    2    0  503  0.72442355736E+00  0.22422467988E+02  0.21569183872E+03  0.21685539225E+03  0.00000000000E+00 0.  1.
</event>
<event>
 4    1  0.1820060E+004  0.2669624E+02  0.7546771E-02  0.1450683E+00
         21   -1    0    0  501  502  0.00000000000E+00  0.00000000000E+00  0.79928895066E+02  0.79928895066E+02  0.00000000000E+00 0.  1.
         21   -1    0    0  502  503 -0.00000000000E+00 -0.00000000000E+00 -0.25084599548E+02  0.25084599548E+02  0.00000000000E+00 0. -1.
          2    1    1    2  501    0  0.13102258917E+02 -0.23259840798E+02  0.69576308467E+02  0.74522158333E+02  0.00000000000E+00 0.  1.
         -2    1    1    2    0  503 -0.13102258917E+02  0.23259840798E+02 -0.14732012950E+02  0.30491336281E+02  0.00000000000E+00 0. -1.
</event>
<event>
 4    1  0.1820060E+004  0.2021689E+02  0.7546771E-02  0.1530746E+00
         21   -1    0    0  501  502  0.00000000000E+00  0.00000000000E+00  0.17222503655E+02  0.17222503655E+02  0.00000000000E+00 0. -1.
         21   -1    0    0  502  503 -0.00000000000E+00 -0.00000000000E+00 -0.26143013652E+02  0.26143013652E+02  0.00000000000E+00 0.  1.
          2    1    1    2  501    0  0.17651430149E+02  0.98564570592E+01  0.21245901252E+01  0.20328222137E+02  0.00000000000E+00 0. -1.
         -2    1    1    2    0  503 -0.17651430149E+02 -0.98564570592E+01 -0.11045100122E+02  0.23037295170E+02  0.00000000000E+00 0.  1.
</event>
<event>
 4    1  0.1820060E+004  0.4438827E+02  0.7546771E-02  0.1324527E+00
         21   -1    0    0  501  502  0.00000000000E+00  0.00000000000E+00  0.15187257755E+02  0.15187257755E+02  0.00000000000E+00 0.  1.
         21   -1    0    0  502  503 -0.00000000000E+00 -0.00000000000E+00 -0.13298911799E+03  0.13298911799E+03  0.00000000000E+00 0. -1.
          2    1    1    2  501    0 -0.30200848319E+02 -0.32530404076E+02 -0.47311566941E+02  0.64874515759E+02  0.00000000000E+00 0. -1.
         -2    1    1    2    0  503  0.30200848319E+02  0.32530404076E+02 -0.70490293298E+02  0.83301859990E+02  0.00000000000E+00 0.  1.
</event>
<event>
 4    1  0.1820060E+004  0.2535188E+02  0.7546771E-02  0.1464905E+00
         21   -1    0    0  501  502  0.00000000000E+00  0.00000000000E+00  0.55661994728E+03  0.55661994728E+03  0.00000000000E+00 0. -1.
         21   -1    0    0  502  503 -0.00000000000E+00 -0.00000000000E+00 -0.34568063472E+01  0.34568063472E+01  0.00000000000E+00 0.  1.
          2    1    1    2  501    0 -0.12524161962E+02  0.22042302816E+02  0.50511231446E+03  0.50574812700E+03  0.00000000000E+00 0. -1.
         -2    1    1    2    0  503  0.12524161962E+02 -0.22042302816E+02  0.48050826470E+02  0.54328626623E+02  0.00000000000E+00 0.  1.
</event>
<event>
 4    1  0.1820060E+004  0.2283185E+02  0.7546771E-02  0.1494621E+00
         21   -1    0    0  501  502  0.00000000000E+00  0.00000000000E+00  0.10952527049E+03  0.10952527049E+03  0.00000000000E+00 0.  1.
         21   -1    0    0  502  503 -0.00000000000E+00 -0.00000000000E+00 -0.13383147761E+02  0.13383147761E+02  0.00000000000E+00 0. -1.
          2    1    1    2  501    0  0.17687337655E+02 -0.14437842737E+02  0.97401642734E+02  0.10004185736E+03  0.00000000000E+00 0.  1.
         -2    1    1    2    0  503 -0.17687337655E+02  0.14437842737E+02 -0.12595200095E+01  0.22866560889E+02  0.00000000000E+00 0. -1.
</event>
<event>
 4    1  0.1820060E+004  0.2884007E+02  0.7546771E-02  0.1429951E+00
         21   -1    0    0  501  502  0.00000000000E+00  0.00000000000E+00  0.29682920981E+02  0.29682920981E+02  0.00000000000E+00 0.  1.
         21   -1    0    0  502  503 -0.00000000000E+00 -0.00000000000E+00 -0.36261728121E+02  0.36261728121E+02  0.00000000000E+00 0. -1.
          2    1    1    2  501    0 -0.89066665993E+01  0.27430289001E+02  0.12428848940E+02  0.31404231412E+02  0.00000000000E+00 0.  1.
         -2    1    1    2    0  503  0.89066665993E+01 -0.27430289001E+02 -0.19007656081E+02  0.34540417691E+02  0.00000000000E+00 0. -1.
</event>
<event>
 4    1  0.1820060E+004  0.3315980E+02  0.7546771E-02  0.1393983E+00
         21   -1    0    0  501  502  0.00000000000E+00  0.00000000000E+00  0.15320337790E+04  0.15320337790E+04  0.00000000000E+00 0.  1.
         21   -1    0    0  502  503 -0.00000000000E+00 -0.00000000000E+00 -0.23529250698E+01  0.23529250698E+01  0.00000000000E+00 0. -1.
          2    1    1    2  501    0  0.98141293301E+01  0.31674204638E+02  0.14044085361E+04  0.14047999533E+04  0.00000000000E+00 0.  1.
         -2    1    1    2    0  503 -0.98141293301E+01 -0.31674204638E+02  0.12527231781E+03  0.12958675080E+03  0.00000000000E+00 0. -1.
</event>
<event>
 4    1  0.1820060E+004  0.2563601E+02  0.7546771E-02  0.1461813E+00
         21   -1    0    0  503  502  0.00000000000E+00  0.00000000000E+00  0.24893454653E+01  0.24893454653E+01  0.00000000000E+00 0.  1.
         21   -1    0    0  501  503 -0.00000000000E+00 -0.00000000000E+00 -0.32115353076E+03  0.32115353076E+03  0.00000000000E+00 0. -1.
          2    1    1    2  501    0  0.25526671796E+02 -0.23651290995E+01 -0.22759336293E+03  0.22903262575E+03  0.00000000000E+00 0. -1.
         -2    1    1    2    0  502 -0.25526671796E+02  0.23651290995E+01 -0.91070822367E+02  0.94610250477E+02  0.00000000000E+00 0.  1.
</event>
<event>
 4    1  0.1820060E+004  0.2882360E+02  0.7546771E-02  0.1430102E+00
         21   -1    0    0  503  502  0.00000000000E+00  0.00000000000E+00  0.17585663786E+02  0.17585663786E+02  0.00000000000E+00 0.  1.
         21   -1    0    0  501  503 -0.00000000000E+00 -0.00000000000E+00 -0.47368816209E+02  0.47368816209E+02  0.00000000000E+00 0. -1.
          2    1    1    2  501    0 -0.75428605660E+01  0.27819153952E+02 -0.13217996556E+02  0.31709864476E+02  0.00000000000E+00 0. -1.
         -2    1    1    2    0  502  0.75428605660E+01 -0.27819153952E+02 -0.16565155867E+02  0.33244615519E+02  0.00000000000E+00 0.  1.
</event>
<event>
 4    1  0.1820060E+004  0.2018494E+02  0.7546771E-02  0.1531227E+00
         21   -1    0    0  503  502  0.00000000000E+00  0.00000000000E+00  0.30536318953E+02  0.30536318953E+02  0.00000000000E+00 0. -1.
         21   -1    0    0  501  503 -0.00000000000E+00 -0.00000000000E+00 -0.43073807345E+02  0.43073807345E+02  0.00000000000E+00 0.  1.
          2    1    1    2  501    0  0.11441282009E+02  0.16629160207E+02 -0.36846646197E+02  0.42013179351E+02  0.00000000000E+00 0.  1.
         -2    1    1    2    0  502 -0.11441282009E+02 -0.16629160207E+02  0.24309157805E+02  0.31596946947E+02  0.00000000000E+00 0. -1.
</event>
<event>
 4    1  0.1820060E+004  0.2527645E+02  0.7546771E-02  0.1465734E+00
         21   -1    0    0  503  502  0.00000000000E+00  0.00000000000E+00  0.19052263589E+03  0.19052263589E+03  0.00000000000E+00 0.  1.
         21   -1    0    0  501  503 -0.00000000000E+00 -0.00000000000E+00 -0.36266727556E+01  0.36266727556E+01  0.00000000000E+00 0. -1.
          2    1    1    2  501    0  0.13362509320E+02 -0.21455591800E+02  0.12009495480E+03  0.12272610661E+03  0.00000000000E+00 0. -1.
         -2    1    1    2    0  502 -0.13362509320E+02  0.21455591800E+02  0.66801008333E+02  0.71423202036E+02  0.00000000000E+00 0.  1.
</event>
<event>
 4    1  0.1820060E+004  0.2093494E+02  0.7546771E-02  0.1520196E+00
         21   -1    0    0  501  502  0.00000000000E+00  0.00000000000E+00  0.46778161327E+02  0.46778161327E+02  0.00000000000E+00 0.  1.
         21   -1    0    0  502  503 -0.00000000000E+00 -0.00000000000E+00 -0.97762165232E+01  0.97762165232E+01  0.00000000000E+00 0. -1.
          2    1    1    2  501    0  0.16758518041E+02 -0.12546855538E+02  0.24271089872E+02  0.32052415110E+02  0.00000000000E+00 0. -1.
         -2    1    1    2    0  503 -0.16758518041E+02  0.12546855538E+02  0.12730854932E+02  0.24501962740E+02  0.00000000000E+00 0.  1.
</event>
<event>
 4    1  0.1820060E+004  0.2010824E+02  0.7546771E-02  0.1532387E+00
         21   -1    0    0  501  502  0.00000000000E+00  0.00000000000E+00  0.28361947272E+03  0.28361947272E+03  0.00000000000E+00 0. -1.
         21   -1    0    0  502  503 -0.00000000000E+00 -0.00000000000E+00 -0.16414927004E+01  0.16414927004E+01  0.00000000000E+00 0.  1.
          2    1    1    2  501    0 -0.20017803258E+02 -0.19049551892E+01  0.19270968996E+03  0.19375594418E+03  0.00000000000E+00 0.  1.
         -2    1    1    2    0  503  0.20017803258E+02  0.19049551892E+01  0.89268290054E+02  0.91505021232E+02  0.00000000000E+00 0. -1.
</event>
<event>
 4    1  0.1820060E+004  0.2240787E+02  0.7546771E-02  0.1500071E+00
         21   -1    0    0  501  502  0.00000000000E+00  0.00000000000E+00  0.37755765444E+01  0.37755765444E+01  0.00000000000E+00 0.  1.
         21   -1    0    0  502  503 -0.00000000000E+00 -0.00000000000E+00 -0.90804480198E+03  0.90804480198E+03  0.00000000000E+00 0. -1.
          2    1    1    2  501    0  0.31811394941E+01 -0.22180910185E+02 -0.30931107115E+02  0.38194840129E+02  0.00000000000E+00 0.  1.
         -2    1    1    2    0  503 -0.31811394941E+01  0.22180910185E+02 -0.87333811832E+03  0.87362553839E+03  0.00000000000E+00 0. -1.
</event>
<event>
 4    1  0.1820060E+004  0.2651626E+02  0.7546771E-02  0.1452529E+00
         21   -1    0    0  501  502  0.00000000000E+00  0.00000000000E+00  0.61016267839E+01  0.61016267839E+01  0.00000000000E+00 0.  1.
         21   -1    0    0  502  503 -0.00000000000E+00 -0.00000000000E+00 -0.11228642753E+04  0.11228642753E+04  0.00000000000E+00 0. -1.
          2    1    1    2  501    0  0.12558632078E+02 -0.23353646285E+02 -0.23647198377E+02  0.35528890013E+02  0.00000000000E+00 0.  1.
         -2    1    1    2    0  503 -0.12558632078E+02  0.23353646285E+02 -0.10931154501E+04  0.10934370120E+04  0.00000000000E+00 0. -1.
</event>
<event>
 4    1  0.1820060E+004  0.2116363E+02  0.7546771E-02  0.1516941E+00
         21   -1    0    0  501  502  0.00000000000E+00  0.00000000000E+00  0.10103138056E+01  0.10103138056E+01  0.00000000000E+00 0.  1.
         21   -1    0    0  502  503 -0.00000000000E+00 -0.00000000000E+00 -0.44341402064E+03  0.44341402064E+03  0.00000000000E+00 0. -1.
          2    1    1    2  501    0  0.20435822515E+02 -0.55024180636E+01 -0.22431379343E+03  0.22530995843E+03  0.00000000000E+00 0. -1.
         -2    1    1    2    0  503 -0.20435822515E+02  0.55024180636E+01 -0.21808991341E+03  0.21911437602E+03  0.00000000000E+00 0.  1.
</event>
<event>
 4    1  0.1820060E+004  0.2874298E+02  0.7546771E-02  0.1430844E+00
         21   -1    0    0  503  502  0.00000000000E+00  0.00000000000E+00  0.38664134886E+03  0.38664134886E+03  0.00000000000E+00 0. -1.
         21   -1    0    0  501  503 -0.00000000000E+00 -0.00000000000E+00 -0.72774694299E+01  0.72774694299E+01  0.00000000000E+00 0.  1.
          2    1    1    2  501    0 -0.25174770789E+02 -0.13870465122E+02  0.24143764859E+02  0.37537717945E+02  0.00000000000E+00 0.  1.
         -2    1    1    2    0  502  0.25174770789E+02  0.13870465122E+02  0.35522011457E+03  0.35638110034E+03  0.00000000000E+00 0. -1.
</event>
<event>
 4    1  0.1820060E+004  0.2123573E+02  0.7546771E-02  0.1515926E+00
         21   -1    0    0  503  502  0.00000000000E+00  0.00000000000E+00  0.16677967342E+02  0.16677967342E+02  0.00000000000E+00 0.  1.
         21   -1    0    0  501  503 -0.00000000000E+00 -0.00000000000E+00 -0.47675008234E+02  0.47675008234E+02  0.00000000000E+00 0. -1.
          2    1    1    2  501    0 -0.84065372447E+01  0.19500932684E+02 -0.36667779756E+02  0.42373132008E+02  0.00000000000E+00 0. -1.
         -2    1    1    2    0  502  0.84065372447E+01 -0.19500932684E+02  0.56707388628E+01  0.21979843567E+02  0.00000000000E+00 0.  1.
</event>
<event>
 4    1  0.1820060E+004  0.2047954E+02  0.7546771E-02  0.1526827E+00
         21   -1    0    0  503  502  0.00000000000E+00  0.00000000000E+00  0.82303638269E+00  0.82303638269E+00  0.00000000000E+00 0. -1.
         21   -1    0    0  501  503 -0.00000000000E+00 -0.00000000000E+00 -0.52099633899E+03  0.52099633899E+03  0.00000000000E+00 0.  1.
          2    1    1    2  501    0  0.11293148868E+02  0.17084385491E+02 -0.29869119317E+03  0.29939245200E+03  0.00000000000E+00 0. -1.
         -2    1    1    2    0  502 -0.11293148868E+02 -0.17084385491E+02 -0.22148210944E+03  0.22242692337E+03  0.00000000000E+00 0.  1.
</event>
<event>
 4    1  0.1820060E+004  0.2520893E+02  0.7546771E-02  0.1466480E+00
         21   -1    0    0  501  502  0.00000000000E+00  0.00000000000E+00  0.20855959742E+02  0.20855959742E+02  0.00000000000E+00 0.  1.
         21   -1    0    0  502  503 -0.00000000000E+00 -0.00000000000E+00 -0.55104975820E+02  0.55104975820E+02  0.00000000000E+00 0. -1.
          2    1    1    2  501    0  0.19847155730E+02  0.15542859908E+02  0.82698460718E+01  0.26530745159E+02  0.00000000000E+00 0.  1.
         -2    1    1    2    0  503 -0.19847155730E+02 -0.15542859908E+02 -0.42518862150E+02  0.49430190402E+02  0.00000000000E+00 0. -1.
</event>
<event>
 4    1  0.1820060E+004  0.2577916E+02  0.7546771E-02  0.1460273E+00
         21   -1    0    0  501  502  0.00000000000E+00  0.00000000000E+00  0.71696470220E+01  0.71696470220E+01  0.00000000000E+00 0. -1.
         21   -1    0    0  502  503 -0.00000000000E+00 -0.00000000000E+00 -0.96193624770E+02  0.96193624770E+02  0.00000000000E+00 0.  1.
          2    1    1    2  501    0  0.38159476146E+01 -0.25495169712E+02 -0.34650768548E+02  0.43188434746E+02  0.00000000000E+00 0. -1.
         -2    1    1    2    0  503 -0.38159476146E+01  0.25495169712E+02 -0.54373209200E+02  0.60174837046E+02  0.00000000000E+00 0.  1.
</event>
<event>
 4    1  0.1820060E+004  0.3617373E+02  0.7546771E-02  0.1372494E+00
         21   -1    0    0  501  502  0.00000000000E+00  0.00000000000E+00  0.44425222771E+02  0.44425222771E+02  0.00000000000E+00 0. -1.
         21   -1    0    0  502  503 -0.00000000000E+00 -0.00000000000E+00 -0.16566549609E+03  0.16566549609E+03  0.00000000000E+00 0.  1.
          2    1    1    2  501    0  0.31782759723E+02  0.17274104624E+02  0.34630164358E+02  0.50077807356E+02  0.00000000000E+00 0. -1.
         -2    1    1    2    0  503 -0.31782759723E+02 -0.17274104624E+02 -0.15587043767E+03  0.16001291150E+03  0.00000000000E+00 0.  1.
</event>
<event>
 4    1  0.1820060E+004  0.2154903E+02  0.7546771E-02  0.1511569E+00
         21   -1    0    0  501  502  0.00000000000E+00  0.00000000000E+00  0.16409943970E+03  0.16409943970E+03  0.00000000000E+00 0.  1.
         21   -1    0    0  502  503 -0.00000000000E+00 -0.00000000000E+00 -0.32847890586E+01  0.32847890586E+01  0.00000000000E+00 0. -1.
          2    1    1    2  501    0 -0.16593850350E+01  0.21485041532E+02  0.11155707889E+03  0.11361928718E+03  0.00000000000E+00 0.  1.
         -2    1    1    2    0  503  0.16593850350E+01 -0.21485041532E+02  0.49257571749E+02  0.53764941579E+02  0.00000000000E+00 0. -1.
</event>
<event>
 4    1  0.1820060E+004  0.2802103E+02  0.7546771E-02  0.1437613E+00
         21   -1    0    0  503  502  0.00000000000E+00  0.00000000000E+00  0.24735243002E+02  0.24735243002E+02  0.00000000000E+00 0.  1.
         21   -1    0    0  501  503 -0.00000000000E+00 -0.00000000000E+00 -0.55858349448E+02  0.55858349448E+02  0.00000000000E+00 0. -1.
          2    1    1    2  501    0  0.12337451771E+02 -0.25158805439E+02 -0.42038662010E+02  0.50521552935E+02  0.00000000000E+00 0. -1.
         -2    1    1    2    0  502 -0.12337451771E+02  0.25158805439E+02  0.10915555564E+02  0.30072039515E+02  0.00000000000E+00 0.  1.
</event>
<event>
 4    1  0.1820060E+004  0.2440721E+02  0.7546771E-02  0.1475545E+00
         21   -1    0    0  503  502  0.00000000000E+00  0.00000000000E+00  0.15544250725E+02  0.15544250725E+02  0.00000000000E+00 0. -1.
         21   -1    0    0  501  503 -0.00000000000E+00 -0.00000000000E+00 -0.76409643672E+02  0.76409643672E+02  0.00000000000E+00 0.  1.
          2    1    1    2  501    0  0.13360794642E+02  0.20425504580E+02 -0.62892719180E+02  0.67462628148E+02  0.00000000000E+00 0.  1.
         -2    1    1    2    0  502 -0.13360794642E+02 -0.20425504580E+02  0.20273262335E+01  0.24491266249E+02  0.00000000000E+00 0. -1.
</event>
<event>
 4    1  0.1820060E+004  0.2702847E+02  0.7546771E-02  0.1447322E+00
         21   -1    0    0  503  502  0.00000000000E+00  0.00000000000E+00  0.37411403091E+03  0.37411403091E+03  0.00000000000E+00 0.  1.
         21   -1    0    0  501  503 -0.00000000000E+00 -0.00000000000E+00 -0.47762739682E+01  0.47762739682E+01  0.00000000000E+00 0. -1.
          2    1    1    2  501    0 -0.26920309520E+02 -0.24155967272E+01  0.39009888552E+02  0.47458503738E+02  0.00000000000E+00 0. -1.
         -2    1    1    2    0  502  0.26920309520E+02  0.24155967272E+01  0.33032786839E+03  0.33143180114E+03  0.00000000000E+00 0.  1.
</event>
<event>
 4    1  0.1820060E+004  0.2227317E+02  0.7546771E-02  0.1501832E+00
         21   -1    0    0  501  502  0.00000000000E+00  0.00000000000E+00  0.13603303219E+03  0.13603303219E+03  0.00000000000E+00 0. -1.
         21   -1    0    0  502  503 -0.00000000000E+00 -0.00000000000E+00 -0.38547596776E+01  0.38547596776E+01  0.00000000000E+00 0.  1.
          2    1    1    2  501    0 -0.11276307552E+02 -0.19207782014E+02  0.82332412662E+02  0.85291970177E+02  0.00000000000E+00 0.  1.
         -2    1    1    2    0  503  0.11276307552E+02  0.19207782014E+02  0.49845859855E+02  0.54595821695E+02  0.00000000000E+00 0. -1.
</event>
<event>
 4    1  0.1820060E+004  0.2108916E+02  0.7546771E-02  0.1517996E+00
         21   -1    0    0  503  502  0.00000000000E+00  0.00000000000E+00  0.62379176210E+02  0.62379176210E+02  0.00000000000E+00 0.  1.
         21   -1    0    0  501  503 -0.00000000000E+00 -0.00000000000E+00 -0.16678865169E+02  0.16678865169E+02  0.00000000000E+00 0. -1.
          2    1    1    2  501    0  0.13513688509E+02  0.16190513735E+02 -0.70595888953E+01  0.22239386401E+02  0.00000000000E+00 0. -1.
         -2    1    1    2    0  502 -0.13513688509E+02 -0.16190513735E+02  0.52759899937E+02  0.56818654978E+02  0.00000000000E+00 0.  1.
</event>
<event>
 4    1  0.1820060E+004  0.5862051E+02  0.7546771E-02  0.1264593E+00
         21   -1    0    0  501  502  0.00000000000E+00  0.00000000000E+00  0.90096476223E+02  0.90096476223E+02  0.00000000000E+00 0. -1.
         21   -1    0    0  502  503 -0.00000000000E+00 -0.00000000000E+00 -0.43506424089E+02  0.43506424089E+02  0.00000000000E+00 0.  1.
          2    1    1    2  501    0  0.36209400128E+02 -0.46100364863E+02 -0.16419834339E+00  0.58620740862E+02  0.00000000000E+00 0.  1.
         -2    1    1    2    0  503 -0.36209400128E+02  0.46100364863E+02  0.46754250478E+02  0.74982159450E+02  0.00000000000E+00 0. -1.
</event>
<event>
 4    1  0.1820060E+004  0.2691968E+02  0.7546771E-02  0.1448417E+00
         21   -1    0    0  501  502  0.00000000000E+00  0.00000000000E+00  0.87934509754E+03  0.87934509754E+03  0.00000000000E+00 0. -1.
         21   -1    0    0  502  503 -0.00000000000E+00 -0.00000000000E+00 -0.94659278649E+00  0.94659278649E+00  0.00000000000E+00 0.  1.
          2    1    1    2  501    0 -0.10864172936E+02  0.24630041474E+02  0.59753116228E+03  0.59813724102E+03  0.00000000000E+00 0. -1.
         -2    1    1    2    0  503  0.10864172936E+02 -0.24630041474E+02  0.28086734248E+03  0.28215444931E+03  0.00000000000E+00 0.  1.
</event>
<event>
 4    1  0.1820060E+004  0.2234190E+02  0.7546771E-02  0.1500931E+00
         21   -1    0    0  503  502  0.00000000000E+00  0.00000000000E+00  0.45164585435E+01  0.45164585435E+01  0.00000000000E+00 0.  1.
         21   -1    0    0  501  503 -0.00000000000E+00 -0.00000000000E+00 -0.19587847871E+03  0.19587847871E+03  0.00000000000E+00 0. -1.
          2    1    1    2  501    0  0.16618511656E+02  0.14932704579E+02 -0.16182430447E+03  0.16335931596E+03  0.00000000000E+00 0. -1.
         -2    1    1    2    0  502 -0.16618511656E+02 -0.14932704579E+02 -0.29537715704E+02  0.37035621295E+02  0.00000000000E+00 0.  1.
</event>
<event>
 4    1  0.1820060E+004  0.2543854E+02  0.7546771E-02  0.1463957E+00
         21   -1    0    0  503  502  0.00000000000E+00  0.00000000000E+00  0.31869379603E+02  0.31869379603E+02  0.00000000000E+00 0.  1.
         21   -1    0    0  501  503 -0.00000000000E+00 -0.00000000000E+00 -0.37480558333E+02  0.37480558333E+02  0.00000000000E+00 0. -1.
          2    1    1    2  501    0  0.14875077706E+02 -0.20636169559E+02 -0.26278332934E+02  0.36574174121E+02  0.00000000000E+00 0. -1.
         -2    1    1    2    0  502 -0.14875077706E+02  0.20636169559E+02  0.20667154204E+02  0.32775763815E+02  0.00000000000E+00 0.  1.
</event>
<event>
 4    1  0.1820060E+004  0.2153400E+02  0.7546771E-02  0.1511776E+00
         21   -1    0    0  503  502  0.00000000000E+00  0.00000000000E+00  0.13307053167E+01  0.13307053167E+01  0.00000000000E+00 0. -1.
         21   -1    0    0  501  503 -0.00000000000E+00 -0.00000000000E+00 -0.34851187008E+03  0.34851187008E+03  0.00000000000E+00 0.  1.
          2    1    1    2  501    0  0.21055649238E+02 -0.45135992011E+01 -0.17170909426E+03  0.17305411291E+03  0.00000000000E+00 0. -1.
         -2    1    1    2    0  502 -0.21055649238E+02  0.45135992011E+01 -0.17547207050E+03  0.17678846249E+03  0.00000000000E+00 0.  1.
</event>
<event>
 4    1  0.1820060E+004  0.2863983E+02  0.7546771E-02  0.1431796E+00
         21   -1    0    0  501  502  0.00000000000E+00  0.00000000000E+00  0.15614489450E+02  0.15614489450E+02  0.00000000000E+00 0. -1.
         21   -1    0    0  502  503 -0.00000000000E+00 -0.00000000000E+00 -0.16745177112E+03  0.16745177112E+03  0.00000000000E+00 0.  1.
          2    1    1    2  501    0 -0.24064592860E+02 -0.15528528224E+02 -0.89994351846E-01  0.28639970623E+02  0.00000000000E+00 0. -1.
         -2    1    1    2    0  503  0.24064592860E+02  0.15528528224E+02 -0.15174728731E+03  0.15442628994E+03  0.00000000000E+00 0.  1.
</event>
<event>
 4    1  0.1820060E+004  0.2749317E+02  0.7546771E-02  0.1442716E+00
         21   -1    0    0  503  502  0.00000000000E+00  0.00000000000E+00  0.49987066037E+01  0.49987066037E+01  0.00000000000E+00 0. -1.
         21   -1    0    0  501  503 -0.00000000000E+00 -0.00000000000E+00 -0.34130646572E+03  0.34130646572E+03  0.00000000000E+00 0.  1.
          2    1    1    2  501    0  0.20206198697E-01  0.27493161215E+02 -0.29737669504E+03  0.29864489461E+03  0.00000000000E+00 0.  1.
         -2    1    1    2    0  502 -0.20206198697E-01 -0.27493161215E+02 -0.38931064075E+02  0.47660277716E+02  0.00000000000E+00 0. -1.
</event>
<event>
 4    1  0.1820060E+004  0.3409754E+02  0.7546771E-02  0.1387021E+00
         21   -1    0    0  501  502  0.00000000000E+00  0.00000000000E+00  0.11461762793E+03  0.11461762793E+03  0.00000000000E+00 0.  1.
         21   -1    0    0  502  503 -0.00000000000E+00 -0.00000000000E+00 -0.17712792065E+02  0.17712792065E+02  0.00000000000E+00 0. -1.
          2    1    1    2  501    0  0.23632094341E+02 -0.24579794545E+02  0.91704721322E+02  0.97838632940E+02  0.00000000000E+00 0.  1.
         -2    1    1    2    0  503 -0.23632094341E+02  0.24579794545E+02  0.52001145401E+01  0.34491787052E+02  0.00000000000E+00 0. -1.
</event>
<event>
 4    1  0.1820060E+004  0.2267481E+02  0.7546771E-02  0.1496622E+00
         21   -1    0    0  501  502  0.00000000000E+00  0.00000000000E+00  0.15391232950E+02  0.15391232950E+02  0.00000000000E+00 0.  1.
         21   -1    0    0  502  503 -0.00000000000E+00 -0.00000000000E+00 -0.57269106159E+02  0.57269106159E+02  0.00000000000E+00 0. -1.
          2    1    1    2  501    0  0.19544979575E+02 -0.11495248998E+02  0.25129685870E+01  0.22813635993E+02  0.00000000000E+00 0.  1.
         -2    1    1    2    0  503 -0.19544979575E+02  0.11495248998E+02 -0.44390841797E+02  0.49846703116E+02  0.00000000000E+00 0. -1.
</event>
<event>
 4    1  0.1820060E+004  0.2858243E+02  0.7546771E-02  0.1432329E+00
         21   -1    0    0  503  502  0.00000000000E+00  0.00000000000E+00  0.15279180800E+02  0.15279180800E+02  0.00000000000E+00 0. -1.
         21   -1    0    0  501  503 -0.00000000000E+00 -0.00000000000E+00 -0.82411471342E+02  0.82411471342E+02  0.00000000000E+00 0.  1.
          2    1    1    2  501    0  0.27259180061E+02 -0.85960794838E+01 -0.62512937313E+02  0.68737346556E+02  0.00000000000E+00 0.  1.
         -2    1    1    2    0  502 -0.27259180061E+02  0.85960794838E+01 -0.46193532287E+01  0.28953305585E+02  0.00000000000E+00 0. -1.
</event>
<event>
 4    1  0.1820060E+004  0.2200040E+02  0.7546771E-02  0.1505447E+00
         21   -1    0    0  501  502  0.00000000000E+00  0.00000000000E+00  0.42693804995E+01  0.42693804995E+01  0.00000000000E+00 0.  1.
         21   -1    0    0  502  503 -0.00000000000E+00 -0.00000000000E+00 -0.43157089174E+03  0.43157089174E+03  0.00000000000E+00 0. -1.
          2    1    1    2  501    0 -0.16692270387E+02  0.14331281783E+02 -0.26529842933E+02  0.34465201208E+02  0.00000000000E+00 0.  1.
         -2    1    1    2    0  503  0.16692270387E+02 -0.14331281783E+02 -0.40077166831E+03  0.40137507104E+03  0.00000000000E+00 0. -1.
</event>
<event>
 4    1  0.1820060E+004  0.2082346E+02  0.7546771E-02  0.1521800E+00
         21   -1    0    0  503  502  0.00000000000E+00  0.00000000000E+00  0.36318050930E+01  0.36318050930E+01  0.00000000000E+00 0.  1.
         21   -1    0    0  501  503 -0.00000000000E+00 -0.00000000000E+00 -0.12991479893E+03  0.12991479893E+03  0.00000000000E+00 0. -1.
          2    1    1    2  501    0  0.20382543404E+02  0.42624381420E+01 -0.82143256745E+02  0.84741554643E+02  0.00000000000E+00 0. -1.
         -2    1    1    2    0  502 -0.20382543404E+02 -0.42624381420E+01 -0.44139737096E+02  0.48805049385E+02  0.00000000000E+00 0.  1.
</event>
<event>
 4    1  0.1820060E+004  0.2388510E+02  0.7546771E-02  0.1481673E+00
         21   -1    0    0  503  502  0.00000000000E+00  0.00000000000E+00  0.30886082213E+02  0.30886082213E+02  0.00000000000E+00 0.  1.
         21   -1    0    0  501  503 -0.00000000000E+00 -0.00000000000E+00 -0.19932605810E+02  0.19932605810E+02  0.00000000000E+00 0. -1.
          2    1    1    2  501    0  0.22426303873E+02  0.82194298628E+01 -0.14037658041E+01  0.23926317960E+02  0.00000000000E+00 0. -1.
         -2    1    1    2    0  502 -0.22426303873E+02 -0.82194298628E+01  0.12357242207E+02  0.26892370064E+02  0.00000000000E+00 0.  1.
</event>
<event>
 4    1  0.1820060E+004  0.2036553E+02  0.7546771E-02  0.1528519E+00
         21   -1    0    0  501  502  0.00000000000E+00  0.00000000000E+00  0.13582949022E+02  0.13582949022E+02  0.00000000000E+00 0. -1.
         21   -1    0    0  502  503 -0.00000000000E+00 -0.00000000000E+00 -0.55034872204E+02  0.55034872204E+02  0.00000000000E+00 0.  1.
          2    1    1    2  501    0 -0.19428822557E+02  0.61053812540E+01  0.21653247286E+01  0.20480318782E+02  0.00000000000E+00 0. -1.
         -2    1    1    2    0  503  0.19428822557E+02 -0.61053812540E+01 -0.43617247911E+02  0.48137502444E+02  0.00000000000E+00 0.  1.
</event>
<event>
 4    1  0.1820060E+004  0.2079383E+02  0.7546771E-02  0.1522229E+00
         21   -1    0    0  503  502  0.00000000000E+00  0.00000000000E+00  0.22050233514E+02  0.22050233514E+02  0.00000000000E+00 0. -1.
         21   -1    0    0  501  503 -0.00000000000E+00 -0.00000000000E+00 -0.79973411362E+02  0.79973411362E+02  0.00000000000E+00 0.  1.
          2    1    1    2  501    0  0.84201634801E+01  0.19012741621E+02 -0.73280434275E+02  0.76173522595E+02  0.00000000000E+00 0.  1.
         -2    1    1    2    0  502 -0.84201634801E+01 -0.19012741621E+02  0.15357256427E+02  0.25850122281E+02  0.00000000000E+00 0. -1.
</event>
<event>
 4    1  0.1820060E+004  0.2076087E+02  0.7546771E-02  0.1522707E+00
         21   -1    0    0  503  502  0.00000000000E+00  0.00000000000E+00  0.50097495064E+03  0.50097495064E+03  0.00000000000E+00 0. -1.
         21   -1    0    0  501  503 -0.00000000000E+00 -0.00000000000E+00 -0.91207163946E+00  0.91207163946E+00  0.00000000000E+00 0.  1.
          2    1    1    2  501    0 -0.15496757322E+02 -0.13815363228E+02  0.30978971499E+03  0.31048459102E+03  0.00000000000E+00 0. -1.
         -2    1    1    2    0  502  0.15496757322E+02  0.13815363228E+02  0.19027316402E+03  0.19140243126E+03  0.00000000000E+00 0.  1.
</event>
<event>
 4    1  0.1820060E+004  0.3282453E+02  0.7546771E-02  0.1396538E+00
         21   -1    0    0  501  502  0.00000000000E+00  0.00000000000E+00  0.43862738388E+01  0.43862738388E+01  0.00000000000E+00 0. -1.
         21   -1    0    0  502  503 -0.00000000000E+00 -0.00000000000E+00 -0.83025647233E+03  0.83025647233E+03  0.00000000000E+00 0.  1.
          2    1    1    2  501    0  0.32752837393E+02 -0.21682999180E+01 -0.62748482413E+02  0.70815407412E+02  0.00000000000E+00 0. -1.
         -2    1    1    2    0  503 -0.32752837393E+02  0.21682999180E+01 -0.76312171608E+03  0.76382733876E+03  0.00000000000E+00 0.  1.
</event>
<event>
 4    1  0.1820060E+004  0.2273228E+02  0.7546771E-02  0.1495888E+00
         21   -1    0    0  501  502  0.00000000000E+00  0.00000000000E+00  0.96199785955E+02  0.96199785955E+02  0.00000000000E+00 0.  1.
         21   -1    0    0  502  503 -0.00000000000E+00 -0.00000000000E+00 -0.11009478783E+02  0.11009478783E+02  0.00000000000E+00 0. -1.
          2    1    1    2  501    0  0.10332694399E+02  0.20248258565E+02  0.80954649776E+02  0.84085741174E+02  0.00000000000E+00 0.  1.
         -2    1    1    2    0  503 -0.10332694399E+02 -0.20248258565E+02  0.42356573962E+01  0.23123523564E+02  0.00000000000E+00 0. -1.
</event>
<event>
 4    1  0.1820060E+004  0.2065663E+02  0.7546771E-02  0.1524224E+00
         21   -1    0    0  501  502  0.00000000000E+00  0.00000000000E+00  0.25728969199E+03  0.25728969199E+03  0.00000000000E+00 0.  1.
         21   -1    0    0  502  503 -0.00000000000E+00 -0.00000000000E+00 -0.20971032160E+01  0.20971032160E+01  0.00000000000E+00 0. -1.
          2    1    1    2  501    0 -0.10840422012E+02  0.17583557221E+02  0.18691339158E+03  0.18805135518E+03  0.00000000000E+00 0.  1.
         -2    1    1    2    0  503  0.10840422012E+02 -0.17583557221E+02  0.68279197193E+02  0.71335440023E+02  0.00000000000E+00 0. -1.
</event>
<event>
 4    1  0.1820060E+004  0.2502665E+02  0.7546771E-02  0.1468506E+00
         21   -1    0    0  501  502  0.00000000000E+00  0.00000000000E+00  0.11617277646E+02  0.11617277646E+02  0.00000000000E+00 0. -1.
         21   -1    0    0  502  503 -0.00000000000E+00 -0.00000000000E+00 -0.13388924550E+03  0.13388924550E+03  0.00000000000E+00 0.  1.
          2    1    1    2  501    0  0.93512616491E+01 -0.23213938024E+02 -0.49073385916E+01  0.25503234796E+02  0.00000000000E+00 0. -1.
         -2    1    1    2    0  503 -0.93512616491E+01  0.23213938024E+02 -0.11736462926E+03  0.12000328835E+03  0.00000000000E+00 0.  1.
</event>
<event>
 4    1  0.1820060E+004  0.2105478E+02  0.7546771E-02  0.1518484E+00
         21   -1    0    0  503  502  0.00000000000E+00  0.00000000000E+00  0.30687409063E+01  0.30687409063E+01  0.00000000000E+00 0.  1.
         21   -1    0    0  501  503 -0.00000000000E+00 -0.00000000000E+00 -0.15048563905E+03  0.15048563905E+03  0.00000000000E+00 0. -1.
          2    1    1    2  501    0  0.20321942300E+02  0.55065965753E+01 -0.58342443245E+02  0.62025354723E+02  0.00000000000E+00 0.  1.
         -2    1    1    2    0  502 -0.20321942300E+02 -0.55065965753E+01 -0.89074454895E+02  0.91529025230E+02  0.00000000000E+00 0. -1.
</event>
<event>
 4    1  0.1820060E+004  0.2484153E+02  0.7546771E-02  0.1470584E+00
         21   -1    0    0  503  502  0.00000000000E+00  0.00000000000E+00  0.46265302009E+03  0.46265302009E+03  0.00000000000E+00 0.  1.
         21   -1    0    0  501  503 -0.00000000000E+00 -0.00000000000E+00 -0.65951488334E+01  0.65951488334E+01  0.00000000000E+00 0. -1.
          2    1    1    2  501    0  0.18915059837E+02 -0.16103483763E+02  0.18469367953E+02  0.30955116387E+02  0.00000000000E+00 0. -1.
         -2    1    1    2    0  502 -0.18915059837E+02  0.16103483763E+02  0.43758850330E+03  0.43829305253E+03  0.00000000000E+00 0.  1.
</event>
<event>
 4    1  0.1820060E+004  0.2248703E+02  0.7546771E-02  0.1499042E+00
         21   -1    0    0  503  502  0.00000000000E+00  0.00000000000E+00  0.99135561211E+02  0.99135561211E+02  0.00000000000E+00 0. -1.
         21   -1    0    0  501  503 -0.00000000000E+00 -0.00000000000E+00 -0.14624652035E+02  0.14624652035E+02  0.00000000000E+00 0.  1.
          2    1    1    2  501    0  0.17108901583E+01 -0.22421845980E+02 -0.36458417282E+01  0.22780660311E+02  0.00000000000E+00 0.  1.
         -2    1    1    2    0  502 -0.17108901583E+01  0.22421845980E+02  0.88156750905E+02  0.90979552936E+02  0.00000000000E+00 0. -1.
</event>
<event>
 4    1  0.1820060E+004  0.2188343E+02  0.7546771E-02  0.1507016E+00
         21   -1    0    0  503  502  0.00000000000E+00  0.00000000000E+00  0.10588197579E+02  0.10588197579E+02  0.00000000000E+00 0. -1.
         21   -1    0    0  501  503 -0.00000000000E+00 -0.00000000000E+00 -0.14899903198E+03  0.14899903198E+03  0.00000000000E+00 0.  1.
          2    1    1    2  501    0  0.97717845033E+01 -0.19580521003E+02 -0.13579620807E+03  0.13754815412E+03  0.00000000000E+00 0.  1.
         -2    1    1    2    0  502 -0.97717845033E+01  0.19580521003E+02 -0.26146263215E+01  0.22039075432E+02  0.00000000000E+00 0. -1.
</event>
<event>
 4    1  0.1820060E+004  0.2307411E+02  0.7546771E-02  0.1491570E+00
         21   -1    0    0  501  502  0.00000000000E+00  0.00000000000E+00  0.62093404652E+01  0.62093404652E+01  0.00000000000E+00 0. -1.
         21   -1    0    0  502  503 -0.00000000000E+00 -0.00000000000E+00 -0.12620933671E+03  0.12620933671E+03  0.00000000000E+00 0.  1.
          2    1    1    2  501    0  0.12769830663E+02  0.19218381496E+02 -0.22510108770E+02  0.32235380552E+02  0.00000000000E+00 0. -1.
         -2    1    1    2    0  503 -0.12769830663E+02 -0.19218381496E+02 -0.97489887477E+02  0.10018329663E+03  0.00000000000E+00 0.  1.
</event>
<event>
 4    1  0.1820060E+004  0.2553428E+02  0.7546771E-02  0.1462914E+00
         21   -1    0    0  501  502  0.00000000000E+00  0.00000000000E+00  0.27368765423E+02  0.27368765423E+02  0.00000000000E+00 0. -1.
         21   -1    0    0  502  503 -0.00000000000E+00 -0.00000000000E+00 -0.37221129952E+02  0.37221129952E+02  0.00000000000E+00 0.  1.
          2    1    1    2  501    0 -0.24219025639E+02  0.80893996749E+01  0.14449890465E+02  0.29339374984E+02  0.00000000000E+00 0. -1.
         -2    1    1    2    0  503  0.24219025639E+02 -0.80893996749E+01 -0.24302254994E+02  0.35250520391E+02  0.00000000000E+00 0.  1.
</event>
<event>
 4    1  0.1820060E+004  0.4588308E+02  0.7546771E-02  0.1317082E+00
         21   -1    0    0  501  502  0.00000000000E+00  0.00000000000E+00  0.85996960732E+02  0.85996960732E+02  0.00000000000E+00 0. -1.
         21   -1    0    0  502  503 -0.00000000000E+00 -0.00000000000E+00 -0.37763030018E+03  0.37763030018E+03  0.00000000000E+00 0.  1.
          2    1    1    2  501    0  0.43607620376E+02 -0.14269969357E+02  0.78357193935E+02  0.90802568365E+02  0.00000000000E+00 0. -1.
         -2    1    1    2    0  503 -0.43607620376E+02  0.14269969357E+02 -0.36999053338E+03  0.37282469255E+03  0.00000000000E+00 0.  1.
</event>
<event>
 4    1  0.1820060E+004  0.3308497E+02  0.7546771E-02  0.1394550E+00
         21   -1    0    0  503  502  0.00000000000E+00  0.00000000000E+00  0.46546785147E+03  0.46546785147E+03  0.00000000000E+00 0.  1.
         21   -1    0    0  501  503 -0.00000000000E+00 -0.00000000000E+00 -0.23533645787E+01  0.23533645787E+01  0.00000000000E+00 0. -1.
          2    1    1    2  501    0  0.32260279785E+02 -0.73409429112E+01  0.22523414182E+03  0.22765112285E+03  0.00000000000E+00 0.  1.
         -2    1    1    2    0  502 -0.32260279785E+02  0.73409429112E+01  0.23788034507E+03  0.24017009320E+03  0.00000000000E+00 0. -1.
</event>
<event>
 4    1  0.1820060E+004  0.2575701E+02  0.7546771E-02  0.1460510E+00
         21   -1    0    0  503  502  0.00000000000E+00  0.00000000000E+00  0.11996551330E+03  0.11996551330E+03  0.00000000000E+00 0.  1.
         21   -1    0    0  501  503 -0.00000000000E+00 -0.00000000000E+00 -0.12919370677E+02  0.12919370677E+02  0.00000000000E+00 0. -1.
          2    1    1    2  501    0 -0.15421573665E+02 -0.20630042780E+02  0.32743369746E+01  0.25964300145E+02  0.00000000000E+00 0. -1.
         -2    1    1    2    0  502  0.15421573665E+02  0.20630042780E+02  0.10377180565E+03  0.10692058383E+03  0.00000000000E+00 0.  1.
</event>
<event>
 4    1  0.1820060E+004  0.2698674E+02  0.7546771E-02  0.1447741E+00
         21   -1    0    0  501  502  0.00000000000E+00  0.00000000000E+00  0.14390406769E+02  0.14390406769E+02  0.00000000000E+00 0.  1.
         21   -1    0    0  502  503 -0.00000000000E+00 -0.00000000000E+00 -0.60707480814E+02  0.60707480814E+02  0.00000000000E+00 0. -1.
          2    1    1    2  501    0  0.12714482134E+02  0.23803913284E+02 -0.78439858850E+01  0.28103602227E+02  0.00000000000E+00 0.  1.
         -2    1    1    2    0  503 -0.12714482134E+02 -0.23803913284E+02 -0.38473088161E+02  0.46994285357E+02  0.00000000000E+00 0. -1.
</event>
<event>
 4    1  0.1820060E+004  0.2333016E+02  0.7546771E-02  0.1488393E+00
         21   -1    0    0  501  502  0.00000000000E+00  0.00000000000E+00  0.19682725015E+01  0.19682725015E+01  0.00000000000E+00 0.  1.
         21   -1    0    0  502  503 -0.00000000000E+00 -0.00000000000E+00 -0.58052171353E+03  0.58052171353E+03  0.00000000000E+00 0. -1.
          2    1    1    2  501    0  0.16431618786E+01  0.23272219126E+02 -0.78522363916E+02  0.81914942465E+02  0.00000000000E+00 0.  1.
         -2    1    1    2    0  503 -0.16431618786E+01 -0.23272219126E+02 -0.50003107711E+03  0.50057504356E+03  0.00000000000E+00 0. -1.
</event>
<event>
 4    1  0.1820060E+004  0.2052511E+02  0.7546771E-02  0.1526154E+00
         21   -1    0    0  503  502  0.00000000000E+00  0.00000000000E+00  0.14886828613E+01  0.14886828613E+01  0.00000000000E+00 0.  1.
         21   -1    0    0  501  503 -0.00000000000E+00 -0.00000000000E+00 -0.28303064810E+03  0.28303064810E+03  0.00000000000E+00 0. -1.
          2    1    1    2  501    0  0.18995283846E+02 -0.77755538037E+01 -0.13903379600E+03  0.14054065773E+03  0.00000000000E+00 0.  1.
         -2    1    1    2    0  502 -0.18995283846E+02  0.77755538037E+01 -0.14250816924E+03  0.14397867323E+03  0.00000000000E+00 0. -1.
</event>
<event>
 4    1  0.1820060E+004  0.2056073E+02  0.7546771E-02  0.1525630E+00
         21   -1    0    0  501  502  0.00000000000E+00  0.00000000000E+00  0.14514017968E+02  0.14514017968E+02  0.00000000000E+00 0.  1.
         21   -1    0    0  502  503 -0.00000000000E+00 -0.00000000000E+00 -0.37820163888E+02  0.37820163888E+02  0.00000000000E+00 0. -1.
          2    1    1    2  501    0  0.20481872316E+02 -0.17990098432E+01  0.89258569122E+00  0.20580093275E+02  0.00000000000E+00 0.  1.
         -2    1    1    2    0  503 -0.20481872316E+02  0.17990098432E+01 -0.24198731612E+02  0.31754088581E+02  0.00000000000E+00 0. -1.
</event>
<event>
 4    1  0.1820060E+004  0.2134053E+02  0.7546771E-02  0.1514458E+00
         21   -1    0    0  501  502  0.00000000000E+00  0.00000000000E+00  0.36372019010E+02  0.36372019010E+02  0.00000000000E+00 0. -1.
         21   -1    0    0  502  503 -0.00000000000E+00 -0.00000000000E+00 -0.24187026509E+02  0.24187026509E+02  0.00000000000E+00 0.  1.
          2    1    1    2  501    0  0.11041997961E+02 -0.18261781998E+02  0.27121419627E+02  0.34510720121E+02  0.00000000000E+00 0. -1.
         -2    1    1    2    0  503 -0.11041997961E+02  0.18261781998E+02 -0.14936427127E+02  0.26048325397E+02  0.00000000000E+00 0.  1.
</event>
<event>
 4    1  0.1820060E+004  0.2222357E+02  0.7546771E-02  0.1502485E+00
         21   -1    0    0  503  502  0.00000000000E+00  0.00000000000E+00  0.72217482851E+02  0.72217482851E+02  0.00000000000E+00 0. -1.
         21   -1    0    0  501  503 -0.00000000000E+00 -0.00000000000E+00 -0.73607580547E+01  0.73607580547E+01  0.00000000000E+00 0.  1.
          2    1    1    2  501    0 -0.18413024013E+02 -0.12443770269E+02  0.43023011811E+02  0.48423820761E+02  0.00000000000E+00 0. -1.
         -2    1    1    2    0  502  0.18413024013E+02  0.12443770269E+02  0.21833712985E+02  0.31154420144E+02  0.00000000000E+00 0.  1.
</event>
<event>
 4    1  0.1820060E+004  0.2113435E+02  0.7546771E-02  0.1517355E+00
         21   -1    0    0  503  502  0.00000000000E+00  0.00000000000E+00  0.34030976548E+02  0.34030976548E+02  0.00000000000E+00 0.  1.
         21   -1    0    0  501  503 -0.00000000000E+00 -0.00000000000E+00 -0.25199734768E+02  0.25199734768E+02  0.00000000000E+00 0. -1.
          2    1    1    2  501    0 -0.21038952512E+02  0.20057826080E+01 -0.16084460753E+02  0.26558813309E+02  0.00000000000E+00 0. -1.
         -2    1    1    2    0  502  0.21038952512E+02 -0.20057826080E+01  0.24915702533E+02  0.32671898007E+02  0.00000000000E+00 0.  1.
</event>
<event>
 4    1  0.1820060E+004  0.2766199E+02  0.7546771E-02  0.1441069E+00
         21   -1    0    0  503  502  0.00000000000E+00  0.00000000000E+00  0.16006453037E+01  0.16006453037E+01  0.00000000000E+00 0. -1.
         21   -1    0    0  501  503 -0.00000000000E+00 -0.00000000000E+00 -0.47945095622E+03  0.47945095622E+03  0.00000000000E+00 0.  1.
          2    1    1    2  501    0 -0.16373586103E+02  0.22295549083E+02 -0.25193460631E+03  0.25344867664E+03  0.00000000000E+00 0.  1.
         -2    1    1    2    0  502  0.16373586103E+02 -0.22295549083E+02 -0.22591570460E+03  0.22760292489E+03  0.00000000000E+00 0. -1.
</event>
<event>
 4    1  0.1820060E+004  0.2289531E+02  0.7546771E-02  0.1493817E+00
         21   -1    0    0  501  502  0.00000000000E+00  0.00000000000E+00  0.48765861450E+01  0.48765861450E+01  0.00000000000E+00 0. -1.
         21   -1    0    0  502  503 -0.00000000000E+00 -0.00000000000E+00 -0.13553479327E+03  0.13553479327E+03  0.00000000000E+00 0.  1.
          2    1    1    2  501    0 -0.64378690256E+01  0.21971548333E+02 -0.33394920793E+02  0.40489700277E+02  0.00000000000E+00 0. -1.
         -2    1    1    2    0  503  0.64378690256E+01 -0.21971548333E+02 -0.97263286335E+02  0.99921679142E+02  0.00000000000E+00 0.  1.
</event>
<event>
 4    1  0.1820060E+004  0.2389964E+02  0.7546771E-02  0.1481500E+00
         21   -1    0    0  503  502  0.00000000000E+00  0.00000000000E+00  0.10554067736E+03  0.10554067736E+03  0.00000000000E+00 0.  1.
         21   -1    0    0  501  503 -0.00000000000E+00 -0.00000000000E+00 -0.54867114739E+01  0.54867114739E+01  0.00000000000E+00 0. -1.
          2    1    1    2  501    0  0.20808603758E+02  0.11755619381E+02  0.43551673434E+02  0.49678373929E+02  0.00000000000E+00 0. -1.
         -2    1    1    2    0  502 -0.20808603758E+02 -0.11755619381E+02  0.56502292452E+02  0.61349014904E+02  0.00000000000E+00 0.  1.
</event>
<event>
 4    1  0.1820060E+004  0.4102981E+02  0.7546771E-02  0.1342555E+00
         21   -1    0    0  501  502  0.00000000000E+00  0.00000000000E+00  0.89331412178E+03  0.89331412178E+03  0.00000000000E+00 0.  1.
         21   -1    0    0  502  503 -0.00000000000E+00 -0.00000000000E+00 -0.80693399409E+01  0.80693399409E+01  0.00000000000E+00 0. -1.
          2    1    1    2  501    0 -0.18936930272E+02  0.36398320168E+02  0.83719327022E+03  0.83819807727E+03  0.00000000000E+00 0.  1.
         -2    1    1    2    0  503  0.18936930272E+02 -0.36398320168E+02  0.48051511618E+02  0.63185384449E+02  0.00000000000E+00 0. -1.
</event>
<event>
 4    1  0.1820060E+004  0.3084392E+02  0.7546771E-02  0.1412402E+00
         21   -1    0    0  501  502  0.00000000000E+00  0.00000000000E+00  0.11599905688E+02  0.11599905688E+02  0.00000000000E+00 0. -1.
         21   -1    0    0  502  503 -0.00000000000E+00 -0.00000000000E+00 -0.40188423760E+03  0.40188423760E+03  0.00000000000E+00 0.  1.
          2    1    1    2  501    0 -0.50008599641E+01  0.30435811469E+02 -0.10697657441E+02  0.32646394822E+02  0.00000000000E+00 0. -1.
         -2    1    1    2    0  503  0.50008599641E+01 -0.30435811469E+02 -0.37958667447E+03  0.38083774846E+03  0.00000000000E+00 0.  1.
</event>
<event>
 4    1  0.1820060E+004  0.3930482E+02  0.7546771E-02  0.1352608E+00
         21   -1    0    0  503  502  0.00000000000E+00  0.00000000000E+00  0.52134796546E+02  0.52134796546E+02  0.00000000000E+00 0.  1.
         21   -1    0    0  501  503 -0.00000000000E+00 -0.00000000000E+00 -0.12501723163E+03  0.12501723163E+03  0.00000000000E+00 0. -1.
          2    1    1    2  501    0  0.10712175231E+02 -0.37816906777E+02 -0.11381098474E+03  0.12040684941E+03  0.00000000000E+00 0. -1.
         -2    1    1    2    0  502 -0.10712175231E+02  0.37816906777E+02  0.40928549658E+02  0.56745178769E+02  0.00000000000E+00 0.  1.
</event>
<event>
 4    1  0.1820060E+004  0.3331904E+02  0.7546771E-02  0.1392782E+00
         21   -1    0    0  501  502  0.00000000000E+00  0.00000000000E+00  0.34850125046E+03  0.34850125046E+03  0.00000000000E+00 0. -1.
         21   -1    0    0  502  503 -0.00000000000E+00 -0.00000000000E+00 -0.32038871495E+01  0.32038871495E+01  0.00000000000E+00 0.  1.
          2    1    1    2  501    0 -0.17679428604E+01 -0.33272101558E+02  0.15933468091E+03  0.16278113805E+03  0.00000000000E+00 0.  1.
         -2    1    1    2    0  503  0.17679428604E+01  0.33272101558E+02  0.18596268241E+03  0.18892399956E+03  0.00000000000E+00 0. -1.
</event>
<event>
 4    1  0.1820060E+004  0.3844376E+02  0.7546771E-02  0.1357855E+00
         21   -1    0    0  501  502  0.00000000000E+00  0.00000000000E+00  0.16828828107E+01  0.16828828107E+01  0.00000000000E+00 0.  1.
         21   -1    0    0  502  503 -0.00000000000E+00 -0.00000000000E+00 -0.14597919470E+04  0.14597919470E+04  0.00000000000E+00 0. -1.
          2    1    1    2  501    0  0.31647124253E+02 -0.21826184975E+02 -0.26782012634E+03  0.27056522855E+03  0.00000000000E+00 0.  1.
         -2    1    1    2    0  503 -0.31647124253E+02  0.21826184975E+02 -0.11902889378E+04  0.11909096012E+04  0.00000000000E+00 0. -1.
</event>
<event>
 4    1  0.1820060E+004  0.3081161E+02  0.7546771E-02  0.1412672E+00
         21   -1    0    0  503  502  0.00000000000E+00  0.00000000000E+00  0.72517103919E+02  0.72517103919E+02  0.00000000000E+00 0.  1.
         21   -1    0    0  501  503 -0.00000000000E+00 -0.00000000000E+00 -0.15477336779E+02  0.15477336779E+02  0.00000000000E+00 0. -1.
          2    1    1    2  501    0 -0.25048977845E+02 -0.17941686014E+02  0.11245587987E+02  0.32799674347E+02  0.00000000000E+00 0. -1.
         -2    1    1    2    0  502  0.25048977845E+02  0.17941686014E+02  0.45794179153E+02  0.55194766350E+02  0.00000000000E+00 0.  1.
</event>
<event>
 4    1  0.1820060E+004  0.2982993E+02  0.7546771E-02  0.1421080E+00
         21   -1    0    0  501  502  0.00000000000E+00  0.00000000000E+00  0.62919040339E+02  0.62919040339E+02  0.00000000000E+00 0. -1.
         21   -1    0    0  502  503 -0.00000000000E+00 -0.00000000000E+00 -0.54331955467E+02  0.54331955467E+02  0.00000000000E+00 0.  1.
          2    1    1    2  501    0  0.19884024693E+01  0.29763582213E+02  0.54715026064E+02  0.62318204786E+02  0.00000000000E+00 0. -1.
         -2    1    1    2    0  503 -0.19884024693E+01 -0.29763582213E+02 -0.46127941192E+02  0.54932791020E+02  0.00000000000E+00 0.  1.
</event>
<event>
 4    1  0.1820060E+004  0.2745650E+02  0.7546771E-02  0.1443076E+00
         21   -1    0    0  503  502  0.00000000000E+00  0.00000000000E+00  0.52689557414E+03  0.52689557414E+03  0.00000000000E+00 0.  1.
         21   -1    0    0  501  503 -0.00000000000E+00 -0.00000000000E+00 -0.44770662527E+01  0.44770662527E+01  0.00000000000E+00 0. -1.
          2    1    1    2  501    0 -0.89652329141E+00 -0.27441855449E+02  0.42050170821E+02  0.50220275294E+02  0.00000000000E+00 0. -1.
         -2    1    1    2    0  502  0.89652329141E+00  0.27441855449E+02  0.48036833706E+03  0.48115236509E+03  0.00000000000E+00 0.  1.
</event>
<event>
 4    1  0.1820060E+004  0.4919602E+02  0.7546771E-02  0.1301696E+00
         21   -1    0    0  503  502  0.00000000000E+00  0.00000000000E+00  0.37177232715E+03  0.37177232715E+03  0.00000000000E+00 0.  1.
         21   -1    0    0  501  503 -0.00000000000E+00 -0.00000000000E+00 -0.25831016352E+02  0.25831016352E+02  0.00000000000E+00 0. -1.
          2    1    1    2  501    0 -0.38626967745E+02 -0.30466468940E+02  0.10357907671E+01  0.49206922575E+02  0.00000000000E+00 0. -1.
         -2    1    1    2    0  502  0.38626967745E+02  0.30466468940E+02  0.34490552003E+03  0.34839642092E+03  0.00000000000E+00 0.  1.
</event>
<event>
 4    1  0.1820060E+004  0.2019498E+02  0.7546771E-02  0.1531076E+00
         21   -1    0    0  503  502  0.00000000000E+00  0.00000000000E+00  0.17859949818E+01  0.17859949818E+01  0.00000000000E+00 0. -1.
         21   -1    0    0  501  503 -0.00000000000E+00 -0.00000000000E+00 -0.50416521592E+03  0.50416521592E+03  0.00000000000E+00 0.  1.
          2    1    1    2  501    0 -0.31599796452E+01  0.19946218634E+02 -0.43830049108E+03  0.43876549271E+03  0.00000000000E+00 0.  1.
         -2    1    1    2    0  502  0.31599796452E+01 -0.19946218634E+02 -0.64078729855E+02  0.67185718192E+02  0.00000000000E+00 0. -1.
</event>
<event>
 4    1  0.1820060E+004  0.2546896E+02  0.7546771E-02  0.1463625E+00
         21   -1    0    0  503  502  0.00000000000E+00  0.00000000000E+00  0.93282462825E+02  0.93282462825E+02  0.00000000000E+00 0.  1.
         21   -1    0    0  501  503 -0.00000000000E+00 -0.00000000000E+00 -0.80843419244E+01  0.80843419244E+01  0.00000000000E+00 0. -1.
          2    1    1    2  501    0  0.19647343438E+02  0.16206474747E+02  0.23645706860E+02  0.34753235545E+02  0.00000000000E+00 0. -1.
         -2    1    1    2    0  502 -0.19647343438E+02 -0.16206474747E+02  0.61552414041E+02  0.66613569205E+02  0.00000000000E+00 0.  1.
</event>
<event>
 4    1  0.1820060E+004  0.3856770E+02  0.7546771E-02  0.1357090E+00
         21   -1    0    0  503  502  0.00000000000E+00  0.00000000000E+00  0.57283437050E+02  0.57283437050E+02  0.00000000000E+00 0.  1.
         21   -1    0    0  501  503 -0.00000000000E+00 -0.00000000000E+00 -0.27832517727E+02  0.27832517727E+02  0.00000000000E+00 0. -1.
          2    1    1    2  501    0  0.28751462734E+02 -0.25706433488E+02  0.25744103635E+02  0.46370531634E+02  0.00000000000E+00 0.  1.
         -2    1    1    2    0  502 -0.28751462734E+02  0.25706433488E+02  0.37068156877E+01  0.38745423143E+02  0.00000000000E+00 0. -1.
</event>
<event>
 4    1  0.1820060E+004  0.2000758E+02  0.7546771E-02  0.1533920E+00
         21   -1    0    0  503  502  0.00000000000E+00  0.00000000000E+00  0.52678588677E+02  0.52678588677E+02  0.00000000000E+00 0. -1.
         21   -1    0    0  501  503 -0.00000000000E+00 -0.00000000000E+00 -0.30371520053E+02  0.30371520053E+02  0.00000000000E+00 0.  1.
          2    1    1    2  501    0 -0.18703050729E+02  0.71062701916E+01 -0.24803407549E+02  0.31867102295E+02  0.00000000000E+00 0.  1.
         -2    1    1    2    0  502  0.18703050729E+02 -0.71062701916E+01  0.47110476172E+02  0.51183006435E+02  0.00000000000E+00 0. -1.
</event>
<event>
 4    1  0.1820060E+004  0.2500759E+02  0.7546771E-02  0.1468718E+00
         21   -1    0    0  503  502  0.00000000000E+00  0.00000000000E+00  0.68811474341E+03  0.68811474341E+03  0.00000000000E+00 0. -1.
         21   -1    0    0  501  503 -0.00000000000E+00 -0.00000000000E+00 -0.25453413464E+01  0.25453413464E+01  0.00000000000E+00 0.  1.
          2    1    1    2  501    0 -0.22570450224E+02 -0.10768220831E+02  0.65886098802E+02  0.70472390470E+02  0.00000000000E+00 0.  1.
         -2    1    1    2    0  502  0.22570450224E+02  0.10768220831E+02  0.61968330326E+03  0.62018769428E+03  0.00000000000E+00 0. -1.
</event>
<event>
 4    1  0.1820060E+004  0.2169719E+02  0.7546771E-02  0.1509539E+00
         21   -1    0    0  503  502  0.00000000000E+00  0.00000000000E+00  0.30276874411E+02  0.30276874411E+02  0.00000000000E+00 0.  1.
         21   -1    0    0  501  503 -0.00000000000E+00 -0.00000000000E+00 -0.21011748027E+02  0.21011748027E+02  0.00000000000E+00 0. -1.
          2    1    1    2  501    0  0.11278442528E+02 -0.18535495755E+02  0.17708567394E+02  0.28006449755E+02  0.00000000000E+00 0.  1.
         -2    1    1    2    0  502 -0.11278442528E+02  0.18535495755E+02 -0.84434410113E+01  0.23282172683E+02  0.00000000000E+00 0. -1.
</event>
<event>
 4    1  0.1820060E+004  0.2437342E+02  0.7546771E-02  0.1475936E+00
         21   -1    0    0  503  502  0.00000000000E+00  0.00000000000E+00  0.26608371363E+01  0.26608371363E+01  0.00000000000E+00 0.  1.
         21   -1    0    0  501  503 -0.00000000000E+00 -0.00000000000E+00 -0.22550252888E+03  0.22550252888E+03  0.00000000000E+00 0. -1.
          2    1    1    2  501    0  0.19918426322E+02 -0.14047051473E+02 -0.12279272367E+03  0.12518832353E+03  0.00000000000E+00 0.  1.
         -2    1    1    2    0  502 -0.19918426322E+02  0.14047051473E+02 -0.10004896807E+03  0.10297504248E+03  0.00000000000E+00 0. -1.
</event>
<event>
 4    1  0.1820060E+004  0.2038699E+02  0.7546771E-02  0.1528200E+00
         21   -1    0    0  503  502  0.00000000000E+00  0.00000000000E+00  0.27684744784E+01  0.27684744784E+01  0.00000000000E+00 0.  1.
         21   -1    0    0  501  503 -0.00000000000E+00 -0.00000000000E+00 -0.44562896930E+03  0.44562896930E+03  0.00000000000E+00 0. -1.
          2    1    1    2  501    0 -0.10546555424E+02 -0.17447046950E+02 -0.40399834339E+03  0.40451241111E+03  0.00000000000E+00 0. -1.
         -2    1    1    2    0  502  0.10546555424E+02  0.17447046950E+02 -0.38862151432E+02  0.43885032671E+02  0.00000000000E+00 0.  1.
</event>
<event>
 4    1  0.1820060E+004  0.2239978E+02  0.7546771E-02  0.1500176E+00
         21   -1    0    0  501  502  0.00000000000E+00  0.00000000000E+00  0.69381816881E+03  0.69381816881E+03  0.00000000000E+00 0. -1.
         21   -1    0    0  502  503 -0.00000000000E+00 -0.00000000000E+00 -0.73442327788E+00  0.73442327788E+00  0.00000000000E+00 0.  1.
          2    1    1    2  501    0  0.16988581180E+02 -0.14599257762E+02  0.38952452936E+03  0.39016805250E+03  0.00000000000E+00 0.  1.
         -2    1    1    2    0  503 -0.16988581180E+02  0.14599257762E+02  0.30355921617E+03  0.30438453959E+03  0.00000000000E+00 0. -1.
</event>
<event>
 4    1  0.1820060E+004  0.2644130E+02  0.7546771E-02  0.1453302E+00
         21   -1    0    0  503  502  0.00000000000E+00  0.00000000000E+00  0.13490529036E+03  0.13490529036E+03  0.00000000000E+00 0. -1.
         21   -1    0    0  501  503 -0.00000000000E+00 -0.00000000000E+00 -0.66394156740E+01  0.66394156740E+01  0.00000000000E+00 0.  1.
          2    1    1    2  501    0 -0.24607284834E+02 -0.96759498488E+01  0.30980111835E+02  0.40729716445E+02  0.00000000000E+00 0.  1.
         -2    1    1    2    0  502  0.24607284834E+02  0.96759498488E+01  0.97285762856E+02  0.10081498959E+03  0.00000000000E+00 0. -1.
</event>
<event>
 4    1  0.1820060E+004  0.2897671E+02  0.7546771E-02  0.1428702E+00
         21   -1    0    0  503  502  0.00000000000E+00  0.00000000000E+00  0.22028952816E+01  0.22028952816E+01  0.00000000000E+00 0. -1.
         21   -1    0    0  501  503 -0.00000000000E+00 -0.00000000000E+00 -0.14629100463E+04  0.14629100463E+04  0.00000000000E+00 0.  1.
          2    1    1    2  501    0  0.48080211307E+01 -0.28575033453E+02 -0.13602893924E+04  0.13605979864E+04  0.00000000000E+00 0.  1.
         -2    1    1    2    0  502 -0.48080211307E+01  0.28575033453E+02 -0.10041775860E+03  0.10451495513E+03  0.00000000000E+00 0. -1.
</event>
<event>
 4    1  0.1820060E+004  0.2493894E+02  0.7546771E-02  0.1469488E+00
         21   -1    0    0  501  502  0.00000000000E+00  0.00000000000E+00  0.17399088058E+02  0.17399088058E+02  0.00000000000E+00 0. -1.
         21   -1    0    0  502  503 -0.00000000000E+00 -0.00000000000E+00 -0.35881777266E+02  0.35881777266E+02  0.00000000000E+00 0.  1.
          2    1    1    2  501    0 -0.17338950158E+02  0.17925170398E+02 -0.10879029824E+02  0.27208532049E+02  0.00000000000E+00 0.  1.
         -2    1    1    2    0  503  0.17338950158E+02 -0.17925170398E+02 -0.76036593846E+01  0.26072333275E+02  0.00000000000E+00 0. -1.
</event>
<event>
 4    1  0.1820060E+004  0.2111839E+02  0.7546771E-02  0.1517581E+00
         21   -1    0    0  503  502  0.00000000000E+00  0.00000000000E+00  0.34319073934E+03  0.34319073934E+03  0.00000000000E+00 0. -1.
         21   -1    0    0  501  503 -0.00000000000E+00 -0.00000000000E+00 -0.17931941824E+01  0.17931941824E+01  0.00000000000E+00 0.  1.
          2    1    1    2  501    0 -0.20186917129E+02  0.62027978461E+01  0.80194005551E+02  0.82928070342E+02  0.00000000000E+00 0. -1.
         -2    1    1    2    0  502  0.20186917129E+02 -0.62027978461E+01  0.26120353960E+03  0.26205586318E+03  0.00000000000E+00 0.  1.
</event>
<event>
 4    1  0.1820060E+004  0.3103836E+02  0.7546771E-02  0.1410783E+00
         21   -1    0    0  501  502  0.00000000000E+00  0.00000000000E+00  0.44147839777E+01  0.44147839777E+01  0.00000000000E+00 0.  1.
         21   -1    0    0  502  503 -0.00000000000E+00 -0.00000000000E+00 -0.22629603616E+03  0.22629603616E+03  0.00000000000E+00 0. -1.
          2    1    1    2  501    0 -0.22092908939E+02  0.21800988969E+02 -0.13273710751E+03  0.13631771512E+03  0.00000000000E+00 0. -1.
         -2    1    1    2    0  503  0.22092908939E+02 -0.21800988969E+02 -0.89144144667E+02  0.94393105012E+02  0.00000000000E+00 0.  1.
</event>
<event>
 4    1  0.1820060E+004  0.2210839E+02  0.7546771E-02  0.1504008E+00
         21   -1    0    0  503  502  0.00000000000E+00  0.00000000000E+00  0.39059242106E+02  0.39059242106E+02  0.00000000000E+00 0. -1.
         21   -1    0    0  501  503 -0.00000000000E+00 -0.00000000000E+00 -0.12519369265E+02  0.12519369265E+02  0.00000000000E+00 0.  1.
          2    1    1    2  501    0  0.14652001211E+02  0.16555955289E+02  0.12727567425E+02  0.25510228685E+02  0.00000000000E+00 0.  1.
         -2    1    1    2    0  502 -0.14652001211E+02 -0.16555955289E+02  0.13812305416E+02  0.26068382686E+02  0.00000000000E+00 0. -1.
</event>
<event>
 4    1  0.1820060E+004  0.2145299E+02  0.7546771E-02  0.1512895E+00
         21   -1    0    0  501  502  0.00000000000E+00  0.00000000000E+00  0.18491650808E+03  0.18491650808E+03  0.00000000000E+00 0.  1.
         21   -1    0    0  502  503 -0.00000000000E+00 -0.00000000000E+00 -0.60496544699E+01  0.60496544699E+01  0.00000000000E+00 0. -1.
          2    1    1    2  501    0  0.15420703680E+02  0.14914179643E+02  0.16268799961E+03  0.16409636216E+03  0.00000000000E+00 0.  1.
         -2    1    1    2    0  503 -0.15420703680E+02 -0.14914179643E+02  0.16178854003E+02  0.26869800395E+02  0.00000000000E+00 0. -1.
</event>
<event>
 4    1  0.1820060E+004  0.3819138E+02  0.7546771E-02  0.1359423E+00
         21   -1    0    0  501  502  0.00000000000E+00  0.00000000000E+00  0.77482633697E+01  0.77482633697E+01  0.00000000000E+00 0. -1.
         21   -1    0    0  502  503 -0.00000000000E+00 -0.00000000000E+00 -0.19143399590E+03  0.19143399590E+03  0.00000000000E+00 0.  1.
          2    1    1    2  501    0 -0.96920768087E+01  0.36941104986E+02 -0.10469432376E+03  0.11144273426E+03  0.00000000000E+00 0.  1.
         -2    1    1    2    0  503  0.96920768087E+01 -0.36941104986E+02 -0.78991408769E+02  0.87739525014E+02  0.00000000000E+00 0. -1.
</event>
<event>
 4    1  0.1820060E+004  0.3699431E+02  0.7546771E-02  0.1367060E+00
         21   -1    0    0  501  502  0.00000000000E+00  0.00000000000E+00  0.17069600929E+02  0.17069600929E+02  0.00000000000E+00 0. -1.
         21   -1    0    0  502  503 -0.00000000000E+00 -0.00000000000E+00 -0.29691636348E+03  0.29691636348E+03  0.00000000000E+00 0.  1.
          2    1    1    2  501    0 -0.28013991020E+02  0.24161852918E+02 -0.57912918698E+01  0.37444864679E+02  0.00000000000E+00 0. -1.
         -2    1    1    2    0  503  0.28013991020E+02 -0.24161852918E+02 -0.27405547069E+03  0.27654109973E+03  0.00000000000E+00 0.  1.
</event>
<event>
 4    1  0.1820060E+004  0.7025792E+02  0.7546771E-02  0.1228471E+00
         21   -1    0    0  501  502  0.00000000000E+00  0.00000000000E+00  0.43136371180E+03  0.43136371180E+03  0.00000000000E+00 0.  1.
         21   -1    0    0  502  503 -0.00000000000E+00 -0.00000000000E+00 -0.15054151334E+02  0.15054151334E+02  0.00000000000E+00 0. -1.
          2    1    1    2  501    0  0.60929370453E+02  0.34982679087E+02  0.31747360985E+03  0.32515483846E+03  0.00000000000E+00 0.  1.
         -2    1    1    2    0  503 -0.60929370453E+02 -0.34982679087E+02  0.98835950612E+02  0.12126302467E+03  0.00000000000E+00 0. -1.
</event>
<event>
 4    1  0.1820060E+004  0.2011055E+02  0.7546771E-02  0.1532352E+00
         21   -1    0    0  501  502  0.00000000000E+00  0.00000000000E+00  0.64400291073E+02  0.64400291073E+02  0.00000000000E+00 0. -1.
         21   -1    0    0  502  503 -0.00000000000E+00 -0.00000000000E+00 -0.17732284105E+02  0.17732284105E+02  0.00000000000E+00 0.  1.
          2    1    1    2  501    0  0.19817208564E+02  0.34223368407E+01  0.56336672749E+02  0.59818515872E+02  0.00000000000E+00 0. -1.
         -2    1    1    2    0  503 -0.19817208564E+02 -0.34223368407E+01 -0.96686657812E+01  0.22314059306E+02  0.00000000000E+00 0.  1.
</event>
<event>
 4    1  0.1820060E+004  0.2776099E+02  0.7546771E-02  0.1440110E+00
         21   -1    0    0  503  502  0.00000000000E+00  0.00000000000E+00  0.32205066680E+01  0.32205066680E+01  0.00000000000E+00 0.  1.
         21   -1    0    0  501  503 -0.00000000000E+00 -0.00000000000E+00 -0.25425482964E+03  0.25425482964E+03  0.00000000000E+00 0. -1.
          2    1    1    2  501    0  0.24557215039E+02  0.12946657105E+02 -0.15673745568E+03  0.15917695421E+03  0.00000000000E+00 0.  1.
         -2    1    1    2    0  502 -0.24557215039E+02 -0.12946657105E+02 -0.94296867291E+02  0.98298382091E+02  0.00000000000E+00 0. -1.
</event>
<event>
 4    1  0.1820060E+004  0.4058024E+02  0.7546771E-02  0.1345119E+00
         21   -1    0    0  503  502  0.00000000000E+00  0.00000000000E+00  0.80756735844E+01  0.80756735844E+01  0.00000000000E+00 0. -1.
         21   -1    0    0  501  503 -0.00000000000E+00 -0.00000000000E+00 -0.73513731298E+03  0.73513731298E+03  0.00000000000E+00 0.  1.
          2    1    1    2  501    0 -0.24788394934E+02  0.32129287738E+02 -0.67942162018E+03  0.68063242181E+03  0.00000000000E+00 0.  1.
         -2    1    1    2    0  502  0.24788394934E+02 -0.32129287738E+02 -0.47640019220E+02  0.62580564757E+02  0.00000000000E+00 0. -1.
</event>
<event>
 4    1  0.1820060E+004  0.2922543E+02  0.7546771E-02  0.1426449E+00
         21   -1    0    0  501  502  0.00000000000E+00  0.00000000000E+00  0.12895463100E+04  0.12895463100E+04  0.00000000000E+00 0.  1.
         21   -1    0    0  502  503 -0.00000000000E+00 -0.00000000000E+00 -0.69294742228E+00  0.69294742228E+00  0.00000000000E+00 0. -1.
          2    1    1    2  501    0  0.18982413627E+02 -0.22221475946E+02  0.77999553664E+03  0.78054286442E+03  0.00000000000E+00 0.  1.
         -2    1    1    2    0  503 -0.18982413627E+02  0.22221475946E+02  0.50885782590E+03  0.50969639296E+03  0.00000000000E+00 0. -1.
</event>
<event>
 4    1  0.1820060E+004  0.2344604E+02  0.7546771E-02  0.1486972E+00
         21   -1    0    0  501  502  0.00000000000E+00  0.00000000000E+00  0.10149538482E+01  0.10149538482E+01  0.00000000000E+00 0. -1.
         21   -1    0    0  502  503 -0.00000000000E+00 -0.00000000000E+00 -0.82451989100E+03  0.82451989100E+03  0.00000000000E+00 0.  1.
          2    1    1    2  501    0 -0.23440302717E+02 -0.51884048523E+00 -0.16997101366E+03  0.17158048395E+03  0.00000000000E+00 0. -1.
         -2    1    1    2    0  503  0.23440302717E+02  0.51884048523E+00 -0.65353392350E+03  0.65395436090E+03  0.00000000000E+00 0.  1.
</event>
<event>
 4    1  0.1820060E+004  0.2284936E+02  0.7546771E-02  0.1494399E+00
         21   -1    0    0  503  502  0.00000000000E+00  0.00000000000E+00  0.40445956011E+02  0.40445956011E+02  0.00000000000E+00 0. -1.
         21   -1    0    0  501  503 -0.00000000000E+00 -0.00000000000E+00 -0.19121232928E+02  0.19121232928E+02  0.00000000000E+00 0.  1.
          2    1    1    2  501    0 -0.13105490073E+02  0.18717350208E+02 -0.63147412330E+01  0.23705885888E+02  0.00000000000E+00 0. -1.
         -2    1    1    2    0  502  0.13105490073E+02 -0.18717350208E+02  0.27639464316E+02  0.35861303051E+02  0.00000000000E+00 0.  1.
</event>
<event>
 4    1  0.1820060E+004  0.2014817E+02  0.7546771E-02  0.1531783E+00
         21   -1    0    0  503  502  0.00000000000E+00  0.00000000000E+00  0.11221431669E+01  0.11221431669E+01  0.00000000000E+00 0.  1.
         21   -1    0    0  501  503 -0.00000000000E+00 -0.00000000000E+00 -0.92018437291E+03  0.92018437291E+03  0.00000000000E+00 0. -1.
          2    1    1    2  501    0  0.17071882966E+02 -0.10700449842E+02 -0.81838537387E+03  0.81863335443E+03  0.00000000000E+00 0. -1.
         -2    1    1    2    0  502 -0.17071882966E+02  0.10700449842E+02 -0.10067685586E+03  0.10267316164E+03  0.00000000000E+00 0.  1.
</event>
<event>
 4    1  0.1820060E+004  0.3622702E+02  0.7546771E-02  0.1372136E+00
         21   -1    0    0  501  502  0.00000000000E+00  0.00000000000E+00  0.35439307143E+02  0.35439307143E+02  0.00000000000E+00 0.  1.
         21   -1    0    0  502  503 -0.00000000000E+00 -0.00000000000E+00 -0.37272906089E+02  0.37272906089E+02  0.00000000000E+00 0. -1.
          2    1    1    2  501    0  0.34487754020E+02  0.11090177509E+02  0.20045323133E+01  0.36282438787E+02  0.00000000000E+00 0.  1.
         -2    1    1    2    0  503 -0.34487754020E+02 -0.11090177509E+02 -0.38381312593E+01  0.36429774445E+02  0.00000000000E+00 0. -1.
</event>
<event>
 4    1  0.1820060E+004  0.2214239E+02  0.7546771E-02  0.1503557E+00
         21   -1    0    0  501  502  0.00000000000E+00  0.00000000000E+00  0.11729801562E+02  0.11729801562E+02  0.00000000000E+00 0.  1.
         21   -1    0    0  502  503 -0.00000000000E+00 -0.00000000000E+00 -0.76154243469E+02  0.76154243469E+02  0.00000000000E+00 0. -1.
          2    1    1    2  501    0  0.15893177002E+02  0.15417281741E+02 -0.26978189104E+01  0.22306139925E+02  0.00000000000E+00 0.  1.
         -2    1    1    2    0  503 -0.15893177002E+02 -0.15417281741E+02 -0.61726622996E+02  0.65577905105E+02  0.00000000000E+00 0. -1.
</event>
<event>
 4    1  0.1820060E+004  0.2488205E+02  0.7546771E-02  0.1470127E+00
         21   -1    0    0  501  502  0.00000000000E+00  0.00000000000E+00  0.74285471690E+03  0.74285471690E+03  0.00000000000E+00 0.  1.
         21   -1    0    0  502  503 -0.00000000000E+00 -0.00000000000E+00 -0.10004965819E+02  0.10004965819E+02  0.00000000000E+00 0. -1.
          2    1    1    2  501    0 -0.24359484347E+02 -0.50726526829E+01  0.72683527109E+03  0.72726104501E+03  0.00000000000E+00 0.  1.
         -2    1    1    2    0  503  0.24359484347E+02  0.50726526829E+01  0.60144799825E+01  0.25598637705E+02  0.00000000000E+00 0. -1.
</event>
<event>
 4    1  0.1820060E+004  0.2289235E+02  0.7546771E-02  0.1493854E+00
         21   -1    0    0  501  502  0.00000000000E+00  0.00000000000E+00  0.13178603175E+02  0.13178603175E+02  0.00000000000E+00 0.  1.
         21   -1    0    0  502  503 -0.00000000000E+00 -0.00000000000E+00 -0.39769379570E+02  0.39769379570E+02  0.00000000000E+00 0. -1.
          2    1    1    2  501    0  0.52549085065E+01  0.22281059041E+02 -0.13049488142E+02  0.26350498974E+02  0.00000000000E+00 0.  1.
         -2    1    1    2    0  503 -0.52549085065E+01 -0.22281059041E+02 -0.13541288254E+02  0.26597483771E+02  0.00000000000E+00 0. -1.
</event>
<event>
 4    1  0.1820060E+004  0.2519319E+02  0.7546771E-02  0.1466654E+00
         21   -1    0    0  503  502  0.00000000000E+00  0.00000000000E+00  0.16493905128E+02  0.16493905128E+02  0.00000000000E+00 0. -1.
         21   -1    0    0  501  503 -0.00000000000E+00 -0.00000000000E+00 -0.74349668454E+02  0.74349668454E+02  0.00000000000E+00 0.  1.
          2    1    1    2  501    0  0.12579814167E+02 -0.21827621409E+02 -0.60476781973E+02  0.65514410161E+02  0.00000000000E+00 0.  1.
         -2    1    1    2    0  502 -0.12579814167E+02  0.21827621409E+02  0.26210186470E+01  0.25329163421E+02  0.00000000000E+00 0. -1.
</event>
<event>
 4    1  0.1820060E+004  0.3722228E+02  0.7546771E-02  0.1365580E+00
         21   -1    0    0  501  502  0.00000000000E+00  0.00000000000E+00  0.67932839914E+01  0.67932839914E+01  0.00000000000E+00 0. -1.
         21   -1    0    0  502  503 -0.00000000000E+00 -0.00000000000E+00 -0.21056573877E+03  0.21056573877E+03  0.00000000000E+00 0.  1.
          2    1    1    2  501    0 -0.15855153812E+02  0.33676582170E+02 -0.82624057239E+02  0.90621371230E+02  0.00000000000E+00 0.  1.
         -2    1    1    2    0  503  0.15855153812E+02 -0.33676582170E+02 -0.12114839754E+03  0.12673765153E+03  0.00000000000E+00 0. -1.
</event>
<event>
 4    1  0.1820060E+004  0.2225315E+02  0.7546771E-02  0.1502096E+00
         21   -1    0    0  503  502  0.00000000000E+00  0.00000000000E+00  0.13918262988E+02  0.13918262988E+02  0.00000000000E+00 0. -1.
         21   -1    0    0  501  503 -0.00000000000E+00 -0.00000000000E+00 -0.46472008835E+02  0.46472008835E+02  0.00000000000E+00 0.  1.
          2    1    1    2  501    0 -0.22226795100E+02 -0.10826095343E+01 -0.30895568646E+02  0.38075433363E+02  0.00000000000E+00 0. -1.
         -2    1    1    2    0  502  0.22226795100E+02  0.10826095343E+01 -0.16581772013E+01  0.22314838459E+02  0.00000000000E+00 0.  1.
</event>
<event>
 4    1  0.1820060E+004  0.3541435E+02  0.7546771E-02  0.1377673E+00
         21   -1    0    0  501  502  0.00000000000E+00  0.00000000000E+00  0.91756759318E+02  0.91756759318E+02  0.00000000000E+00 0.  1.
         21   -1    0    0  502  503 -0.00000000000E+00 -0.00000000000E+00 -0.10269338602E+03  0.10269338602E+03  0.00000000000E+00 0. -1.
          2    1    1    2  501    0 -0.26843556017E+02  0.23099779741E+02  0.85055486920E+02  0.92133664743E+02  0.00000000000E+00 0.  1.
         -2    1    1    2    0  503  0.26843556017E+02 -0.23099779741E+02 -0.95992113622E+02  0.10231648059E+03  0.00000000000E+00 0. -1.
</event>
<event>
 4    1  0.1820060E+004  0.3109293E+02  0.7546771E-02  0.1410331E+00
         21   -1    0    0  503  502  0.00000000000E+00  0.00000000000E+00  0.27132861771E+01  0.27132861771E+01  0.00000000000E+00 0. -1.
         21   -1    0    0  501  503 -0.00000000000E+00 -0.00000000000E+00 -0.54213291535E+03  0.54213291535E+03  0.00000000000E+00 0.  1.
          2    1    1    2  501    0 -0.30566117669E+02  0.56993429650E+01 -0.42920261462E+03  0.43032738056E+03  0.00000000000E+00 0.  1.
         -2    1    1    2    0  502  0.30566117669E+02 -0.56993429650E+01 -0.11021701455E+03  0.11451882097E+03  0.00000000000E+00 0. -1.
</event>
<event>
 4    1  0.1820060E+004  0.2487173E+02  0.7546771E-02  0.1470243E+00
         21   -1    0    0  503  502  0.00000000000E+00  0.00000000000E+00  0.67070214744E+02  0.67070214744E+02  0.00000000000E+00 0.  1.
         21   -1    0    0  501  503 -0.00000000000E+00 -0.00000000000E+00 -0.10436804837E+02  0.10436804837E+02  0.00000000000E+00 0. -1.
          2    1    1    2  501    0  0.24278142435E+02  0.54013690337E+01  0.15101823017E+02  0.29097560825E+02  0.00000000000E+00 0.  1.
         -2    1    1    2    0  502 -0.24278142435E+02 -0.54013690337E+01  0.41531586889E+02  0.48409458756E+02  0.00000000000E+00 0. -1.
</event>
<event>
 4    1  0.1820060E+004  0.2628422E+02  0.7546771E-02  0.1454934E+00
         21   -1    0    0  503  502  0.00000000000E+00  0.00000000000E+00  0.42365356922E+03  0.42365356922E+03  0.00000000000E+00 0. -1.
         21   -1    0    0  501  503 -0.00000000000E+00 -0.00000000000E+00 -0.12629168376E+02  0.12629168376E+02  0.00000000000E+00 0.  1.
          2    1    1    2  501    0 -0.24277557053E+02  0.10072759246E+02  0.19409839297E+01  0.26355790140E+02  0.00000000000E+00 0.  1.
         -2    1    1    2    0  502  0.24277557053E+02 -0.10072759246E+02  0.40908341692E+03  0.40992694746E+03  0.00000000000E+00 0. -1.
</event>
<event>
 4    1  0.1820060E+004  0.3213598E+02  0.7546771E-02  0.1401900E+00
         21   -1    0    0  501  502  0.00000000000E+00  0.00000000000E+00  0.16928688903E+02  0.16928688903E+02  0.00000000000E+00 0.  1.
         21   -1    0    0  502  503 -0.00000000000E+00 -0.00000000000E+00 -0.79514396051E+02  0.79514396051E+02  0.00000000000E+00 0. -1.
          2    1    1    2  501    0 -0.29009281776E+02  0.13826888188E+02 -0.80267516457E+01  0.33123254794E+02  0.00000000000E+00 0.  1.
         -2    1    1    2    0  503  0.29009281776E+02 -0.13826888188E+02 -0.54558955502E+02  0.63319830161E+02  0.00000000000E+00 0. -1.
</event>
<event>
 4    1  0.1820060E+004  0.2047408E+02  0.7546771E-02  0.1526908E+00
         21   -1    0    0  501  502  0.00000000000E+00  0.00000000000E+00  0.21381425573E+02  0.21381425573E+02  0.00000000000E+00 0. -1.
         21   -1    0    0  502  503 -0.00000000000E+00 -0.00000000000E+00 -0.53296887244E+02  0.53296887244E+02  0.00000000000E+00 0.  1.
          2    1    1    2  501    0 -0.19453661921E+01 -0.20381451607E+02  0.13729841821E+02  0.24651502503E+02  0.00000000000E+00 0. -1.
         -2    1    1    2    0  503  0.19453661921E+01  0.20381451607E+02 -0.45645303492E+02  0.50026810313E+02  0.00000000000E+00 0.  1.
</event>
<event>
 4    1  0.1820060E+004  0.2175187E+02  0.7546771E-02  0.1508795E+00
         21   -1    0    0  503  502  0.00000000000E+00  0.00000000000E+00  0.15610626087E+01  0.15610626087E+01  0.00000000000E+00 0. -1.
         21   -1    0    0  501  503 -0.00000000000E+00 -0.00000000000E+00 -0.31786370770E+03  0.31786370770E+03  0.00000000000E+00 0.  1.
          2    1    1    2  501    0  0.17411814248E+02  0.13037350272E+02 -0.12372025204E+03  0.12561785121E+03  0.00000000000E+00 0. -1.
         -2    1    1    2    0  502 -0.17411814248E+02 -0.13037350272E+02 -0.19258239305E+03  0.19380691909E+03  0.00000000000E+00 0.  1.
</event>
<event>
 4    1  0.1820060E+004  0.2619545E+02  0.7546771E-02  0.1455862E+00
         21   -1    0    0  501  502  0.00000000000E+00  0.00000000000E+00  0.80302404514E+01  0.80302404514E+01  0.00000000000E+00 0.  1.
         21   -1    0    0  502  503 -0.00000000000E+00 -0.00000000000E+00 -0.85746911514E+02  0.85746911514E+02  0.00000000000E+00 0. -1.
          2    1    1    2  501    0 -0.24859561430E+02 -0.82585727193E+01 -0.41607158315E+02  0.49166629342E+02  0.00000000000E+00 0.  1.
         -2    1    1    2    0  503  0.24859561430E+02  0.82585727193E+01 -0.36109512747E+02  0.44610522623E+02  0.00000000000E+00 0. -1.
</event>
<event>
 4    1  0.1820060E+004  0.2428487E+02  0.7546771E-02  0.1476965E+00
         21   -1    0    0  501  502  0.00000000000E+00  0.00000000000E+00  0.12413120293E+03  0.12413120293E+03  0.00000000000E+00 0. -1.
         21   -1    0    0  502  503 -0.00000000000E+00 -0.00000000000E+00 -0.48771006267E+01  0.48771006267E+01  0.00000000000E+00 0.  1.
          2    1    1    2  501    0  0.23785735294E+02 -0.48983358228E+01  0.69996618560E+02  0.74089685565E+02  0.00000000000E+00 0. -1.
         -2    1    1    2    0  503 -0.23785735294E+02  0.48983358228E+01  0.49257483739E+02  0.54918617987E+02  0.00000000000E+00 0.  1.
</event>
<event>
 4    1  0.1820060E+004  0.2152560E+02  0.7546771E-02  0.1511891E+00
         21   -1    0    0  501  502  0.00000000000E+00  0.00000000000E+00  0.15322909475E+03  0.15322909475E+03  0.00000000000E+00 0.  1.
         21   -1    0    0  502  503 -0.00000000000E+00 -0.00000000000E+00 -0.31380854506E+01  0.31380854506E+01  0.00000000000E+00 0. -1.
          2    1    1    2  501    0  0.21488041522E+02 -0.12711017973E+01  0.60132618741E+02  0.63869268548E+02  0.00000000000E+00 0. -1.
         -2    1    1    2    0  503 -0.21488041522E+02  0.12711017973E+01  0.89958390563E+02  0.92497911657E+02  0.00000000000E+00 0.  1.
</event>
<event>
 4    1  0.1820060E+004  0.2228527E+02  0.7546771E-02  0.1501673E+00
         21   -1    0    0  501  502  0.00000000000E+00  0.00000000000E+00  0.75367136007E+02  0.75367136007E+02  0.00000000000E+00 0. -1.
         21   -1    0    0  502  503 -0.00000000000E+00 -0.00000000000E+00 -0.54821137282E+02  0.54821137282E+02  0.00000000000E+00 0.  1.
          2    1    1    2  501    0 -0.21758104829E+02  0.48185418797E+01  0.71329758713E+02  0.74729966878E+02  0.00000000000E+00 0. -1.
         -2    1    1    2    0  503  0.21758104829E+02 -0.48185418797E+01 -0.50783759987E+02  0.55458306412E+02  0.00000000000E+00 0.  1.
</event>
<event>
 4    1  0.1820060E+004  0.3350098E+02  0.7546771E-02  0.1391419E+00
         21   -1    0    0  501  502  0.00000000000E+00  0.00000000000E+00  0.11344587748E+03  0.11344587748E+03  0.00000000000E+00 0.  1.
         21   -1    0    0  502  503 -0.00000000000E+00 -0.00000000000E+00 -0.11129251963E+02  0.11129251963E+02  0.00000000000E+00 0. -1.
          2    1    1    2  501    0  0.48973597168E+01  0.33141082404E+02  0.71918390195E+02  0.79338328211E+02  0.00000000000E+00 0. -1.
         -2    1    1    2    0  503 -0.48973597168E+01 -0.33141082404E+02  0.30398235327E+02  0.45236801236E+02  0.00000000000E+00 0.  1.
</event>
<event>
 4    1  0.1820060E+004  0.2384655E+02  0.7546771E-02  0.1482133E+00
         21   -1    0    0  501  502  0.00000000000E+00  0.00000000000E+00  0.22494120910E+02  0.22494120910E+02  0.00000000000E+00 0.  1.
         21   -1    0    0  502  503 -0.00000000000E+00 -0.00000000000E+00 -0.28085350280E+02  0.28085350280E+02  0.00000000000E+00 0. -1.
          2    1    1    2  501    0 -0.10867558313E+02  0.21226255865E+02  0.51967619453E+01  0.24406230689E+02  0.00000000000E+00 0.  1.
         -2    1    1    2    0  503  0.10867558313E+02 -0.21226255865E+02 -0.10787991316E+02  0.26173240501E+02  0.00000000000E+00 0. -1.
</event>
<event>
 4    1  0.1820060E+004  0.4188895E+02  0.7546771E-02  0.1337758E+00
         21   -1    0    0  501  502  0.00000000000E+00  0.00000000000E+00  0.10365493654E+03  0.10365493654E+03  0.00000000000E+00 0.  1.
         21   -1    0    0  502  503 -0.00000000000E+00 -0.00000000000E+00 -0.49043662836E+02  0.49043662836E+02  0.00000000000E+00 0. -1.
          2    1    1    2  501    0  0.38590834419E+02 -0.16292074128E+02  0.89088947853E+02  0.98445542358E+02  0.00000000000E+00 0.  1.
         -2    1    1    2    0  503 -0.38590834419E+02  0.16292074128E+02 -0.34477674151E+02  0.54253057015E+02  0.00000000000E+00 0. -1.
</event>
<event>
 4    1  0.1820060E+004  0.2644217E+02  0.7546771E-02  0.1453293E+00
         21   -1    0    0  501  502  0.00000000000E+00  0.00000000000E+00  0.24040553216E+03  0.24040553216E+03  0.00000000000E+00 0. -1.
         21   -1    0    0  502  503 -0.00000000000E+00 -0.00000000000E+00 -0.41638058983E+01  0.41638058983E+01  0.00000000000E+00 0.  1.
          2    1    1    2  501    0  0.26149849035E+02 -0.39209489115E+01  0.18526744300E+03  0.18714490077E+03  0.00000000000E+00 0. -1.
         -2    1    1    2    0  503 -0.26149849035E+02  0.39209489115E+01  0.50974283260E+02  0.57424437296E+02  0.00000000000E+00 0.  1.
</event>
<event>
 4    1  0.1820060E+004  0.2338245E+02  0.7546771E-02  0.1487751E+00
         21   -1    0    0  501  502  0.00000000000E+00  0.00000000000E+00  0.23834520546E+03  0.23834520546E+03  0.00000000000E+00 0.  1.
         21   -1    0    0  502  503 -0.00000000000E+00 -0.00000000000E+00 -0.10020193017E+02  0.10020193017E+02  0.00000000000E+00 0. -1.
          2    1    1    2  501    0 -0.15735603236E+02 -0.17295371467E+02  0.22320825903E+03  0.22442964596E+03  0.00000000000E+00 0.  1.
         -2    1    1    2    0  503  0.15735603236E+02  0.17295371467E+02  0.51167534131E+01  0.23935752524E+02  0.00000000000E+00 0. -1.
</event>
<event>
 4    1  0.1820060E+004  0.2286123E+02  0.7546771E-02  0.1494248E+00
         21   -1    0    0  503  502  0.00000000000E+00  0.00000000000E+00  0.14652301714E+01  0.14652301714E+01  0.00000000000E+00 0.  1.
         21   -1    0    0  501  503 -0.00000000000E+00 -0.00000000000E+00 -0.35713588694E+03  0.35713588694E+03  0.00000000000E+00 0. -1.
          2    1    1    2  501    0  0.19268087270E+02 -0.12303519207E+02 -0.18415707747E+03  0.18557064680E+03  0.00000000000E+00 0. -1.
         -2    1    1    2    0  502 -0.19268087270E+02  0.12303519207E+02 -0.17151357930E+03  0.17303047031E+03  0.00000000000E+00 0.  1.
</event>
<event>
 4    1  0.1820060E+004  0.2239617E+02  0.7546771E-02  0.1500223E+00
         21   -1    0    0  501  502  0.00000000000E+00  0.00000000000E+00  0.54768022017E+01  0.54768022017E+01  0.00000000000E+00 0. -1.
         21   -1    0    0  502  503 -0.00000000000E+00 -0.00000000000E+00 -0.11316030094E+03  0.11316030094E+03  0.00000000000E+00 0.  1.
          2    1    1    2  501    0  0.99008469366E+01 -0.20088840082E+02 -0.27939916756E+02  0.35808200377E+02  0.00000000000E+00 0. -1.
         -2    1    1    2    0  503 -0.99008469366E+01  0.20088840082E+02 -0.79743581980E+02  0.82828902762E+02  0.00000000000E+00 0.  1.
</event>
<event>
 4    1  0.1820060E+004  0.2119334E+02  0.7546771E-02  0.1516522E+00
         21   -1    0    0  503  502  0.00000000000E+00  0.00000000000E+00  0.27274231410E+02  0.27274231410E+02  0.00000000000E+00 0.  1.
         21   -1    0    0  501  503 -0.00000000000E+00 -0.00000000000E+00 -0.38005206562E+02  0.38005206562E+02  0.00000000000E+00 0. -1.
          2    1    1    2  501    0 -0.20109776988E+02  0.66898694904E+01 -0.29936188036E+02  0.36678779130E+02  0.00000000000E+00 0. -1.
         -2    1    1    2    0  502  0.20109776988E+02 -0.66898694904E+01  0.19205212884E+02  0.28600658843E+02  0.00000000000E+00 0.  1.
</event>
<event>
 4    1  0.1820060E+004  0.2115974E+02  0.7546771E-02  0.1516996E+00
         21   -1    0    0  501  502  0.00000000000E+00  0.00000000000E+00  0.16488788629E+01  0.16488788629E+01  0.00000000000E+00 0.  1.
         21   -1    0    0  502  503 -0.00000000000E+00 -0.00000000000E+00 -0.70325896462E+03  0.70325896462E+03  0.00000000000E+00 0. -1.
          2    1    1    2  501    0  0.91390295049E+01 -0.19084362209E+02 -0.74654545972E+02  0.77595334753E+02  0.00000000000E+00 0.  1.
         -2    1    1    2    0  503 -0.91390295049E+01  0.19084362209E+02 -0.62695553978E+03  0.62731250873E+03  0.00000000000E+00 0. -1.
</event>
<event>
 4    1  0.1820060E+004  0.2292871E+02  0.7546771E-02  0.1493395E+00
         21   -1    0    0  503  502  0.00000000000E+00  0.00000000000E+00  0.21670617547E+02  0.21670617547E+02  0.00000000000E+00 0.  1.
         21   -1    0    0  501  503 -0.00000000000E+00 -0.00000000000E+00 -0.29657992137E+02  0.29657992137E+02  0.00000000000E+00 0. -1.
          2    1    1    2  501    0  0.12199969251E+02  0.19413559426E+02 -0.14942865328E+02  0.27368134089E+02  0.00000000000E+00 0. -1.
         -2    1    1    2    0  502 -0.12199969251E+02 -0.19413559426E+02  0.69554907377E+01  0.23960475595E+02  0.00000000000E+00 0.  1.
</event>
<event>
 4    1  0.1820060E+004  0.2487164E+02  0.7546771E-02  0.1470245E+00
         21   -1    0    0  503  502  0.00000000000E+00  0.00000000000E+00  0.37258647090E+02  0.37258647090E+02  0.00000000000E+00 0. -1.
         21   -1    0    0  501  503 -0.00000000000E+00 -0.00000000000E+00 -0.17160935997E+02  0.17160935997E+02  0.00000000000E+00 0.  1.
          2    1    1    2  501    0 -0.24710283664E+02 -0.28284846239E+01  0.14955885498E+02  0.29022008115E+02  0.00000000000E+00 0.  1.
         -2    1    1    2    0  502  0.24710283664E+02  0.28284846239E+01  0.51418255947E+01  0.25397574972E+02  0.00000000000E+00 0. -1.
</event>
<event>
 4    1  0.1820060E+004  0.2606168E+02  0.7546771E-02  0.1457268E+00
         21   -1    0    0  501  502  0.00000000000E+00  0.00000000000E+00  0.74419705020E+03  0.74419705020E+03  0.00000000000E+00 0. -1.
         21   -1    0    0  502  503 -0.00000000000E+00 -0.00000000000E+00 -0.10087497642E+01  0.10087497642E+01  0.00000000000E+00 0.  1.
          2    1    1    2  501    0 -0.35022168558E+01  0.25825292727E+02  0.48658292649E+03  0.48728036655E+03  0.00000000000E+00 0.  1.
         -2    1    1    2    0  503  0.35022168558E+01 -0.25825292727E+02  0.25660537395E+03  0.25792543342E+03  0.00000000000E+00 0. -1.
</event>
<event>
 4    1  0.1820060E+004  0.6188451E+02  0.7546771E-02  0.1253561E+00
         21   -1    0    0  503  502  0.00000000000E+00  0.00000000000E+00  0.47269198846E+02  0.47269198846E+02  0.00000000000E+00 0. -1.
         21   -1    0    0  501  503 -0.00000000000E+00 -0.00000000000E+00 -0.13471560925E+03  0.13471560925E+03  0.00000000000E+00 0.  1.
          2    1    1    2  501    0  0.82870241972E+01  0.61327139172E+02 -0.10117062203E+03  0.11859674334E+03  0.00000000000E+00 0.  1.
         -2    1    1    2    0  502 -0.82870241972E+01 -0.61327139172E+02  0.13724211623E+02  0.63388064757E+02  0.00000000000E+00 0. -1.
</event>
<event>
 4    1  0.1820060E+004  0.2101637E+02  0.7546771E-02  0.1519031E+00
         21   -1    0    0  503  502  0.00000000000E+00  0.00000000000E+00  0.89007609281E+00  0.89007609281E+00  0.00000000000E+00 0.  1.
         21   -1    0    0  501  503 -0.00000000000E+00 -0.00000000000E+00 -0.98746211420E+03  0.98746211420E+03  0.00000000000E+00 0. -1.
          2    1    1    2  501    0  0.16560007666E+02  0.12940404849E+02 -0.84183367806E+03  0.84209597401E+03  0.00000000000E+00 0. -1.
         -2    1    1    2    0  502 -0.16560007666E+02 -0.12940404849E+02 -0.14473836005E+03  0.14625621628E+03  0.00000000000E+00 0.  1.
</event>
<event>
 4    1  0.1820060E+004  0.2507733E+02  0.7546771E-02  0.1467940E+00
         21   -1    0    0  503  502  0.00000000000E+00  0.00000000000E+00  0.24363103342E+03  0.24363103342E+03  0.00000000000E+00 0. -1.
         21   -1    0    0  501  503 -0.00000000000E+00 -0.00000000000E+00 -0.96913019010E+01  0.96913019010E+01  0.00000000000E+00 0.  1.
          2    1    1    2  501    0  0.24997730189E+02 -0.19964317083E+01  0.84800790395E+01  0.26472325071E+02  0.00000000000E+00 0.  1.
         -2    1    1    2    0  502 -0.24997730189E+02  0.19964317083E+01  0.22545965248E+03  0.22685001025E+03  0.00000000000E+00 0. -1.
</event>
<event>
 4    1  0.1820060E+004  0.2423251E+02  0.7546771E-02  0.1477575E+00
         21   -1    0    0  503  502  0.00000000000E+00  0.00000000000E+00  0.21988394926E+02  0.21988394926E+02  0.00000000000E+00 0.  1.
         21   -1    0    0  501  503 -0.00000000000E+00 -0.00000000000E+00 -0.28376072341E+02  0.28376072341E+02  0.00000000000E+00 0. -1.
          2    1    1    2  501    0 -0.21819251969E+02  0.10542044291E+02 -0.93036923485E+01  0.25957140552E+02  0.00000000000E+00 0. -1.
         -2    1    1    2    0  502  0.21819251969E+02 -0.10542044291E+02  0.29160149339E+01  0.24407326716E+02  0.00000000000E+00 0.  1.
</event>
<event>
 4    1  0.1820060E+004  0.2831718E+02  0.7546771E-02  0.1434807E+00
         21   -1    0    0  503  502  0.00000000000E+00  0.00000000000E+00  0.59450382590E+03  0.59450382590E+03  0.00000000000E+00 0. -1.
         21   -1    0    0  501  503 -0.00000000000E+00 -0.00000000000E+00 -0.25121152503E+02  0.25121152503E+02  0.00000000000E+00 0.  1.
          2    1    1    2  501    0 -0.20274378350E+02 -0.19768973279E+02 -0.16689256880E+02  0.32869347684E+02  0.00000000000E+00 0.  1.
         -2    1    1    2    0  502  0.20274378350E+02  0.19768973279E+02  0.58607193028E+03  0.58675563072E+03  0.00000000000E+00 0. -1.
</event>
<event>
 4    1  0.1820060E+004  0.2810098E+02  0.7546771E-02  0.1436851E+00
         21   -1    0    0  503  502  0.00000000000E+00  0.00000000000E+00  0.22745493755E+02  0.22745493755E+02  0.00000000000E+00 0. -1.
         21   -1    0    0  501  503 -0.00000000000E+00 -0.00000000000E+00 -0.16758184768E+03  0.16758184768E+03  0.00000000000E+00 0.  1.
          2    1    1    2  501    0 -0.23423365545E+02 -0.15524534029E+02 -0.15715302087E+03  0.15964566132E+03  0.00000000000E+00 0.  1.
         -2    1    1    2    0  502  0.23423365545E+02  0.15524534029E+02  0.12316666941E+02  0.30681680117E+02  0.00000000000E+00 0. -1.
</event>
<event>
 4    1  0.1820060E+004  0.5811021E+02  0.7546771E-02  0.1266392E+00
         21   -1    0    0  503  502  0.00000000000E+00  0.00000000000E+00  0.40575970137E+02  0.40575970137E+02  0.00000000000E+00 0. -1.
         21   -1    0    0  501  503 -0.00000000000E+00 -0.00000000000E+00 -0.13816736922E+03  0.13816736922E+03  0.00000000000E+00 0.  1.
          2    1    1    2  501    0 -0.57296937056E+02 -0.96880285310E+01 -0.10515482974E+03  0.12014297778E+03  0.00000000000E+00 0.  1.
         -2    1    1    2    0  502  0.57296937056E+02  0.96880285310E+01  0.75634306602E+01  0.58600361571E+02  0.00000000000E+00 0. -1.
</event>
<event>
 4    1  0.1820060E+004  0.2660097E+02  0.7546771E-02  0.1451658E+00
         21   -1    0    0  501  502  0.00000000000E+00  0.00000000000E+00  0.15767281754E+04  0.15767281754E+04  0.00000000000E+00 0.  1.
         21   -1    0    0  502  503 -0.00000000000E+00 -0.00000000000E+00 -0.29600039464E+01  0.29600039464E+01  0.00000000000E+00 0. -1.
          2    1    1    2  501    0 -0.26506372924E+02  0.22413972534E+01  0.15143916832E+04  0.15146252942E+04  0.00000000000E+00 0.  1.
         -2    1    1    2    0  503  0.26506372924E+02 -0.22413972534E+01  0.59376488272E+02  0.65062885171E+02  0.00000000000E+00 0. -1.
</event>
<event>
 4    1  0.1820060E+004  0.2025599E+02  0.7546771E-02  0.1530158E+00
         21   -1    0    0  503  502  0.00000000000E+00  0.00000000000E+00  0.95978190782E+01  0.95978190782E+01  0.00000000000E+00 0.  1.
         21   -1    0    0  501  503 -0.00000000000E+00 -0.00000000000E+00 -0.42862071829E+02  0.42862071829E+02  0.00000000000E+00 0. -1.
          2    1    1    2  501    0  0.18281315402E+02  0.87234592982E+01 -0.15289924574E+02  0.25378869723E+02  0.00000000000E+00 0.  1.
         -2    1    1    2    0  502 -0.18281315402E+02 -0.87234592982E+01 -0.17974328177E+02  0.27081021184E+02  0.00000000000E+00 0. -1.
</event>
<event>
 4    1  0.1820060E+004  0.2023319E+02  0.7546771E-02  0.1530500E+00
         21   -1    0    0  501  502  0.00000000000E+00  0.00000000000E+00  0.12705033599E+03  0.12705033599E+03  0.00000000000E+00 0.  1.
         21   -1    0    0  502  503 -0.00000000000E+00 -0.00000000000E+00 -0.36857009393E+01  0.36857009393E+01  0.00000000000E+00 0. -1.
          2    1    1    2  501    0  0.11745857891E+02  0.16474731929E+02  0.84863158755E+02  0.87241834481E+02  0.00000000000E+00 0.  1.
         -2    1    1    2    0  503 -0.11745857891E+02 -0.16474731929E+02  0.38501476299E+02  0.43494202451E+02  0.00000000000E+00 0. -1.
</event>
<event>
 4    1  0.1820060E+004  0.2715502E+02  0.7546771E-02  0.1446057E+00
         21   -1    0    0  501  502  0.00000000000E+00  0.00000000000E+00  0.33253751702E+02  0.33253751702E+02  0.00000000000E+00 0. -1.
         21   -1    0    0  502  503 -0.00000000000E+00 -0.00000000000E+00 -0.22851228393E+02  0.22851228393E+02  0.00000000000E+00 0.  1.
          2    1    1    2  501    0 -0.24122037195E+02  0.12470861539E+02  0.10027733197E+02  0.28947374648E+02  0.00000000000E+00 0. -1.
         -2    1    1    2    0  503  0.24122037195E+02 -0.12470861539E+02  0.37479011216E+00  0.27157605447E+02  0.00000000000E+00 0.  1.
</event>
<event>
 4    1  0.1820060E+004  0.2239607E+02  0.7546771E-02  0.1500224E+00
         21   -1    0    0  501  502  0.00000000000E+00  0.00000000000E+00  0.10193130101E+04  0.10193130101E+04  0.00000000000E+00 0.  1.
         21   -1    0    0  502  503 -0.00000000000E+00 -0.00000000000E+00 -0.49492886289E+00  0.49492886289E+00  0.00000000000E+00 0. -1.
          2    1    1    2  501    0  0.18054853791E+02 -0.13251644918E+02  0.47072508236E+03  0.47125755909E+03  0.00000000000E+00 0. -1.
         -2    1    1    2    0  503 -0.18054853791E+02  0.13251644918E+02  0.54809299886E+03  0.54855037985E+03  0.00000000000E+00 0.  1.
</event>
<event>
 4    1  0.1820060E+004  0.2871062E+02  0.7546771E-02  0.1431142E+00
         21   -1    0    0  501  502  0.00000000000E+00  0.00000000000E+00  0.48027902881E+03  0.48027902881E+03  0.00000000000E+00 0. -1.
         21   -1    0    0  502  503 -0.00000000000E+00 -0.00000000000E+00 -0.17219821783E+01  0.17219821783E+01  0.00000000000E+00 0.  1.
          2    1    1    2  501    0  0.94759845591E-01 -0.28710460531E+02  0.22542598561E+03  0.22724694610E+03  0.00000000000E+00 0.  1.
         -2    1    1    2    0  503 -0.94759845591E-01  0.28710460531E+02  0.25313106102E+03  0.25475406489E+03  0.00000000000E+00 0. -1.
</event>
<event>
 4    1  0.1820060E+004  0.4257438E+02  0.7546771E-02  0.1334026E+00
         21   -1    0    0  503  502  0.00000000000E+00  0.00000000000E+00  0.22154907803E+04  0.22154907803E+04  0.00000000000E+00 0.  1.
         21   -1    0    0  501  503 -0.00000000000E+00 -0.00000000000E+00 -0.29038738224E+01  0.29038738224E+01  0.00000000000E+00 0. -1.
          2    1    1    2  501    0  0.35080890406E+02 -0.24122795620E+02  0.16624649342E+03  0.17161140613E+03  0.00000000000E+00 0. -1.
         -2    1    1    2    0  502 -0.35080890406E+02  0.24122795620E+02  0.20463404131E+04  0.20467832480E+04  0.00000000000E+00 0.  1.
</event>
<event>
 4    1  0.1820060E+004  0.2557885E+02  0.7546771E-02  0.1462431E+00
         21   -1    0    0  503  502  0.00000000000E+00  0.00000000000E+00  0.17948525809E+04  0.17948525809E+04  0.00000000000E+00 0.  1.
         21   -1    0    0  501  503 -0.00000000000E+00 -0.00000000000E+00 -0.19650466816E+01  0.19650466816E+01  0.00000000000E+00 0. -1.
          2    1    1    2  501    0  0.21931924379E+02  0.13163137840E+02  0.85636414216E+02  0.89374901088E+02  0.00000000000E+00 0. -1.
         -2    1    1    2    0  502 -0.21931924379E+02 -0.13163137840E+02  0.17072511200E+04  0.17074427265E+04  0.00000000000E+00 0.  1.
</event>
<event>
 4    1  0.1820060E+004  0.2218554E+02  0.7546771E-02  0.1502987E+00
         21   -1    0    0  503  502  0.00000000000E+00  0.00000000000E+00  0.84751655574E+00  0.84751655574E+00  0.00000000000E+00 0.  1.
         21   -1    0    0  501  503 -0.00000000000E+00 -0.00000000000E+00 -0.63941406775E+03  0.63941406775E+03  0.00000000000E+00 0. -1.
          2    1    1    2  501    0 -0.21162223142E+02  0.66602104744E+01 -0.41624715563E+03  0.41683796932E+03  0.00000000000E+00 0. -1.
         -2    1    1    2    0  502  0.21162223142E+02 -0.66602104744E+01 -0.22231939557E+03  0.22342361499E+03  0.00000000000E+00 0.  1.
</event>
<event>
 4    1  0.1820060E+004  0.2465902E+02  0.7546771E-02  0.1472654E+00
         21   -1    0    0  503  502  0.00000000000E+00  0.00000000000E+00  0.21386327168E+03  0.21386327168E+03  0.00000000000E+00 0. -1.
         21   -1    0    0  501  503 -0.00000000000E+00 -0.00000000000E+00 -0.28801680306E+01  0.28801680306E+01  0.00000000000E+00 0.  1.
          2    1    1    2  501    0 -0.24648113098E+02  0.73343156767E+00  0.93222575468E+02  0.96428813008E+02  0.00000000000E+00 0.  1.
         -2    1    1    2    0  502  0.24648113098E+02 -0.73343156767E+00  0.11776052818E+03  0.12031462671E+03  0.00000000000E+00 0. -1.
</event>
<event>
 4    1  0.1820060E+004  0.2192342E+02  0.7546771E-02  0.1506478E+00
         21   -1    0    0  503  502  0.00000000000E+00  0.00000000000E+00  0.46004969704E+02  0.46004969704E+02  0.00000000000E+00 0. -1.
         21   -1    0    0  501  503 -0.00000000000E+00 -0.00000000000E+00 -0.25500037019E+02  0.25500037019E+02  0.00000000000E+00 0.  1.
          2    1    1    2  501    0  0.20408032676E+02 -0.80092859202E+01 -0.17216419699E+02  0.27875465304E+02  0.00000000000E+00 0.  1.
         -2    1    1    2    0  502 -0.20408032676E+02  0.80092859202E+01  0.37721352384E+02  0.43629541418E+02  0.00000000000E+00 0. -1.
</event>
<event>
 4    1  0.1820060E+004  0.2771431E+02  0.7546771E-02  0.1440562E+00
         21   -1    0    0  501  502  0.00000000000E+00  0.00000000000E+00  0.33538235626E+02  0.33538235626E+02  0.00000000000E+00 0.  1.
         21   -1    0    0  502  503 -0.00000000000E+00 -0.00000000000E+00 -0.33617635327E+02  0.33617635327E+02  0.00000000000E+00 0. -1.
          2    1    1    2  501    0  0.27510907695E+02 -0.33515957485E+01  0.18917975137E+02  0.33555521447E+02  0.00000000000E+00 0.  1.
         -2    1    1    2    0  503 -0.27510907695E+02  0.33515957485E+01 -0.18997374837E+02  0.33600349507E+02  0.00000000000E+00 0. -1.
</event>
<event>
 4    1  0.1820060E+004  0.5314101E+02  0.7546771E-02  0.1285100E+00
         21   -1    0    0  501  502  0.00000000000E+00  0.00000000000E+00  0.56626796746E+02  0.56626796746E+02  0.00000000000E+00 0. -1.
         21   -1    0    0  502  503 -0.00000000000E+00 -0.00000000000E+00 -0.51869456995E+02  0.51869456995E+02  0.00000000000E+00 0.  1.
          2    1    1    2  501    0 -0.39825463143E+02 -0.35183802026E+02  0.13030049435E+02  0.54715168170E+02  0.00000000000E+00 0.  1.
         -2    1    1    2    0  503  0.39825463143E+02  0.35183802026E+02 -0.82727096839E+01  0.53781085570E+02  0.00000000000E+00 0. -1.
</event>
<event>
 4    1  0.1820060E+004  0.2060996E+02  0.7546771E-02  0.1524907E+00
         21   -1    0    0  503  502  0.00000000000E+00  0.00000000000E+00  0.50164387485E+02  0.50164387485E+02  0.00000000000E+00 0. -1.
         21   -1    0    0  501  503 -0.00000000000E+00 -0.00000000000E+00 -0.11023263127E+02  0.11023263127E+02  0.00000000000E+00 0.  1.
          2    1    1    2  501    0  0.16837103337E+01  0.20541068919E+02  0.48395304167E+01  0.21170532527E+02  0.00000000000E+00 0.  1.
         -2    1    1    2    0  502 -0.16837103337E+01 -0.20541068919E+02  0.34301593942E+02  0.40017118084E+02  0.00000000000E+00 0. -1.
</event>
<event>
 4    1  0.1820060E+004  0.2663726E+02  0.7546771E-02  0.1451286E+00
         21   -1    0    0  501  502  0.00000000000E+00  0.00000000000E+00  0.12712029751E+02  0.12712029751E+02  0.00000000000E+00 0. -1.
         21   -1    0    0  502  503 -0.00000000000E+00 -0.00000000000E+00 -0.86081810280E+02  0.86081810280E+02  0.00000000000E+00 0.  1.
          2    1    1    2  501    0  0.39228994629E+01  0.26346810235E+02 -0.73951644615E+01  0.27644746466E+02  0.00000000000E+00 0. -1.
         -2    1    1    2    0  503 -0.39228994629E+01 -0.26346810235E+02 -0.65974616068E+02  0.71149093564E+02  0.00000000000E+00 0.  1.
</event>
<event>
 4    1  0.1820060E+004  0.2096335E+02  0.7546771E-02  0.1519789E+00
         21   -1    0    0  501  502  0.00000000000E+00  0.00000000000E+00  0.21956686994E+02  0.21956686994E+02  0.00000000000E+00 0.  1.
         21   -1    0    0  502  503 -0.00000000000E+00 -0.00000000000E+00 -0.20853550256E+02  0.20853550256E+02  0.00000000000E+00 0. -1.
          2    1    1    2  501    0 -0.77141062425E+01  0.19492429057E+02  0.48439900662E+01  0.21515726003E+02  0.00000000000E+00 0.  1.
         -2    1    1    2    0  503  0.77141062425E+01 -0.19492429057E+02 -0.37408533286E+01  0.21294511248E+02  0.00000000000E+00 0. -1.
</event>
<event>
 4    1  0.1820060E+004  0.4486314E+02  0.7546771E-02  0.1322125E+00
         21   -1    0    0  501  502  0.00000000000E+00  0.00000000000E+00  0.10873416450E+02  0.10873416450E+02  0.00000000000E+00 0.  1.
         21   -1    0    0  502  503 -0.00000000000E+00 -0.00000000000E+00 -0.22478036320E+03  0.22478036320E+03  0.00000000000E+00 0. -1.
          2    1    1    2  501    0 -0.24361499294E+02 -0.37672515991E+02 -0.57449839232E+02  0.72891598533E+02  0.00000000000E+00 0. -1.
         -2    1    1    2    0  503  0.24361499294E+02  0.37672515991E+02 -0.15645710752E+03  0.16276218112E+03  0.00000000000E+00 0.  1.
</event>
<event>
 4    1  0.1820060E+004  0.2050487E+02  0.7546771E-02  0.1526453E+00
         21   -1    0    0  503  502  0.00000000000E+00  0.00000000000E+00  0.14004226742E+02  0.14004226742E+02  0.00000000000E+00 0. -1.
         21   -1    0    0  501  503 -0.00000000000E+00 -0.00000000000E+00 -0.34816053126E+02  0.34816053126E+02  0.00000000000E+00 0.  1.
          2    1    1    2  501    0 -0.15688630883E+02 -0.13202896660E+02 -0.19462911653E+02  0.28271090343E+02  0.00000000000E+00 0.  1.
         -2    1    1    2    0  502  0.15688630883E+02  0.13202896660E+02 -0.13489147313E+01  0.20549189525E+02  0.00000000000E+00 0. -1.
</event>
<event>
 4    1  0.1820060E+004  0.3423935E+02  0.7546771E-02  0.1385991E+00
         21   -1    0    0  503  502  0.00000000000E+00  0.00000000000E+00  0.42309597737E+01  0.42309597737E+01  0.00000000000E+00 0.  1.
         21   -1    0    0  501  503 -0.00000000000E+00 -0.00000000000E+00 -0.60344789845E+03  0.60344789845E+03  0.00000000000E+00 0. -1.
          2    1    1    2  501    0 -0.11017311851E+01  0.34221620512E+02 -0.52305571453E+03  0.52417517456E+03  0.00000000000E+00 0. -1.
         -2    1    1    2    0  502  0.11017311851E+01 -0.34221620512E+02 -0.76161224151E+02  0.83503683669E+02  0.00000000000E+00 0.  1.
</event>
<event>
 4    1  0.1820060E+004  0.2150724E+02  0.7546771E-02  0.1512145E+00
         21   -1    0    0  503  502  0.00000000000E+00  0.00000000000E+00  0.62237602066E+02  0.62237602066E+02  0.00000000000E+00 0. -1.
         21   -1    0    0  501  503 -0.00000000000E+00 -0.00000000000E+00 -0.88771719948E+02  0.88771719948E+02  0.00000000000E+00 0.  1.
          2    1    1    2  501    0 -0.19461558404E+02  0.91547236721E+01 -0.85541924728E+02  0.88204206857E+02  0.00000000000E+00 0.  1.
         -2    1    1    2    0  502  0.19461558404E+02 -0.91547236721E+01  0.59007806846E+02  0.62805115157E+02  0.00000000000E+00 0. -1.
</event>
<event>
 4    1  0.1820060E+004  0.2401389E+02  0.7546771E-02  0.1480145E+00
         21   -1    0    0  501  502  0.00000000000E+00  0.00000000000E+00  0.91195602815E+01  0.91195602815E+01  0.00000000000E+00 0. -1.
         21   -1    0    0  502  503 -0.00000000000E+00 -0.00000000000E+00 -0.63269964940E+02  0.63269964940E+02  0.00000000000E+00 0.  1.
          2    1    1    2  501    0 -0.54383179601E+01 -0.23389991004E+02 -0.27937224275E+02  0.36839591225E+02  0.00000000000E+00 0. -1.
         -2    1    1    2    0  503  0.54383179601E+01  0.23389991004E+02 -0.26213180384E+02  0.35549933997E+02  0.00000000000E+00 0.  1.
</event>
<event>
 4    1  0.1820060E+004  0.5918207E+02  0.7546771E-02  0.1262637E+00
         21   -1    0    0  501  502  0.00000000000E+00  0.00000000000E+00  0.21236040975E+03  0.21236040975E+03  0.00000000000E+00 0.  1.
         21   -1    0    0  502  503 -0.00000000000E+00 -0.00000000000E+00 -0.16508475736E+02  0.16508475736E+02  0.00000000000E+00 0. -1.
          2    1    1    2  501    0 -0.58905089684E+02  0.57191064056E+01  0.94453053426E+02  0.11146253662E+03  0.00000000000E+00 0.  1.
         -2    1    1    2    0  503  0.58905089684E+02 -0.57191064056E+01  0.10139888059E+03  0.11740634886E+03  0.00000000000E+00 0. -1.
</event>
<event>
 4    1  0.1820060E+004  0.2040094E+02  0.7546771E-02  0.1527992E+00
         21   -1    0    0  503  502  0.00000000000E+00  0.00000000000E+00  0.18634196426E+02  0.18634196426E+02  0.00000000000E+00 0.  1.
         21   -1    0    0  501  503 -0.00000000000E+00 -0.00000000000E+00 -0.84136288304E+02  0.84136288304E+02  0.00000000000E+00 0. -1.
          2    1    1    2  501    0 -0.31148952750E+00 -0.20398566476E+02 -0.76790790310E+02  0.79454540565E+02  0.00000000000E+00 0. -1.
         -2    1    1    2    0  502  0.31148952750E+00  0.20398566476E+02  0.11288698432E+02  0.23315944165E+02  0.00000000000E+00 0.  1.
</event>
<event>
 4    1  0.1820060E+004  0.3077546E+02  0.7546771E-02  0.1412975E+00
         21   -1    0    0  501  502  0.00000000000E+00  0.00000000000E+00  0.13780531351E+02  0.13780531351E+02  0.00000000000E+00 0.  1.
         21   -1    0    0  502  503 -0.00000000000E+00 -0.00000000000E+00 -0.68736652848E+02  0.68736652848E+02  0.00000000000E+00 0. -1.
          2    1    1    2  501    0  0.30531393685E+02 -0.38681784284E+01 -0.27899421835E+02  0.41539216933E+02  0.00000000000E+00 0.  1.
         -2    1    1    2    0  503 -0.30531393685E+02  0.38681784284E+01 -0.27056699662E+02  0.40977967267E+02  0.00000000000E+00 0. -1.
</event>
<event>
 4    1  0.1820060E+004  0.6136769E+02  0.7546771E-02  0.1255255E+00
         21   -1    0    0  501  502  0.00000000000E+00  0.00000000000E+00  0.89115272411E+02  0.89115272411E+02  0.00000000000E+00 0. -1.
         21   -1    0    0  502  503 -0.00000000000E+00 -0.00000000000E+00 -0.43423864838E+02  0.43423864838E+02  0.00000000000E+00 0.  1.
          2    1    1    2  501    0  0.60267526737E+02  0.11568024937E+02  0.11995505535E+02  0.62529082298E+02  0.00000000000E+00 0.  1.
         -2    1    1    2    0  503 -0.60267526737E+02 -0.11568024937E+02  0.33695902038E+02  0.70010054950E+02  0.00000000000E+00 0. -1.
</event>
<event>
 4    1  0.1820060E+004  0.2221562E+02  0.7546771E-02  0.1502590E+00
         21   -1    0    0  503  502  0.00000000000E+00  0.00000000000E+00  0.52885565600E+02  0.52885565600E+02  0.00000000000E+00 0.  1.
         21   -1    0    0  501  503 -0.00000000000E+00 -0.00000000000E+00 -0.27267716802E+02  0.27267716802E+02  0.00000000000E+00 0. -1.
          2    1    1    2  501    0 -0.18636308070E+02  0.12092218456E+02 -0.19694192491E+02  0.29688296407E+02  0.00000000000E+00 0. -1.
         -2    1    1    2    0  502  0.18636308070E+02 -0.12092218456E+02  0.45312041289E+02  0.50464985995E+02  0.00000000000E+00 0.  1.
</event>
<event>
 4    1  0.1820060E+004  0.2046764E+02  0.7546771E-02  0.1527003E+00
         21   -1    0    0  503  502  0.00000000000E+00  0.00000000000E+00  0.27298708821E+02  0.27298708821E+02  0.00000000000E+00 0. -1.
         21   -1    0    0  501  503 -0.00000000000E+00 -0.00000000000E+00 -0.15739554375E+02  0.15739554375E+02  0.00000000000E+00 0.  1.
          2    1    1    2  501    0 -0.12167511776E+02  0.16458310795E+02  0.91825949755E+01  0.22433109181E+02  0.00000000000E+00 0.  1.
         -2    1    1    2    0  502  0.12167511776E+02 -0.16458310795E+02  0.23765594703E+01  0.20605154015E+02  0.00000000000E+00 0. -1.
</event>
<event>
 4    1  0.1820060E+004  0.2192131E+02  0.7546771E-02  0.1506506E+00
         21   -1    0    0  503  502  0.00000000000E+00  0.00000000000E+00  0.23204971784E+03  0.23204971784E+03  0.00000000000E+00 0.  1.
         21   -1    0    0  501  503 -0.00000000000E+00 -0.00000000000E+00 -0.18825519094E+02  0.18825519094E+02  0.00000000000E+00 0. -1.
          2    1    1    2  501    0 -0.21902904391E+02  0.89812152332E+00 -0.11725305637E+02  0.24860141498E+02  0.00000000000E+00 0. -1.
         -2    1    1    2    0  502  0.21902904391E+02 -0.89812152332E+00  0.22494950439E+03  0.22601509544E+03  0.00000000000E+00 0.  1.
</event>
<event>
 4    1  0.1820060E+004  0.2202119E+02  0.7546771E-02  0.1505169E+00
         21   -1    0    0  503  502  0.00000000000E+00  0.00000000000E+00  0.45223366001E+01  0.45223366001E+01  0.00000000000E+00 0.  1.
         21   -1    0    0  501  503 -0.00000000000E+00 -0.00000000000E+00 -0.19067784616E+03  0.19067784616E+03  0.00000000000E+00 0. -1.
          2    1    1    2  501    0 -0.21923333427E+02  0.20737353221E+01 -0.15764408095E+03  0.15917471277E+03  0.00000000000E+00 0. -1.
         -2    1    1    2    0  502  0.21923333427E+02 -0.20737353221E+01 -0.28511428615E+02  0.36025469995E+02  0.00000000000E+00 0.  1.
</event>
<event>
 4    1  0.1820060E+004  0.3472195E+02  0.7546771E-02  0.1382529E+00
         21   -1    0    0  501  502  0.00000000000E+00  0.00000000000E+00  0.10684691007E+03  0.10684691007E+03  0.00000000000E+00 0.  1.
         21   -1    0    0  502  503 -0.00000000000E+00 -0.00000000000E+00 -0.15229156828E+02  0.15229156828E+02  0.00000000000E+00 0. -1.
          2    1    1    2  501    0  0.22796724094E+02 -0.26190135087E+02  0.76877271012E+02  0.84354778191E+02  0.00000000000E+00 0.  1.
         -2    1    1    2    0  503 -0.22796724094E+02  0.26190135087E+02  0.14740482228E+02  0.37721288706E+02  0.00000000000E+00 0. -1.
</event>
<event>
 4    1  0.1820060E+004  0.2200244E+02  0.7546771E-02  0.1505419E+00
         21   -1    0    0  503  502  0.00000000000E+00  0.00000000000E+00  0.66673823679E+02  0.66673823679E+02  0.00000000000E+00 0. -1.
         21   -1    0    0  501  503 -0.00000000000E+00 -0.00000000000E+00 -0.22342195420E+02  0.22342195420E+02  0.00000000000E+00 0.  1.
          2    1    1    2  501    0 -0.44077279024E+01 -0.21556424886E+02 -0.14401708050E+02  0.26296705381E+02  0.00000000000E+00 0.  1.
         -2    1    1    2    0  502  0.44077279024E+01  0.21556424886E+02  0.58733336310E+02  0.62719313718E+02  0.00000000000E+00 0. -1.
</event>
<event>
 4    1  0.1820060E+004  0.2021342E+02  0.7546771E-02  0.1530798E+00
         21   -1    0    0  503  502  0.00000000000E+00  0.00000000000E+00  0.10276000594E+02  0.10276000594E+02  0.00000000000E+00 0. -1.
         21   -1    0    0  501  503 -0.00000000000E+00 -0.00000000000E+00 -0.67352300767E+02  0.67352300767E+02  0.00000000000E+00 0.  1.
          2    1    1    2  501    0  0.17006057970E+02 -0.10925952106E+02 -0.53380987661E+02  0.57079876321E+02  0.00000000000E+00 0.  1.
         -2    1    1    2    0  502 -0.17006057970E+02  0.10925952106E+02 -0.36953125118E+01  0.20548425041E+02  0.00000000000E+00 0. -1.
</event>
<event>
 4    1  0.1820060E+004  0.2546056E+02  0.7546771E-02  0.1463717E+00
         21   -1    0    0  501  502  0.00000000000E+00  0.00000000000E+00  0.15176166062E+01  0.15176166062E+01  0.00000000000E+00 0.  1.
         21   -1    0    0  502  503 -0.00000000000E+00 -0.00000000000E+00 -0.64450037793E+03  0.64450037793E+03  0.00000000000E+00 0. -1.
          2    1    1    2  501    0 -0.89289320663E+00  0.25444899631E+02 -0.13391003164E+03  0.13630897530E+03  0.00000000000E+00 0. -1.
         -2    1    1    2    0  503  0.89289320663E+00 -0.25444899631E+02 -0.50907272969E+03  0.50970901923E+03  0.00000000000E+00 0.  1.
</event>
<event>
 4    1  0.1820060E+004  0.2164138E+02  0.7546771E-02  0.1510301E+00
         21   -1    0    0  501  502  0.00000000000E+00  0.00000000000E+00  0.12217289780E+04  0.12217289780E+04  0.00000000000E+00 0.  1.
         21   -1    0    0  502  503 -0.00000000000E+00 -0.00000000000E+00 -0.10431930116E+01  0.10431930116E+01  0.00000000000E+00 0. -1.
          2    1    1    2  501    0 -0.14582653585E+02 -0.15990481036E+02  0.10965862377E+04  0.10967997657E+04  0.00000000000E+00 0.  1.
         -2    1    1    2    0  503  0.14582653585E+02  0.15990481036E+02  0.12409954727E+03  0.12597240532E+03  0.00000000000E+00 0. -1.
</event>
<event>
 4    1  0.1820060E+004  0.2522335E+02  0.7546771E-02  0.1466320E+00
         21   -1    0    0  501  502  0.00000000000E+00  0.00000000000E+00  0.57471165120E+03  0.57471165120E+03  0.00000000000E+00 0.  1.
         21   -1    0    0  502  503 -0.00000000000E+00 -0.00000000000E+00 -0.11240424882E+01  0.11240424882E+01  0.00000000000E+00 0. -1.
          2    1    1    2  501    0  0.18085671147E+02  0.17581970774E+02  0.32222541139E+03  0.32321112751E+03  0.00000000000E+00 0. -1.
         -2    1    1    2    0  503 -0.18085671147E+02 -0.17581970774E+02  0.25136219732E+03  0.25262456618E+03  0.00000000000E+00 0.  1.
</event>
<event>
 4    1  0.1820060E+004  0.2112591E+02  0.7546771E-02  0.1517475E+00
         21   -1    0    0  503  502  0.00000000000E+00  0.00000000000E+00  0.29385103088E+01  0.29385103088E+01  0.00000000000E+00 0. -1.
         21   -1    0    0  501  503 -0.00000000000E+00 -0.00000000000E+00 -0.23159192337E+03  0.23159192337E+03  0.00000000000E+00 0.  1.
          2    1    1    2  501    0 -0.20331799845E+02 -0.57377655932E+01 -0.18312319680E+03  0.18433775860E+03  0.00000000000E+00 0.  1.
         -2    1    1    2    0  502  0.20331799845E+02  0.57377655932E+01 -0.45530216265E+02  0.50192675084E+02  0.00000000000E+00 0. -1.
</event>
<event>
 4    1  0.1820060E+004  0.3404710E+02  0.7546771E-02  0.1387389E+00
         21   -1    0    0  503  502  0.00000000000E+00  0.00000000000E+00  0.41320084949E+01  0.41320084949E+01  0.00000000000E+00 0. -1.
         21   -1    0    0  501  503 -0.00000000000E+00 -0.00000000000E+00 -0.52928919928E+03  0.52928919928E+03  0.00000000000E+00 0.  1.
          2    1    1    2  501    0  0.25564865613E+01  0.33950981223E+02 -0.44541904070E+03  0.44671839739E+03  0.00000000000E+00 0.  1.
         -2    1    1    2    0  502 -0.25564865613E+01 -0.33950981223E+02 -0.79738150094E+02  0.86702810393E+02  0.00000000000E+00 0. -1.
</event>
<event>
 4    1  0.1820060E+004  0.2281688E+02  0.7546771E-02  0.1494811E+00
         21   -1    0    0  501  502  0.00000000000E+00  0.00000000000E+00  0.22056276485E+01  0.22056276485E+01  0.00000000000E+00 0. -1.
         21   -1    0    0  502  503 -0.00000000000E+00 -0.00000000000E+00 -0.34522220870E+03  0.34522220870E+03  0.00000000000E+00 0.  1.
          2    1    1    2  501    0 -0.20572433935E+02  0.98683788564E+01 -0.73814497621E+02  0.77260533251E+02  0.00000000000E+00 0. -1.
         -2    1    1    2    0  503  0.20572433935E+02 -0.98683788564E+01 -0.26920208343E+03  0.27016730309E+03  0.00000000000E+00 0.  1.
</event>
<event>
 4    1  0.1820060E+004  0.2997864E+02  0.7546771E-02  0.1419782E+00
         21   -1    0    0  501  502  0.00000000000E+00  0.00000000000E+00  0.14057414172E+02  0.14057414172E+02  0.00000000000E+00 0. -1.
         21   -1    0    0  502  503 -0.00000000000E+00 -0.00000000000E+00 -0.29100535929E+03  0.29100535929E+03  0.00000000000E+00 0.  1.
          2    1    1    2  501    0  0.97915440895E+01 -0.28334512355E+02 -0.37354454729E+01  0.30210469691E+02  0.00000000000E+00 0. -1.
         -2    1    1    2    0  503 -0.97915440895E+01  0.28334512355E+02 -0.27321249964E+03  0.27485230377E+03  0.00000000000E+00 0.  1.
</event>
<event>
 4    1  0.1820060E+004  0.3670139E+02  0.7546771E-02  0.1368981E+00
         21   -1    0    0  501  502  0.00000000000E+00  0.00000000000E+00  0.92846406022E+01  0.92846406022E+01  0.00000000000E+00 0. -1.
         21   -1    0    0  502  503 -0.00000000000E+00 -0.00000000000E+00 -0.14537033658E+03  0.14537033658E+03  0.00000000000E+00 0.  1.
          2    1    1    2  501    0 -0.33443155673E+02  0.15117775128E+02 -0.64571793412E+02  0.74273200353E+02  0.00000000000E+00 0. -1.
         -2    1    1    2    0  503  0.33443155673E+02 -0.15117775128E+02 -0.71513902570E+02  0.80381776834E+02  0.00000000000E+00 0.  1.
</event>
<event>
 4    1  0.1820060E+004  0.2596656E+02  0.7546771E-02  0.1458275E+00
         21   -1    0    0  503  502  0.00000000000E+00  0.00000000000E+00  0.15020438361E+02  0.15020438361E+02  0.00000000000E+00 0.  1.
         21   -1    0    0  501  503 -0.00000000000E+00 -0.00000000000E+00 -0.27643109682E+03  0.27643109682E+03  0.00000000000E+00 0. -1.
          2    1    1    2  501    0 -0.13491677258E+02  0.22186407106E+02 -0.26407506393E+03  0.26534864124E+03  0.00000000000E+00 0. -1.
         -2    1    1    2    0  502  0.13491677258E+02 -0.22186407106E+02  0.26644054777E+01  0.26102893940E+02  0.00000000000E+00 0.  1.
</event>
<event>
 4    1  0.1820060E+004  0.2762074E+02  0.7546771E-02  0.1441470E+00
         21   -1    0    0  501  502  0.00000000000E+00  0.00000000000E+00  0.29256114443E+01  0.29256114443E+01  0.00000000000E+00 0.  1.
         21   -1    0    0  502  503 -0.00000000000E+00 -0.00000000000E+00 -0.31383665510E+03  0.31383665510E+03  0.00000000000E+00 0. -1.
          2    1    1    2  501    0  0.25686068936E+02  0.10155339741E+02 -0.90326921012E+02  0.94455585977E+02  0.00000000000E+00 0.  1.
         -2    1    1    2    0  503 -0.25686068936E+02 -0.10155339741E+02 -0.22058412265E+03  0.22230668057E+03  0.00000000000E+00 0. -1.
</event>
<event>
 4    1  0.1820060E+004  0.2066664E+02  0.7546771E-02  0.1524078E+00
         21   -1    0    0  501  502  0.00000000000E+00  0.00000000000E+00  0.95410211238E+00  0.95410211238E+00  0.00000000000E+00 0.  1.
         21   -1    0    0  502  503 -0.00000000000E+00 -0.00000000000E+00 -0.44828807062E+03  0.44828807062E+03  0.00000000000E+00 0. -1.
          2    1    1    2  501    0  0.18177629493E+02 -0.98327979258E+01 -0.21523672719E+03  0.21622663772E+03  0.00000000000E+00 0. -1.
         -2    1    1    2    0  503 -0.18177629493E+02  0.98327979258E+01 -0.23209724132E+03  0.23301553501E+03  0.00000000000E+00 0.  1.
</event>
<event>
 4    1  0.1820060E+004  0.2294542E+02  0.7546771E-02  0.1493185E+00
         21   -1    0    0  503  502  0.00000000000E+00  0.00000000000E+00  0.25604197392E+01  0.25604197392E+01  0.00000000000E+00 0.  1.
         21   -1    0    0  501  503 -0.00000000000E+00 -0.00000000000E+00 -0.20849989201E+03  0.20849989201E+03  0.00000000000E+00 0. -1.
          2    1    1    2  501    0 -0.22281622792E+02 -0.54791763355E+01 -0.90582800199E+02  0.93443757306E+02  0.00000000000E+00 0.  1.
         -2    1    1    2    0  502  0.22281622792E+02  0.54791763355E+01 -0.11535667207E+03  0.11761655444E+03  0.00000000000E+00 0. -1.
</event>
<event>
 4    1  0.1820060E+004  0.2624183E+02  0.7546771E-02  0.1455376E+00
         21   -1    0    0  501  502  0.00000000000E+00  0.00000000000E+00  0.18503594703E+03  0.18503594703E+03  0.00000000000E+00 0.  1.
         21   -1    0    0  502  503 -0.00000000000E+00 -0.00000000000E+00 -0.38230431989E+01  0.38230431989E+01  0.00000000000E+00 0. -1.
          2    1    1    2  501    0 -0.23444149977E+02  0.11790061286E+02  0.10598690155E+03  0.10918725665E+03  0.00000000000E+00 0.  1.
         -2    1    1    2    0  503  0.23444149977E+02 -0.11790061286E+02  0.75226002279E+02  0.79671733583E+02  0.00000000000E+00 0. -1.
</event>
<event>
 4    1  0.1820060E+004  0.4932173E+02  0.7546771E-02  0.1301140E+00
         21   -1    0    0  501  502  0.00000000000E+00  0.00000000000E+00  0.90280303974E+02  0.90280303974E+02  0.00000000000E+00 0. -1.
         21   -1    0    0  502  503 -0.00000000000E+00 -0.00000000000E+00 -0.31852973572E+02  0.31852973572E+02  0.00000000000E+00 0.  1.
          2    1    1    2  501    0  0.99342105510E+01  0.48310914705E+02  0.53183515340E+02  0.72533573763E+02  0.00000000000E+00 0. -1.
         -2    1    1    2    0  503 -0.99342105510E+01 -0.48310914705E+02  0.52438150624E+01  0.49599703783E+02  0.00000000000E+00 0.  1.
</event>
<event>
 4    1  0.1820060E+004  0.2074283E+02  0.7546771E-02  0.1522968E+00
         21   -1    0    0  501  502  0.00000000000E+00  0.00000000000E+00  0.21069039323E+01  0.21069039323E+01  0.00000000000E+00 0.  1.
         21   -1    0    0  502  503 -0.00000000000E+00 -0.00000000000E+00 -0.20421878319E+03  0.20421878319E+03  0.00000000000E+00 0. -1.
          2    1    1    2  501    0  0.20570292482E+02  0.26698809258E+01 -0.10073514984E+03  0.10284860529E+03  0.00000000000E+00 0. -1.
         -2    1    1    2    0  503 -0.20570292482E+02 -0.26698809258E+01 -0.10137672941E+03  0.10347708183E+03  0.00000000000E+00 0.  1.
</event>
<event>
 4    1  0.1820060E+004  0.2010300E+02  0.7546771E-02  0.1532467E+00
         21   -1    0    0  501  502  0.00000000000E+00  0.00000000000E+00  0.78588986631E+01  0.78588986631E+01  0.00000000000E+00 0. -1.
         21   -1    0    0  502  503 -0.00000000000E+00 -0.00000000000E+00 -0.10227701786E+03  0.10227701786E+03  0.00000000000E+00 0.  1.
          2    1    1    2  501    0  0.18312886422E+02  0.82926945207E+01 -0.83787142470E+01  0.21779197505E+02  0.00000000000E+00 0. -1.
         -2    1    1    2    0  503 -0.18312886422E+02 -0.82926945207E+01 -0.86039404946E+02  0.88356719014E+02  0.00000000000E+00 0.  1.
</event>
<event>
 4    1  0.1820060E+004  0.2897088E+02  0.7546771E-02  0.1428755E+00
         21   -1    0    0  501  502  0.00000000000E+00  0.00000000000E+00  0.46961056886E+03  0.46961056886E+03  0.00000000000E+00 0.  1.
         21   -1    0    0  502  503 -0.00000000000E+00 -0.00000000000E+00 -0.23455565640E+01  0.23455565640E+01  0.00000000000E+00 0. -1.
          2    1    1    2  501    0 -0.21512345027E+02 -0.19404407861E+02  0.34876146910E+03  0.34996267567E+03  0.00000000000E+00 0.  1.
         -2    1    1    2    0  503  0.21512345027E+02  0.19404407861E+02  0.11850354320E+03  0.12199344976E+03  0.00000000000E+00 0. -1.
</event>
<event>
 4    1  0.1820060E+004  0.2134739E+02  0.7546771E-02  0.1514362E+00
         21   -1    0    0  501  502  0.00000000000E+00  0.00000000000E+00  0.56841574521E+01  0.56841574521E+01  0.00000000000E+00 0.  1.
         21   -1    0    0  502  503 -0.00000000000E+00 -0.00000000000E+00 -0.83048686647E+02  0.83048686647E+02  0.00000000000E+00 0. -1.
          2    1    1    2  501    0 -0.20484458456E+02 -0.60081504244E+01 -0.30425197363E+02  0.37167237513E+02  0.00000000000E+00 0.  1.
         -2    1    1    2    0  503  0.20484458456E+02  0.60081504244E+01 -0.46939331832E+02  0.51565606586E+02  0.00000000000E+00 0. -1.
</event>
<event>
 4    1  0.1820060E+004  0.2674801E+02  0.7546771E-02  0.1450156E+00
         21   -1    0    0  501  502  0.00000000000E+00  0.00000000000E+00  0.15629473709E+03  0.15629473709E+03  0.00000000000E+00 0.  1.
         21   -1    0    0  502  503 -0.00000000000E+00 -0.00000000000E+00 -0.89821886556E+01  0.89821886556E+01  0.00000000000E+00 0. -1.
          2    1    1    2  501    0  0.10896191950E+02 -0.24428040633E+02  0.13152492902E+03  0.13421722364E+03  0.00000000000E+00 0.  1.
         -2    1    1    2    0  503 -0.10896191950E+02  0.24428040633E+02  0.15787619419E+02  0.31059702109E+02  0.00000000000E+00 0. -1.
</event>
<event>
 4    1  0.1820060E+004  0.2762152E+02  0.7546771E-02  0.1441463E+00
         21   -1    0    0  501  502  0.00000000000E+00  0.00000000000E+00  0.30920969773E+02  0.30920969773E+02  0.00000000000E+00 0. -1.
         21   -1    0    0  502  503 -0.00000000000E+00 -0.00000000000E+00 -0.38736199219E+02  0.38736199219E+02  0.00000000000E+00 0.  1.
          2    1    1    2  501    0 -0.15816828395E+02  0.22644564764E+02  0.17077036931E+02  0.32474198438E+02  0.00000000000E+00 0. -1.
         -2    1    1    2    0  503  0.15816828395E+02 -0.22644564764E+02 -0.24892266377E+02  0.37182970554E+02  0.00000000000E+00 0.  1.
</event>
<event>
 4    1  0.1820060E+004  0.2286285E+02  0.7546771E-02  0.1494228E+00
         21   -1    0    0  503  502  0.00000000000E+00  0.00000000000E+00  0.10919995507E+03  0.10919995507E+03  0.00000000000E+00 0.  1.
         21   -1    0    0  501  503 -0.00000000000E+00 -0.00000000000E+00 -0.90263623032E+01  0.90263623032E+01  0.00000000000E+00 0. -1.
          2    1    1    2  501    0 -0.19820920308E+02  0.11394777593E+02  0.90599598858E+02  0.93439804963E+02  0.00000000000E+00 0.  1.
         -2    1    1    2    0  502  0.19820920308E+02 -0.11394777593E+02  0.95739939131E+01  0.24786512415E+02  0.00000000000E+00 0. -1.
</event>
<event>
 4    1  0.1820060E+004  0.2599520E+02  0.7546771E-02  0.1457971E+00
         21   -1    0    0  503  502  0.00000000000E+00  0.00000000000E+00  0.18899721791E+02  0.18899721791E+02  0.00000000000E+00 0. -1.
         21   -1    0    0  501  503 -0.00000000000E+00 -0.00000000000E+00 -0.76836857997E+02  0.76836857997E+02  0.00000000000E+00 0.  1.
          2    1    1    2  501    0  0.10838959280E+02 -0.23627681927E+02 -0.63970395140E+02  0.69050429730E+02  0.00000000000E+00 0.  1.
         -2    1    1    2    0  502 -0.10838959280E+02  0.23627681927E+02  0.60332589344E+01  0.26686150057E+02  0.00000000000E+00 0. -1.
</event>
<event>
 4    1  0.1820060E+004  0.2396754E+02  0.7546771E-02  0.1480693E+00
         21   -1    0    0  501  502  0.00000000000E+00  0.00000000000E+00  0.88533160461E+01  0.88533160461E+01  0.00000000000E+00 0. -1.
         21   -1    0    0  502  503 -0.00000000000E+00 -0.00000000000E+00 -0.28907412533E+03  0.28907412533E+03  0.00000000000E+00 0.  1.
          2    1    1    2  501    0  0.54755918950E+01  0.23333680853E+02 -0.89255554627E+01  0.25575541227E+02  0.00000000000E+00 0. -1.
         -2    1    1    2    0  503 -0.54755918950E+01 -0.23333680853E+02 -0.27129525382E+03  0.27235190015E+03  0.00000000000E+00 0.  1.
</event>
<event>
 4    1  0.1820060E+004  0.2928134E+02  0.7546771E-02  0.1425946E+00
         21   -1    0    0  501  502  0.00000000000E+00  0.00000000000E+00  0.27292110956E+02  0.27292110956E+02  0.00000000000E+00 0.  1.
         21   -1    0    0  502  503 -0.00000000000E+00 -0.00000000000E+00 -0.15180831237E+03  0.15180831237E+03  0.00000000000E+00 0. -1.
          2    1    1    2  501    0  0.18887396251E+01 -0.29220365883E+02  0.17489752521E+02  0.34107016330E+02  0.00000000000E+00 0.  1.
         -2    1    1    2    0  503 -0.18887396251E+01  0.29220365883E+02 -0.14200595393E+03  0.14499340699E+03  0.00000000000E+00 0. -1.
</event>
<event>
 4    1  0.1820060E+004  0.3772176E+02  0.7546771E-02  0.1362379E+00
         21   -1    0    0  503  502  0.00000000000E+00  0.00000000000E+00  0.24218487018E+01  0.24218487018E+01  0.00000000000E+00 0. -1.
         21   -1    0    0  501  503 -0.00000000000E+00 -0.00000000000E+00 -0.85813975916E+03  0.85813975916E+03  0.00000000000E+00 0.  1.
          2    1    1    2  501    0  0.36828321029E+02  0.81612510822E+01 -0.66948137973E+03  0.67054324920E+03  0.00000000000E+00 0.  1.
         -2    1    1    2    0  502 -0.36828321029E+02 -0.81612510822E+01 -0.18623653073E+03  0.19001835865E+03  0.00000000000E+00 0. -1.
</event>
<event>
 4    1  0.1820060E+004  0.2572331E+02  0.7546771E-02  0.1460872E+00
         21   -1    0    0  501  502  0.00000000000E+00  0.00000000000E+00  0.95987053010E+01  0.95987053010E+01  0.00000000000E+00 0. -1.
         21   -1    0    0  502  503 -0.00000000000E+00 -0.00000000000E+00 -0.13712333411E+03  0.13712333411E+03  0.00000000000E+00 0.  1.
          2    1    1    2  501    0 -0.23332637577E+02 -0.10829431224E+02 -0.12029736811E+02  0.28397237976E+02  0.00000000000E+00 0. -1.
         -2    1    1    2    0  503  0.23332637577E+02  0.10829431224E+02 -0.11549489199E+03  0.11832480143E+03  0.00000000000E+00 0.  1.
</event>
<event>
 4    1  0.1820060E+004  0.2236736E+02  0.7546771E-02  0.1500599E+00
         21   -1    0    0  501  502  0.00000000000E+00  0.00000000000E+00  0.16383962127E+03  0.16383962127E+03  0.00000000000E+00 0.  1.
         21   -1    0    0  502  503 -0.00000000000E+00 -0.00000000000E+00 -0.37943648251E+01  0.37943648251E+01  0.00000000000E+00 0. -1.
          2    1    1    2  501    0 -0.17542939664E+01 -0.22298457683E+02  0.11705709688E+03  0.11917492476E+03  0.00000000000E+00 0.  1.
         -2    1    1    2    0  503  0.17542939664E+01  0.22298457683E+02  0.42988159562E+02  0.48459061329E+02  0.00000000000E+00 0. -1.
</event>
<event>
 4    1  0.1820060E+004  0.2184661E+02  0.7546771E-02  0.1507512E+00
         21   -1    0    0  503  502  0.00000000000E+00  0.00000000000E+00  0.36487485471E+03  0.36487485471E+03  0.00000000000E+00 0.  1.
         21   -1    0    0  501  503 -0.00000000000E+00 -0.00000000000E+00 -0.36506865496E+01  0.36506865496E+01  0.00000000000E+00 0. -1.
          2    1    1    2  501    0 -0.20175375009E+02 -0.83802446899E+01  0.33006476500E+02  0.39581583454E+02  0.00000000000E+00 0. -1.
         -2    1    1    2    0  502  0.20175375009E+02  0.83802446899E+01  0.32821769166E+03  0.32894395780E+03  0.00000000000E+00 0.  1.
</event>
<event>
 4    1  0.1820060E+004  0.2384668E+02  0.7546771E-02  0.1482131E+00
         21   -1    0    0  503  502  0.00000000000E+00  0.00000000000E+00  0.75237068583E+02  0.75237068583E+02  0.00000000000E+00 0. -1.
         21   -1    0    0  501  503 -0.00000000000E+00 -0.00000000000E+00 -0.25271618742E+02  0.25271618742E+02  0.00000000000E+00 0.  1.
          2    1    1    2  501    0  0.43830410828E+01  0.23440415037E+02 -0.17090623900E+02  0.29338601391E+02  0.00000000000E+00 0.  1.
         -2    1    1    2    0  502 -0.43830410828E+01 -0.23440415037E+02  0.67056073742E+02  0.71170085934E+02  0.00000000000E+00 0. -1.
</event>
<event>
 4    1  0.1820060E+004  0.2092572E+02  0.7546771E-02  0.1520328E+00
         21   -1    0    0  503  502  0.00000000000E+00  0.00000000000E+00  0.11572872764E+01  0.11572872764E+01  0.00000000000E+00 0.  1.
         21   -1    0    0  501  503 -0.00000000000E+00 -0.00000000000E+00 -0.42133299219E+03  0.42133299219E+03  0.00000000000E+00 0. -1.
          2    1    1    2  501    0  0.85292544380E+01  0.19108575924E+02 -0.27754187464E+03  0.27832962120E+03  0.00000000000E+00 0. -1.
         -2    1    1    2    0  502 -0.85292544380E+01 -0.19108575924E+02 -0.14263383026E+03  0.14416065826E+03  0.00000000000E+00 0.  1.
</event>
<event>
 4    1  0.1820060E+004  0.2183578E+02  0.7546771E-02  0.1507659E+00
         21   -1    0    0  503  502  0.00000000000E+00  0.00000000000E+00  0.35525161007E+01  0.35525161007E+01  0.00000000000E+00 0. -1.
         21   -1    0    0  501  503 -0.00000000000E+00 -0.00000000000E+00 -0.13616314362E+04  0.13616314362E+04  0.00000000000E+00 0.  1.
          2    1    1    2  501    0  0.19893153183E+02  0.90035314799E+01 -0.13271175702E+04  0.13272971959E+04  0.00000000000E+00 0.  1.
         -2    1    1    2    0  502 -0.19893153183E+02 -0.90035314799E+01 -0.30961349904E+02  0.37886756400E+02  0.00000000000E+00 0. -1.
</event>
<event>
 4    1  0.1820060E+004  0.2599328E+02  0.7546771E-02  0.1457992E+00
         21   -1    0    0  501  502  0.00000000000E+00  0.00000000000E+00  0.10488757569E+02  0.10488757569E+02  0.00000000000E+00 0.  1.
         21   -1    0    0  502  503 -0.00000000000E+00 -0.00000000000E+00 -0.14317752236E+03  0.14317752236E+03  0.00000000000E+00 0. -1.
          2    1    1    2  501    0  0.16458087639E+02 -0.20119188110E+02 -0.93586040894E+01  0.27626687269E+02  0.00000000000E+00 0.  1.
         -2    1    1    2    0  503 -0.16458087639E+02  0.20119188110E+02 -0.12333016070E+03  0.12603959266E+03  0.00000000000E+00 0. -1.
</event>
<event>
 4    1  0.1820060E+004  0.2122335E+02  0.7546771E-02  0.1516100E+00
         21   -1    0    0  501  502  0.00000000000E+00  0.00000000000E+00  0.56952696953E+01  0.56952696953E+01  0.00000000000E+00 0. -1.
         21   -1    0    0  502  503 -0.00000000000E+00 -0.00000000000E+00 -0.10033708007E+03  0.10033708007E+03  0.00000000000E+00 0.  1.
          2    1    1    2  501    0 -0.15492686912E+02  0.14505422687E+02 -0.22923587375E+02  0.31239742208E+02  0.00000000000E+00 0. -1.
         -2    1    1    2    0  503  0.15492686912E+02 -0.14505422687E+02 -0.71718223000E+02  0.74792607558E+02  0.00000000000E+00 0.  1.
</event>
<event>
 4    1  0.1820060E+004  0.2711039E+02  0.7546771E-02  0.1446502E+00
         21   -1    0    0  503  502  0.00000000000E+00  0.00000000000E+00  0.19730335366E+01  0.19730335366E+01  0.00000000000E+00 0. -1.
         21   -1    0    0  501  503 -0.00000000000E+00 -0.00000000000E+00 -0.37256096111E+03  0.37256096111E+03  0.00000000000E+00 0.  1.
          2    1    1    2  501    0  0.24828207476E+02 -0.10887298695E+02 -0.18750111624E+03  0.18945089535E+03  0.00000000000E+00 0.  1.
         -2    1    1    2    0  502 -0.24828207476E+02  0.10887298695E+02 -0.18308681134E+03  0.18508309930E+03  0.00000000000E+00 0. -1.
</event>
<event>
 4    1  0.1820060E+004  0.3453540E+02  0.7546771E-02  0.1383859E+00
         21   -1    0    0  503  502  0.00000000000E+00  0.00000000000E+00  0.69006567997E+02  0.69006567997E+02  0.00000000000E+00 0.  1.
         21   -1    0    0  501  503 -0.00000000000E+00 -0.00000000000E+00 -0.69382775146E+02  0.69382775146E+02  0.00000000000E+00 0. -1.
          2    1    1    2  501    0  0.92801822143E+01 -0.33265182251E+02 -0.60148087127E+02  0.69357670932E+02  0.00000000000E+00 0. -1.
         -2    1    1    2    0  502 -0.92801822143E+01  0.33265182251E+02  0.59771879978E+02  0.69031672211E+02  0.00000000000E+00 0.  1.
</event>
<event>
 4    1  0.1820060E+004  0.2004074E+02  0.7546771E-02  0.1533414E+00
         21   -1    0    0  503  502  0.00000000000E+00  0.00000000000E+00  0.11784019622E+02  0.11784019622E+02  0.00000000000E+00 0.  1.
         21   -1    0    0  501  503 -0.00000000000E+00 -0.00000000000E+00 -0.30635986798E+03  0.30635986798E+03  0.00000000000E+00 0. -1.
          2    1    1    2  501    0  0.60521698133E+01 -0.19105042409E+02 -0.29725062384E+03  0.29792543493E+03  0.00000000000E+00 0. -1.
         -2    1    1    2    0  502 -0.60521698133E+01  0.19105042409E+02  0.26747754755E+01  0.20218452680E+02  0.00000000000E+00 0.  1.
</event>
<event>
 4    1  0.1820060E+004  0.2087544E+02  0.7546771E-02  0.1521051E+00
         21   -1    0    0  503  502  0.00000000000E+00  0.00000000000E+00  0.45634729643E+02  0.45634729643E+02  0.00000000000E+00 0. -1.
         21   -1    0    0  501  503 -0.00000000000E+00 -0.00000000000E+00 -0.17174999535E+03  0.17174999535E+03  0.00000000000E+00 0.  1.
          2    1    1    2  501    0 -0.20841925545E+02  0.11824194744E+01 -0.16868510649E+03  0.16997190688E+03  0.00000000000E+00 0.  1.
         -2    1    1    2    0  502  0.20841925545E+02 -0.11824194744E+01  0.42569840789E+02  0.47412818109E+02  0.00000000000E+00 0. -1.
</event>
<event>
 4    1  0.1820060E+004  0.2035436E+02  0.7546771E-02  0.1528686E+00
         21   -1    0    0  503  502  0.00000000000E+00  0.00000000000E+00  0.75814490606E+02  0.75814490606E+02  0.00000000000E+00 0.  1.
         21   -1    0    0  501  503 -0.00000000000E+00 -0.00000000000E+00 -0.95626038726E+01  0.95626038726E+01  0.00000000000E+00 0. -1.
          2    1    1    2  501    0  0.30613103245E+01 -0.20122831716E+02  0.51807833441E+01  0.21003344810E+02  0.00000000000E+00 0. -1.
         -2    1    1    2    0  502 -0.30613103245E+01  0.20122831716E+02  0.61071103389E+02  0.64373749668E+02  0.00000000000E+00 0.  1.
</event>
<event>
 4    1  0.1820060E+004  0.3440701E+02  0.7546771E-02  0.1384781E+00
         21   -1    0    0  503  502  0.00000000000E+00  0.00000000000E+00  0.75196546323E+02  0.75196546323E+02  0.00000000000E+00 0.  1.
         21   -1    0    0  501  503 -0.00000000000E+00 -0.00000000000E+00 -0.27671375337E+02  0.27671375337E+02  0.00000000000E+00 0. -1.
          2    1    1    2  501    0 -0.15511402657E+02 -0.30712189281E+02 -0.10006530221E+02  0.35832566611E+02  0.00000000000E+00 0. -1.
         -2    1    1    2    0  502  0.15511402657E+02  0.30712189281E+02  0.57531701207E+02  0.67035355049E+02  0.00000000000E+00 0.  1.
</event>
<event>
 4    1  0.1820060E+004  0.2034333E+02  0.7546771E-02  0.1528850E+00
         21   -1    0    0  503  502  0.00000000000E+00  0.00000000000E+00  0.15664446727E+01  0.15664446727E+01  0.00000000000E+00 0.  1.
         21   -1    0    0  501  503 -0.00000000000E+00 -0.00000000000E+00 -0.26878302997E+03  0.26878302997E+03  0.00000000000E+00 0. -1.
          2    1    1    2  501    0  0.19952271853E+02 -0.39696171349E+01 -0.15126387095E+03  0.15262571758E+03  0.00000000000E+00 0. -1.
         -2    1    1    2    0  502 -0.19952271853E+02  0.39696171349E+01 -0.11595271435E+03  0.11772375707E+03  0.00000000000E+00 0.  1.
</event>
<event>
 4    1  0.1820060E+004  0.2218943E+02  0.7546771E-02  0.1502935E+00
         21   -1    0    0  501  502  0.00000000000E+00  0.00000000000E+00  0.76791377501E+02  0.76791377501E+02  0.00000000000E+00 0.  1.
         21   -1    0    0  502  503 -0.00000000000E+00 -0.00000000000E+00 -0.12006538991E+02  0.12006538991E+02  0.00000000000E+00 0. -1.
          2    1    1    2  501    0 -0.20425863307E+02 -0.86691935567E+01  0.62700180065E+02  0.66510776487E+02  0.00000000000E+00 0.  1.
         -2    1    1    2    0  503  0.20425863307E+02  0.86691935567E+01  0.20846584453E+01  0.22287140005E+02  0.00000000000E+00 0. -1.
</event>
<event>
 4    1  0.1820060E+004  0.2416512E+02  0.7546771E-02  0.1478364E+00
         21   -1    0    0  503  502  0.00000000000E+00  0.00000000000E+00  0.19053570479E+01  0.19053570479E+01  0.00000000000E+00 0. -1.
         21   -1    0    0  501  503 -0.00000000000E+00 -0.00000000000E+00 -0.32597288607E+03  0.32597288607E+03  0.00000000000E+00 0.  1.
          2    1    1    2  501    0  0.15238724651E+02 -0.18754585262E+02 -0.20212354004E+03  0.20356295988E+03  0.00000000000E+00 0.  1.
         -2    1    1    2    0  502 -0.15238724651E+02  0.18754585262E+02 -0.12194398898E+03  0.12431528324E+03  0.00000000000E+00 0. -1.
</event>
<event>
 4    1  0.1820060E+004  0.3479839E+02  0.7546771E-02  0.1381986E+00
         21   -1    0    0  501  502  0.00000000000E+00  0.00000000000E+00  0.23109135326E+02  0.23109135326E+02  0.00000000000E+00 0.  1.
         21   -1    0    0  502  503 -0.00000000000E+00 -0.00000000000E+00 -0.10782229917E+03  0.10782229917E+03  0.00000000000E+00 0. -1.
          2    1    1    2  501    0  0.23207886294E+02 -0.25929165344E+02  0.45788041607E+01  0.35098333995E+02  0.00000000000E+00 0.  1.
         -2    1    1    2    0  503 -0.23207886294E+02  0.25929165344E+02 -0.89291968001E+02  0.95833100499E+02  0.00000000000E+00 0. -1.
</event>
<event>
 4    1  0.1820060E+004  0.2376342E+02  0.7546771E-02  0.1483128E+00
         21   -1    0    0  501  502  0.00000000000E+00  0.00000000000E+00  0.42016320864E+02  0.42016320864E+02  0.00000000000E+00 0. -1.
         21   -1    0    0  502  503 -0.00000000000E+00 -0.00000000000E+00 -0.15640468986E+02  0.15640468986E+02  0.00000000000E+00 0.  1.
          2    1    1    2  501    0 -0.18899518278E+02  0.14405152839E+02  0.24001049526E+02  0.33774999598E+02  0.00000000000E+00 0. -1.
         -2    1    1    2    0  503  0.18899518278E+02 -0.14405152839E+02  0.23748023507E+01  0.23881790252E+02  0.00000000000E+00 0.  1.
</event>
<event>
 4    1  0.1820060E+004  0.2233208E+02  0.7546771E-02  0.1501060E+00
         21   -1    0    0  503  502  0.00000000000E+00  0.00000000000E+00  0.85516464111E+02  0.85516464111E+02  0.00000000000E+00 0.  1.
         21   -1    0    0  501  503 -0.00000000000E+00 -0.00000000000E+00 -0.82841680067E+01  0.82841680067E+01  0.00000000000E+00 0. -1.
          2    1    1    2  501    0 -0.85078874528E+01  0.20647947462E+02  0.13098718385E+02  0.25890119865E+02  0.00000000000E+00 0. -1.
         -2    1    1    2    0  502  0.85078874528E+01 -0.20647947462E+02  0.64133577719E+02  0.67910512252E+02  0.00000000000E+00 0.  1.
</event>
<event>
 4    1  0.1820060E+004  0.2942487E+02  0.7546771E-02  0.1424661E+00
         21   -1    0    0  501  502  0.00000000000E+00  0.00000000000E+00  0.24737762581E+02  0.24737762581E+02  0.00000000000E+00 0. -1.
         21   -1    0    0  502  503 -0.00000000000E+00 -0.00000000000E+00 -0.15461145290E+03  0.15461145290E+03  0.00000000000E+00 0.  1.
          2    1    1    2  501    0 -0.41984360862E+01 -0.29123811097E+02  0.13937347012E+02  0.32558760421E+02  0.00000000000E+00 0. -1.
         -2    1    1    2    0  503  0.41984360862E+01  0.29123811097E+02 -0.14381103733E+03  0.14679045506E+03  0.00000000000E+00 0.  1.
</event>
<event>
 4    1  0.1820060E+004  0.2635816E+02  0.7546771E-02  0.1454164E+00
         21   -1    0    0  503  502  0.00000000000E+00  0.00000000000E+00  0.55091502596E+01  0.55091502596E+01  0.00000000000E+00 0.  1.
         21   -1    0    0  501  503 -0.00000000000E+00 -0.00000000000E+00 -0.23803045589E+03  0.23803045589E+03  0.00000000000E+00 0. -1.
          2    1    1    2  501    0 -0.11187060517E+02  0.23866338566E+02 -0.19975947775E+03  0.20149094617E+03  0.00000000000E+00 0. -1.
         -2    1    1    2    0  502  0.11187060517E+02 -0.23866338566E+02 -0.32761827879E+02  0.42048659973E+02  0.00000000000E+00 0.  1.
</event>
<event>
 4    1  0.1820060E+004  0.2164486E+02  0.7546771E-02  0.1510254E+00
         21   -1    0    0  501  502  0.00000000000E+00  0.00000000000E+00  0.34422407846E+03  0.34422407846E+03  0.00000000000E+00 0. -1.
         21   -1    0    0  502  503 -0.00000000000E+00 -0.00000000000E+00 -0.36063839718E+01  0.36063839718E+01  0.00000000000E+00 0.  1.
          2    1    1    2  501    0  0.21208431317E+02  0.43246251130E+01  0.30753720414E+03  0.30829795956E+03  0.00000000000E+00 0. -1.
         -2    1    1    2    0  503 -0.21208431317E+02 -0.43246251130E+01  0.33080490350E+02  0.39532502869E+02  0.00000000000E+00 0.  1.
</event>
<event>
 4    1  0.1820060E+004  0.2906960E+02  0.7546771E-02  0.1427857E+00
         21   -1    0    0  503  502  0.00000000000E+00  0.00000000000E+00  0.33461697419E+02  0.33461697419E+02  0.00000000000E+00 0. -1.
         21   -1    0    0  501  503 -0.00000000000E+00 -0.00000000000E+00 -0.25970323403E+02  0.25970323403E+02  0.00000000000E+00 0.  1.
          2    1    1    2  501    0 -0.37150397575E+01  0.28831236997E+02  0.86809014199E+01  0.30338091513E+02  0.00000000000E+00 0. -1.
         -2    1    1    2    0  502  0.37150397575E+01 -0.28831236997E+02 -0.11895274039E+01  0.29093929309E+02  0.00000000000E+00 0.  1.
</event>
<event>
 4    1  0.1820060E+004  0.4677134E+02  0.7546771E-02  0.1312812E+00
         21   -1    0    0  501  502  0.00000000000E+00  0.00000000000E+00  0.17800629844E+02  0.17800629844E+02  0.00000000000E+00 0.  1.
         21   -1    0    0  502  503 -0.00000000000E+00 -0.00000000000E+00 -0.12917146143E+03  0.12917146143E+03  0.00000000000E+00 0. -1.
          2    1    1    2  501    0 -0.42822001376E+02 -0.18810475479E+02 -0.39483089418E+02  0.61208431932E+02  0.00000000000E+00 0.  1.
         -2    1    1    2    0  503  0.42822001376E+02  0.18810475479E+02 -0.71887742164E+02  0.85763659338E+02  0.00000000000E+00 0. -1.
</event>
<event>
 4    1  0.1820060E+004  0.2489786E+02  0.7546771E-02  0.1469949E+00
         21   -1    0    0  503  502  0.00000000000E+00  0.00000000000E+00  0.68011544280E+01  0.68011544280E+01  0.00000000000E+00 0.  1.
         21   -1    0    0  501  503 -0.00000000000E+00 -0.00000000000E+00 -0.38823931916E+03  0.38823931916E+03  0.00000000000E+00 0. -1.
          2    1    1    2  501    0 -0.20234421681E+02  0.14507639786E+02 -0.36350474409E+03  0.36435642221E+03  0.00000000000E+00 0. -1.
         -2    1    1    2    0  502  0.20234421681E+02 -0.14507639786E+02 -0.17933420648E+02  0.30684051380E+02  0.00000000000E+00 0.  1.
</event>
<event>
 4    1  0.1820060E+004  0.2424714E+02  0.7546771E-02  0.1477405E+00
         21   -1    0    0  501  502  0.00000000000E+00  0.00000000000E+00  0.15757484479E+03  0.15757484479E+03  0.00000000000E+00 0. -1.
         21   -1    0    0  502  503 -0.00000000000E+00 -0.00000000000E+00 -0.15734010687E+02  0.15734010687E+02  0.00000000000E+00 0.  1.
          2    1    1    2  501    0  0.39130409632E+01 -0.23929310854E+02  0.14660627699E+03  0.14859786089E+03  0.00000000000E+00 0. -1.
         -2    1    1    2    0  503 -0.39130409632E+01  0.23929310854E+02 -0.47654428894E+01  0.24710994587E+02  0.00000000000E+00 0.  1.
</event>
<event>
 4    1  0.1820060E+004  0.2125549E+02  0.7546771E-02  0.1515648E+00
         21   -1    0    0  503  502  0.00000000000E+00  0.00000000000E+00  0.42084983257E+02  0.42084983257E+02  0.00000000000E+00 0.  1.
         21   -1    0    0  501  503 -0.00000000000E+00 -0.00000000000E+00 -0.17028817156E+02  0.17028817156E+02  0.00000000000E+00 0. -1.
          2    1    1    2  501    0 -0.11126207194E+01 -0.21226348147E+02 -0.54404511021E+01  0.21940699367E+02  0.00000000000E+00 0. -1.
         -2    1    1    2    0  502  0.11126207194E+01  0.21226348147E+02  0.30496617203E+02  0.37173101046E+02  0.00000000000E+00 0.  1.
</event>
<event>
 4    1  0.1820060E+004  0.2328869E+02  0.7546771E-02  0.1488904E+00
         21   -1    0    0  503  502  0.00000000000E+00  0.00000000000E+00  0.15795793503E+02  0.15795793503E+02  0.00000000000E+00 0.  1.
         21   -1    0    0  501  503 -0.00000000000E+00 -0.00000000000E+00 -0.48805004815E+02  0.48805004815E+02  0.00000000000E+00 0. -1.
          2    1    1    2  501    0 -0.22409676476E+02  0.63379530354E+01 -0.34091781318E+02  0.41286956801E+02  0.00000000000E+00 0. -1.
         -2    1    1    2    0  502  0.22409676476E+02 -0.63379530354E+01  0.10825700064E+01  0.23313841516E+02  0.00000000000E+00 0.  1.
</event>
<event>
 4    1  0.1820060E+004  0.2603279E+02  0.7546771E-02  0.1457574E+00
         21   -1    0    0  501  502  0.00000000000E+00  0.00000000000E+00  0.10034201778E+03  0.10034201778E+03  0.00000000000E+00 0.  1.
         21   -1    0    0  502  503 -0.00000000000E+00 -0.00000000000E+00 -0.70307160635E+01  0.70307160635E+01  0.00000000000E+00 0. -1.
          2    1    1    2  501    0 -0.25239999816E+02 -0.63756127878E+01  0.57307190302E+02  0.62942990789E+02  0.00000000000E+00 0. -1.
         -2    1    1    2    0  503  0.25239999816E+02  0.63756127878E+01  0.36004111416E+02  0.44429743055E+02  0.00000000000E+00 0.  1.
</event>
<event>
 4    1  0.1820060E+004  0.2703581E+02  0.7546771E-02  0.1447249E+00
         21   -1    0    0  501  502  0.00000000000E+00  0.00000000000E+00  0.30552460648E+02  0.30552460648E+02  0.00000000000E+00 0.  1.
         21   -1    0    0  502  503 -0.00000000000E+00 -0.00000000000E+00 -0.43398135823E+02  0.43398135823E+02  0.00000000000E+00 0. -1.
          2    1    1    2  501    0  0.15654473099E+02 -0.22042514384E+02  0.18346022052E+02  0.32672794394E+02  0.00000000000E+00 0.  1.
         -2    1    1    2    0  503 -0.15654473099E+02  0.22042514384E+02 -0.31191697227E+02  0.41277802077E+02  0.00000000000E+00 0. -1.
</event>
<event>
 4    1  0.1820060E+004  0.3456174E+02  0.7546771E-02  0.1383671E+00
         21   -1    0    0  501  502  0.00000000000E+00  0.00000000000E+00  0.56459012880E+03  0.56459012880E+03  0.00000000000E+00 0.  1.
         21   -1    0    0  502  503 -0.00000000000E+00 -0.00000000000E+00 -0.59078838106E+02  0.59078838106E+02  0.00000000000E+00 0. -1.
          2    1    1    2  501    0  0.46020839425E+01  0.34253970562E+02  0.55895554895E+03  0.56002305254E+03  0.00000000000E+00 0.  1.
         -2    1    1    2    0  503 -0.46020839425E+01 -0.34253970562E+02 -0.53444258252E+02  0.63645914370E+02  0.00000000000E+00 0. -1.
</event>
<event>
 4    1  0.1820060E+004  0.2590827E+02  0.7546771E-02  0.1458894E+00
         21   -1    0    0  503  502  0.00000000000E+00  0.00000000000E+00  0.29742063991E+03  0.29742063991E+03  0.00000000000E+00 0. -1.
         21   -1    0    0  501  503 -0.00000000000E+00 -0.00000000000E+00 -0.24291810622E+01  0.24291810622E+01  0.00000000000E+00 0.  1.
          2    1    1    2  501    0 -0.17981113533E+01  0.25845801817E+02  0.18742623937E+03  0.18920844029E+03  0.00000000000E+00 0. -1.
         -2    1    1    2    0  502  0.17981113533E+01 -0.25845801817E+02  0.10756521949E+03  0.11064138068E+03  0.00000000000E+00 0.  1.
</event>
<event>
 4    1  0.1820060E+004  0.2618232E+02  0.7546771E-02  0.1455999E+00
         21   -1    0    0  501  502  0.00000000000E+00  0.00000000000E+00  0.28133205167E+02  0.28133205167E+02  0.00000000000E+00 0. -1.
         21   -1    0    0  502  503 -0.00000000000E+00 -0.00000000000E+00 -0.34943212745E+02  0.34943212745E+02  0.00000000000E+00 0.  1.
          2    1    1    2  501    0 -0.70951697378E+01  0.25202630528E+02  0.13946071136E+02  0.29664910572E+02  0.00000000000E+00 0.  1.
         -2    1    1    2    0  503  0.70951697378E+01 -0.25202630528E+02 -0.20756078714E+02  0.33411507340E+02  0.00000000000E+00 0. -1.
</event>
<event>
 4    1  0.1820060E+004  0.2510722E+02  0.7546771E-02  0.1467607E+00
         21   -1    0    0  503  502  0.00000000000E+00  0.00000000000E+00  0.50661385913E+02  0.50661385913E+02  0.00000000000E+00 0. -1.
         21   -1    0    0  501  503 -0.00000000000E+00 -0.00000000000E+00 -0.32875510836E+02  0.32875510836E+02  0.00000000000E+00 0.  1.
          2    1    1    2  501    0  0.75085647642E+01 -0.23958166003E+02 -0.24035756033E+02  0.34757586670E+02  0.00000000000E+00 0.  1.
         -2    1    1    2    0  502 -0.75085647642E+01  0.23958166003E+02  0.41821631110E+02  0.48779310079E+02  0.00000000000E+00 0. -1.
</event>
<event>
 4    1  0.1820060E+004  0.4044696E+02  0.7546771E-02  0.1345886E+00
         21   -1    0    0  503  502  0.00000000000E+00  0.00000000000E+00  0.27010065507E+03  0.27010065507E+03  0.00000000000E+00 0.  1.
         21   -1    0    0  501  503 -0.00000000000E+00 -0.00000000000E+00 -0.19001870126E+02  0.19001870126E+02  0.00000000000E+00 0. -1.
          2    1    1    2  501    0 -0.19910212494E+02  0.35207098487E+02  0.62398291920E+01  0.40925442133E+02  0.00000000000E+00 0. -1.
         -2    1    1    2    0  502  0.19910212494E+02 -0.35207098487E+02  0.24485895576E+03  0.24817708307E+03  0.00000000000E+00 0.  1.
</event>
<event>
 4    1  0.1820060E+004  0.2414189E+02  0.7546771E-02  0.1478636E+00
         21   -1    0    0  501  502  0.00000000000E+00  0.00000000000E+00  0.33484697811E+02  0.33484697811E+02  0.00000000000E+00 0.  1.
         21   -1    0    0  502  503 -0.00000000000E+00 -0.00000000000E+00 -0.41614070874E+02  0.41614070874E+02  0.00000000000E+00 0. -1.
          2    1    1    2  501    0  0.93079417595E+01 -0.22275387263E+02  0.24574711155E+02  0.34449195722E+02  0.00000000000E+00 0.  1.
         -2    1    1    2    0  503 -0.93079417595E+01  0.22275387263E+02 -0.32704084218E+02  0.40649572963E+02  0.00000000000E+00 0. -1.
</event>
<event>
 4    1  0.1820060E+004  0.2923518E+02  0.7546771E-02  0.1426361E+00
         21   -1    0    0  503  502  0.00000000000E+00  0.00000000000E+00  0.79712470068E+01  0.79712470068E+01  0.00000000000E+00 0. -1.
         21   -1    0    0  501  503 -0.00000000000E+00 -0.00000000000E+00 -0.10753820436E+03  0.10753820436E+03  0.00000000000E+00 0.  1.
          2    1    1    2  501    0  0.17945485006E+02 -0.23079320851E+02 -0.46653221254E+02  0.55056503126E+02  0.00000000000E+00 0. -1.
         -2    1    1    2    0  502 -0.17945485006E+02  0.23079320851E+02 -0.52913736098E+02  0.60452948240E+02  0.00000000000E+00 0.  1.
</event>
<event>
 4    1  0.1820060E+004  0.2181292E+02  0.7546771E-02  0.1507968E+00
         21   -1    0    0  503  502  0.00000000000E+00  0.00000000000E+00  0.59813243935E+01  0.59813243935E+01  0.00000000000E+00 0.  1.
         21   -1    0    0  501  503 -0.00000000000E+00 -0.00000000000E+00 -0.19447128695E+03  0.19447128695E+03  0.00000000000E+00 0. -1.
          2    1    1    2  501    0 -0.21809038296E+02 -0.41123570578E+00 -0.17129233413E+03  0.17267561205E+03  0.00000000000E+00 0. -1.
         -2    1    1    2    0  502  0.21809038296E+02  0.41123570578E+00 -0.17197628432E+02  0.27776999296E+02  0.00000000000E+00 0.  1.
</event>
<event>
 4    1  0.1820060E+004  0.2743819E+02  0.7546771E-02  0.1443255E+00
         21   -1    0    0  501  502  0.00000000000E+00  0.00000000000E+00  0.87155853269E+01  0.87155853269E+01  0.00000000000E+00 0.  1.
         21   -1    0    0  502  503 -0.00000000000E+00 -0.00000000000E+00 -0.11751059678E+03  0.11751059678E+03  0.00000000000E+00 0. -1.
          2    1    1    2  501    0  0.22287533255E+02 -0.16003761734E+02 -0.21913255799E+02  0.35114744879E+02  0.00000000000E+00 0.  1.
         -2    1    1    2    0  503 -0.22287533255E+02  0.16003761734E+02 -0.86881755655E+02  0.91111437229E+02  0.00000000000E+00 0. -1.
</event>
<event>
 4    1  0.1820060E+004  0.2716785E+02  0.7546771E-02  0.1445929E+00
         21   -1    0    0  501  502  0.00000000000E+00  0.00000000000E+00  0.98809641352E+02  0.98809641352E+02  0.00000000000E+00 0.  1.
         21   -1    0    0  502  503 -0.00000000000E+00 -0.00000000000E+00 -0.98356331188E+01  0.98356331188E+01  0.00000000000E+00 0. -1.
          2    1    1    2  501    0 -0.20992037350E+02  0.17246061151E+02  0.71129077785E+02  0.76140908610E+02  0.00000000000E+00 0.  1.
         -2    1    1    2    0  503  0.20992037350E+02 -0.17246061151E+02  0.17844930447E+02  0.32504365860E+02  0.00000000000E+00 0. -1.
</event>
<event>
 4    1  0.1820060E+004  0.2419085E+02  0.7546771E-02  0.1478062E+00
         21   -1    0    0  503  502  0.00000000000E+00  0.00000000000E+00  0.30524966176E+03  0.30524966176E+03  0.00000000000E+00 0.  1.
         21   -1    0    0  501  503 -0.00000000000E+00 -0.00000000000E+00 -0.57993073132E+01  0.57993073132E+01  0.00000000000E+00 0. -1.
          2    1    1    2  501    0  0.22571188855E+02  0.87028089741E+01  0.22477617741E+02  0.33021822325E+02  0.00000000000E+00 0. -1.
         -2    1    1    2    0  502 -0.22571188855E+02 -0.87028089741E+01  0.27697273671E+03  0.27802714675E+03  0.00000000000E+00 0.  1.
</event>
<event>
 4    1  0.1820060E+004  0.3732838E+02  0.7546771E-02  0.1364895E+00
         21   -1    0    0  503  502  0.00000000000E+00  0.00000000000E+00  0.11103230781E+02  0.11103230781E+02  0.00000000000E+00 0.  1.
         21   -1    0    0  501  503 -0.00000000000E+00 -0.00000000000E+00 -0.26337025612E+03  0.26337025612E+03  0.00000000000E+00 0. -1.
          2    1    1    2  501    0  0.19417283789E+02 -0.31880669096E+02 -0.22542889874E+03  0.22849856970E+03  0.00000000000E+00 0. -1.
         -2    1    1    2    0  502 -0.19417283789E+02  0.31880669096E+02 -0.26838126606E+02  0.45974917199E+02  0.00000000000E+00 0.  1.
</event>
<event>
 4    1  0.1820060E+004  0.3478802E+02  0.7546771E-02  0.1382060E+00
         21   -1    0    0  503  502  0.00000000000E+00  0.00000000000E+00  0.13037256552E+03  0.13037256552E+03  0.00000000000E+00 0.  1.
         21   -1    0    0  501  503 -0.00000000000E+00 -0.00000000000E+00 -0.20821188785E+02  0.20821188785E+02  0.00000000000E+00 0. -1.
          2    1    1    2  501    0 -0.26901997119E+02 -0.22056486838E+02 -0.15006775402E+01  0.34820368948E+02  0.00000000000E+00 0. -1.
         -2    1    1    2    0  502  0.26901997119E+02  0.22056486838E+02  0.11105205427E+03  0.11637338536E+03  0.00000000000E+00 0.  1.
</event>
<event>
 4    1  0.1820060E+004  0.2440545E+02  0.7546771E-02  0.1475566E+00
         21   -1    0    0  501  502  0.00000000000E+00  0.00000000000E+00  0.15567000025E+03  0.15567000025E+03  0.00000000000E+00 0. -1.
         21   -1    0    0  502  503 -0.00000000000E+00 -0.00000000000E+00 -0.48840999234E+01  0.48840999234E+01  0.00000000000E+00 0.  1.
          2    1    1    2  501    0  0.24196794918E+02 -0.31844766622E+01  0.11275406422E+03  0.11536509339E+03  0.00000000000E+00 0. -1.
         -2    1    1    2    0  503 -0.24196794918E+02  0.31844766622E+01  0.38031836105E+02  0.45189006777E+02  0.00000000000E+00 0.  1.
</event>
<event>
 4    1  0.1820060E+004  0.4238924E+02  0.7546771E-02  0.1335026E+00
         21   -1    0    0  503  502  0.00000000000E+00  0.00000000000E+00  0.53045911898E+02  0.53045911898E+02  0.00000000000E+00 0. -1.
         21   -1    0    0  501  503 -0.00000000000E+00 -0.00000000000E+00 -0.45701089960E+02  0.45701089960E+02  0.00000000000E+00 0.  1.
          2    1    1    2  501    0  0.39246769495E+02  0.16016826523E+02 -0.21445286722E+02  0.47505241503E+02  0.00000000000E+00 0.  1.
         -2    1    1    2    0  502 -0.39246769495E+02 -0.16016826523E+02  0.28790108660E+02  0.51241760355E+02  0.00000000000E+00 0. -1.
</event>
<event>
 4    1  0.1820060E+004  0.3200036E+02  0.7546771E-02  0.1402974E+00
         21   -1    0    0  503  502  0.00000000000E+00  0.00000000000E+00  0.11073228619E+02  0.11073228619E+02  0.00000000000E+00 0. -1.
         21   -1    0    0  501  503 -0.00000000000E+00 -0.00000000000E+00 -0.12543228763E+03  0.12543228763E+03  0.00000000000E+00 0.  1.
          2    1    1    2  501    0  0.71165127896E+01 -0.31199009404E+02 -0.92164033438E+02  0.97561426812E+02  0.00000000000E+00 0.  1.
         -2    1    1    2    0  502 -0.71165127896E+01  0.31199009404E+02 -0.22195025578E+02  0.38944089442E+02  0.00000000000E+00 0. -1.
</event>
<event>
 4    1  0.1820060E+004  0.2375170E+02  0.7546771E-02  0.1483269E+00
         21   -1    0    0  503  502  0.00000000000E+00  0.00000000000E+00  0.22144533428E+02  0.22144533428E+02  0.00000000000E+00 0.  1.
         21   -1    0    0  501  503 -0.00000000000E+00 -0.00000000000E+00 -0.43061150148E+02  0.43061150148E+02  0.00000000000E+00 0. -1.
          2    1    1    2  501    0  0.12766839427E+01 -0.23717366335E+02 -0.31293220635E+02  0.39286244991E+02  0.00000000000E+00 0. -1.
         -2    1    1    2    0  502 -0.12766839427E+01  0.23717366335E+02  0.10376603915E+02  0.25919438585E+02  0.00000000000E+00 0.  1.
</event>
<event>
 4    1  0.1820060E+004  0.3049365E+02  0.7546771E-02  0.1415354E+00
         21   -1    0    0  503  502  0.00000000000E+00  0.00000000000E+00  0.98879057887E+02  0.98879057887E+02  0.00000000000E+00 0. -1.
         21   -1    0    0  501  503 -0.00000000000E+00 -0.00000000000E+00 -0.11161494704E+02  0.11161494704E+02  0.00000000000E+00 0.  1.
          2    1    1    2  501    0 -0.11776951629E+02 -0.28127670005E+02  0.22026259123E+02  0.37616731657E+02  0.00000000000E+00 0. -1.
         -2    1    1    2    0  502  0.11776951629E+02  0.28127670005E+02  0.65691304060E+02  0.72423820934E+02  0.00000000000E+00 0.  1.
</event>
<event>
 4    1  0.1820060E+004  0.2898525E+02  0.7546771E-02  0.1428624E+00
         21   -1    0    0  501  502  0.00000000000E+00  0.00000000000E+00  0.68412582418E+02  0.68412582418E+02  0.00000000000E+00 0.  1.
         21   -1    0    0  502  503 -0.00000000000E+00 -0.00000000000E+00 -0.42187670924E+02  0.42187670924E+02  0.00000000000E+00 0. -1.
          2    1    1    2  501    0 -0.36704442661E+01 -0.28751917598E+02  0.59673270469E+02  0.66340365805E+02  0.00000000000E+00 0.  1.
         -2    1    1    2    0  503  0.36704442661E+01  0.28751917598E+02 -0.33448358975E+02  0.44259887537E+02  0.00000000000E+00 0. -1.
</event>
<event>
 4    1  0.1820060E+004  0.2087320E+02  0.7546771E-02  0.1521083E+00
         21   -1    0    0  503  502  0.00000000000E+00  0.00000000000E+00  0.20252927909E+03  0.20252927909E+03  0.00000000000E+00 0.  1.
         21   -1    0    0  501  503 -0.00000000000E+00 -0.00000000000E+00 -0.31199291530E+01  0.31199291530E+01  0.00000000000E+00 0. -1.
          2    1    1    2  501    0  0.11106549710E+02  0.17673004587E+02  0.42409863846E+02  0.47268246097E+02  0.00000000000E+00 0. -1.
         -2    1    1    2    0  502 -0.11106549710E+02 -0.17673004587E+02  0.15699948609E+03  0.15838096215E+03  0.00000000000E+00 0.  1.
</event>
<event>
 4    1  0.1820060E+004  0.2299840E+02  0.7546771E-02  0.1492518E+00
         21   -1    0    0  501  502  0.00000000000E+00  0.00000000000E+00  0.16704445560E+02  0.16704445560E+02  0.00000000000E+00 0. -1.
         21   -1    0    0  502  503 -0.00000000000E+00 -0.00000000000E+00 -0.32887952188E+02  0.32887952188E+02  0.00000000000E+00 0.  1.
          2    1    1    2  501    0 -0.79011939920E+01 -0.21598557575E+02 -0.33078667827E+01  0.23235071304E+02  0.00000000000E+00 0. -1.
         -2    1    1    2    0  503  0.79011939920E+01  0.21598557575E+02 -0.12875639845E+02  0.26357326444E+02  0.00000000000E+00 0.  1.
</event>
<event>
 4    1  0.1820060E+004  0.4444139E+02  0.7546771E-02  0.1324256E+00
         21   -1    0    0  503  502  0.00000000000E+00  0.00000000000E+00  0.17933139918E+03  0.17933139918E+03  0.00000000000E+00 0.  1.
         21   -1    0    0  501  503 -0.00000000000E+00 -0.00000000000E+00 -0.14895844654E+02  0.14895844654E+02  0.00000000000E+00 0. -1.
          2    1    1    2  501    0 -0.44431109066E+02  0.95578735297E+00  0.32638088973E+02  0.55138750749E+02  0.00000000000E+00 0. -1.
         -2    1    1    2    0  502  0.44431109066E+02 -0.95578735297E+00  0.13179746555E+03  0.13908849308E+03  0.00000000000E+00 0.  1.
</event>
<event>
 4    1  0.1820060E+004  0.5145726E+02  0.7546771E-02  0.1291975E+00
         21   -1    0    0  501  502  0.00000000000E+00  0.00000000000E+00  0.12377601326E+03  0.12377601326E+03  0.00000000000E+00 0. -1.
         21   -1    0    0  502  503 -0.00000000000E+00 -0.00000000000E+00 -0.24344593062E+02  0.24344593062E+02  0.00000000000E+00 0.  1.
          2    1    1    2  501    0  0.34522777968E+02 -0.38157930533E+02  0.75506591567E+02  0.91373383604E+02  0.00000000000E+00 0. -1.
         -2    1    1    2    0  503 -0.34522777968E+02  0.38157930533E+02  0.23924828632E+02  0.56747222719E+02  0.00000000000E+00 0.  1.
</event>
<event>
 4    1  0.1820060E+004  0.2218018E+02  0.7546771E-02  0.1503057E+00
         21   -1    0    0  501  502  0.00000000000E+00  0.00000000000E+00  0.45970281663E+02  0.45970281663E+02  0.00000000000E+00 0.  1.
         21   -1    0    0  502  503 -0.00000000000E+00 -0.00000000000E+00 -0.15553068957E+02  0.15553068957E+02  0.00000000000E+00 0. -1.
          2    1    1    2  501    0  0.22010104972E+02  0.27414856271E+01  0.32389027061E+02  0.39255694342E+02  0.00000000000E+00 0.  1.
         -2    1    1    2    0  503 -0.22010104972E+02 -0.27414856271E+01 -0.19718143546E+01  0.22267656279E+02  0.00000000000E+00 0. -1.
</event>
<event>
 4    1  0.1820060E+004  0.2106365E+02  0.7546771E-02  0.1518358E+00
         21   -1    0    0  503  502  0.00000000000E+00  0.00000000000E+00  0.13527442599E+04  0.13527442599E+04  0.00000000000E+00 0.  1.
         21   -1    0    0  501  503 -0.00000000000E+00 -0.00000000000E+00 -0.11682276231E+01  0.11682276231E+01  0.00000000000E+00 0. -1.
          2    1    1    2  501    0  0.14185208478E+02  0.15571036024E+02  0.10167195189E+03  0.10383093520E+03  0.00000000000E+00 0. -1.
         -2    1    1    2    0  502 -0.14185208478E+02 -0.15571036024E+02  0.12499040804E+04  0.12500815523E+04  0.00000000000E+00 0.  1.
</event>
<event>
 4    1  0.1820060E+004  0.2208575E+02  0.7546771E-02  0.1504309E+00
         21   -1    0    0  503  502  0.00000000000E+00  0.00000000000E+00  0.12541754919E+02  0.12541754919E+02  0.00000000000E+00 0. -1.
         21   -1    0    0  501  503 -0.00000000000E+00 -0.00000000000E+00 -0.48195683124E+02  0.48195683124E+02  0.00000000000E+00 0.  1.
          2    1    1    2  501    0  0.18700403865E+02 -0.11750543788E+02 -0.31169483767E+02  0.38201009179E+02  0.00000000000E+00 0.  1.
         -2    1    1    2    0  502 -0.18700403865E+02  0.11750543788E+02 -0.44844444374E+01  0.22536428863E+02  0.00000000000E+00 0. -1.
</event>
<event>
 4    1  0.1820060E+004  0.2576929E+02  0.7546771E-02  0.1460378E+00
         21   -1    0    0  503  502  0.00000000000E+00  0.00000000000E+00  0.46744102616E+02  0.46744102616E+02  0.00000000000E+00 0.  1.
         21   -1    0    0  501  503 -0.00000000000E+00 -0.00000000000E+00 -0.24594412327E+02  0.24594412327E+02  0.00000000000E+00 0. -1.
          2    1    1    2  501    0  0.25025655880E+02  0.61459482905E+01 -0.12106905229E+02  0.28471622483E+02  0.00000000000E+00 0. -1.
         -2    1    1    2    0  502 -0.25025655880E+02 -0.61459482905E+01  0.34256595518E+02  0.42866892459E+02  0.00000000000E+00 0.  1.
</event>
<event>
 4    1  0.1820060E+004  0.2085383E+02  0.7546771E-02  0.1521362E+00
         21   -1    0    0  503  502  0.00000000000E+00  0.00000000000E+00  0.48894992416E+01  0.48894992416E+01  0.00000000000E+00 0.  1.
         21   -1    0    0  501  503 -0.00000000000E+00 -0.00000000000E+00 -0.11388760110E+03  0.11388760110E+03  0.00000000000E+00 0. -1.
          2    1    1    2  501    0  0.20260960918E+02  0.49371669807E+01 -0.82293682967E+02  0.84894831477E+02  0.00000000000E+00 0. -1.
         -2    1    1    2    0  502 -0.20260960918E+02 -0.49371669807E+01 -0.26704418888E+02  0.33882268862E+02  0.00000000000E+00 0.  1.
</event>
<event>
 4    1  0.1820060E+004  0.2296048E+02  0.7546771E-02  0.1492995E+00
         21   -1    0    0  501  502  0.00000000000E+00  0.00000000000E+00  0.76485450829E+02  0.76485450829E+02  0.00000000000E+00 0. -1.
         21   -1    0    0  502  503 -0.00000000000E+00 -0.00000000000E+00 -0.78915286951E+01  0.78915286951E+01  0.00000000000E+00 0.  1.
          2    1    1    2  501    0  0.26256026451E+01  0.22809858807E+02  0.49306976459E+02  0.54390820692E+02  0.00000000000E+00 0. -1.
         -2    1    1    2    0  503 -0.26256026451E+01 -0.22809858807E+02  0.19286945675E+02  0.29986158832E+02  0.00000000000E+00 0.  1.
</event>
<event>
 4    1  0.1820060E+004  0.2390781E+02  0.7546771E-02  0.1481403E+00
         21   -1    0    0  501  502  0.00000000000E+00  0.00000000000E+00  0.42776117983E+02  0.42776117983E+02  0.00000000000E+00 0. -1.
         21   -1    0    0  502  503 -0.00000000000E+00 -0.00000000000E+00 -0.48480326337E+02  0.48480326337E+02  0.00000000000E+00 0.  1.
          2    1    1    2  501    0  0.13500975671E+02  0.19730861164E+02  0.35982279959E+02  0.43200783527E+02  0.00000000000E+00 0. -1.
         -2    1    1    2    0  503 -0.13500975671E+02 -0.19730861164E+02 -0.41686488313E+02  0.48055660792E+02  0.00000000000E+00 0.  1.
</event>
<event>
 4    1  0.1820060E+004  0.4660684E+02  0.7546771E-02  0.1313595E+00
         21   -1    0    0  503  502  0.00000000000E+00  0.00000000000E+00  0.77700605420E+02  0.77700605420E+02  0.00000000000E+00 0. -1.
         21   -1    0    0  501  503 -0.00000000000E+00 -0.00000000000E+00 -0.55568205506E+02  0.55568205506E+02  0.00000000000E+00 0.  1.
          2    1    1    2  501    0 -0.46117511946E+02 -0.67359131866E+01 -0.35905465543E+02  0.58833662901E+02  0.00000000000E+00 0.  1.
         -2    1    1    2    0  502  0.46117511946E+02  0.67359131866E+01  0.58037865457E+02  0.74435148024E+02  0.00000000000E+00 0. -1.
</event>
<event>
 4    1  0.1820060E+004  0.3615443E+02  0.7546771E-02  0.1372624E+00
         21   -1    0    0  501  502  0.00000000000E+00  0.00000000000E+00  0.35013677346E+02  0.35013677346E+02  0.00000000000E+00 0.  1.
         21   -1    0    0  502  503 -0.00000000000E+00 -0.00000000000E+00 -0.46773487708E+02  0.46773487708E+02  0.00000000000E+00 0. -1.
          2    1    1    2  501    0 -0.25879607824E+02 -0.25246552428E+02  0.12492570267E+02  0.38251886523E+02  0.00000000000E+00 0.  1.
         -2    1    1    2    0  503  0.25879607824E+02  0.25246552428E+02 -0.24252380629E+02  0.43535278531E+02  0.00000000000E+00 0. -1.
</event>
<event>
 4    1  0.1820060E+004  0.2234194E+02  0.7546771E-02  0.1500931E+00
         21   -1    0    0  503  502  0.00000000000E+00  0.00000000000E+00  0.21937337071E+03  0.21937337071E+03  0.00000000000E+00 0. -1.
         21   -1    0    0  501  503 -0.00000000000E+00 -0.00000000000E+00 -0.51485513121E+01  0.51485513121E+01  0.00000000000E+00 0.  1.
          2    1    1    2  501    0 -0.18070625860E+02  0.13138287965E+02  0.23250355685E+02  0.32245017741E+02  0.00000000000E+00 0.  1.
         -2    1    1    2    0  502  0.18070625860E+02 -0.13138287965E+02  0.19097446371E+03  0.19227690428E+03  0.00000000000E+00 0. -1.
</event>
<event>
 4    1  0.1820060E+004  0.2142382E+02  0.7546771E-02  0.1513299E+00
         21   -1    0    0  503  502  0.00000000000E+00  0.00000000000E+00  0.31636450023E+02  0.31636450023E+02  0.00000000000E+00 0. -1.
         21   -1    0    0  501  503 -0.00000000000E+00 -0.00000000000E+00 -0.14749414366E+02  0.14749414366E+02  0.00000000000E+00 0.  1.
          2    1    1    2  501    0  0.21382509095E+02 -0.13298702398E+01  0.54760317899E+01  0.22112602159E+02  0.00000000000E+00 0. -1.
         -2    1    1    2    0  502 -0.21382509095E+02  0.13298702398E+01  0.11411003866E+02  0.24273262230E+02  0.00000000000E+00 0.  1.
</event>
<event>
 4    1  0.1820060E+004  0.2482997E+02  0.7546771E-02  0.1470715E+00
         21   -1    0    0  501  502  0.00000000000E+00  0.00000000000E+00  0.62202996217E+02  0.62202996217E+02  0.00000000000E+00 0. -1.
         21   -1    0    0  502  503 -0.00000000000E+00 -0.00000000000E+00 -0.12140677026E+03  0.12140677026E+03  0.00000000000E+00 0.  1.
          2    1    1    2  501    0 -0.20460023929E+02 -0.14068215415E+02  0.58375788044E+02  0.63437054580E+02  0.00000000000E+00 0. -1.
         -2    1    1    2    0  503  0.20460023929E+02  0.14068215415E+02 -0.11757956209E+03  0.12017271190E+03  0.00000000000E+00 0.  1.
</event>
<event>
 4    1  0.1820060E+004  0.2325943E+02  0.7546771E-02  0.1489266E+00
         21   -1    0    0  501  502  0.00000000000E+00  0.00000000000E+00  0.24118494368E+02  0.24118494368E+02  0.00000000000E+00 0. -1.
         21   -1    0    0  502  503 -0.00000000000E+00 -0.00000000000E+00 -0.36180984990E+02  0.36180984990E+02  0.00000000000E+00 0.  1.
          2    1    1    2  501    0 -0.22792899900E+02  0.46351684445E+01  0.12555145238E+02  0.26431661777E+02  0.00000000000E+00 0. -1.
         -2    1    1    2    0  503  0.22792899900E+02 -0.46351684445E+01 -0.24617635861E+02  0.33867817581E+02  0.00000000000E+00 0.  1.
</event>
<event>
 4    1  0.1820060E+004  0.2081262E+02  0.7546771E-02  0.1521957E+00
         21   -1    0    0  501  502  0.00000000000E+00  0.00000000000E+00  0.12110268084E+03  0.12110268084E+03  0.00000000000E+00 0. -1.
         21   -1    0    0  502  503 -0.00000000000E+00 -0.00000000000E+00 -0.35883219616E+01  0.35883219616E+01  0.00000000000E+00 0.  1.
          2    1    1    2  501    0  0.19524431098E+02  0.72084367652E+01  0.55230560721E+02  0.59021858729E+02  0.00000000000E+00 0.  1.
         -2    1    1    2    0  503 -0.19524431098E+02 -0.72084367652E+01  0.62283798160E+02  0.65669144074E+02  0.00000000000E+00 0. -1.
</event>
<event>
 4    1  0.1820060E+004  0.2770641E+02  0.7546771E-02  0.1440638E+00
         21   -1    0    0  503  502  0.00000000000E+00  0.00000000000E+00  0.59715994331E+02  0.59715994331E+02  0.00000000000E+00 0.  1.
         21   -1    0    0  501  503 -0.00000000000E+00 -0.00000000000E+00 -0.12966200493E+02  0.12966200493E+02  0.00000000000E+00 0. -1.
          2    1    1    2  501    0 -0.19832890343E+02 -0.19346883193E+02  0.26741293548E+02  0.38506391797E+02  0.00000000000E+00 0.  1.
         -2    1    1    2    0  502  0.19832890343E+02  0.19346883193E+02  0.20008500291E+02  0.34175803027E+02  0.00000000000E+00 0. -1.
</event>
<event>
 4    1  0.1820060E+004  0.2113940E+02  0.7546771E-02  0.1517284E+00
         21   -1    0    0  503  502  0.00000000000E+00  0.00000000000E+00  0.17754261206E+02  0.17754261206E+02  0.00000000000E+00 0. -1.
         21   -1    0    0  501  503 -0.00000000000E+00 -0.00000000000E+00 -0.79513522643E+02  0.79513522643E+02  0.00000000000E+00 0.  1.
          2    1    1    2  501    0 -0.17194239214E+02  0.12297653195E+02 -0.71085787402E+02  0.74162411685E+02  0.00000000000E+00 0.  1.
         -2    1    1    2    0  502  0.17194239214E+02 -0.12297653195E+02  0.93265259649E+01  0.23105372164E+02  0.00000000000E+00 0. -1.
</event>
<event>
 4    1  0.1820060E+004  0.2576744E+02  0.7546771E-02  0.1460398E+00
         21   -1    0    0  503  502  0.00000000000E+00  0.00000000000E+00  0.83445609984E+01  0.83445609984E+01  0.00000000000E+00 0. -1.
         21   -1    0    0  501  503 -0.00000000000E+00 -0.00000000000E+00 -0.14322978279E+03  0.14322978279E+03  0.00000000000E+00 0.  1.
          2    1    1    2  501    0 -0.14664786449E+02  0.21187382482E+02 -0.11796896711E+03  0.12075031403E+03  0.00000000000E+00 0.  1.
         -2    1    1    2    0  502  0.14664786449E+02 -0.21187382482E+02 -0.16916254686E+02  0.30824029759E+02  0.00000000000E+00 0. -1.
</event>
<event>
 4    1  0.1820060E+004  0.2007941E+02  0.7546771E-02  0.1532825E+00
         21   -1    0    0  501  502  0.00000000000E+00  0.00000000000E+00  0.17774101850E+03  0.17774101850E+03  0.00000000000E+00 0. -1.
         21   -1    0    0  502  503 -0.00000000000E+00 -0.00000000000E+00 -0.53906457970E+01  0.53906457970E+01  0.00000000000E+00 0.  1.
          2    1    1    2  501    0 -0.10462136226E+02 -0.17138453430E+02  0.15586166014E+03  0.15714973746E+03  0.00000000000E+00 0. -1.
         -2    1    1    2    0  503  0.10462136226E+02  0.17138453430E+02  0.16488712558E+02  0.25981926837E+02  0.00000000000E+00 0.  1.
</event>
<event>
 4    1  0.1820060E+004  0.2187745E+02  0.7546771E-02  0.1507096E+00
         21   -1    0    0  501  502  0.00000000000E+00  0.00000000000E+00  0.35441194469E+02  0.35441194469E+02  0.00000000000E+00 0.  1.
         21   -1    0    0  502  503 -0.00000000000E+00 -0.00000000000E+00 -0.14087767425E+02  0.14087767425E+02  0.00000000000E+00 0. -1.
          2    1    1    2  501    0  0.48713306507E+00  0.21872024796E+02  0.56386131645E+01  0.22592404160E+02  0.00000000000E+00 0. -1.
         -2    1    1    2    0  503 -0.48713306507E+00 -0.21872024796E+02  0.15714813880E+02  0.26936557735E+02  0.00000000000E+00 0.  1.
</event>
<event>
 4    1  0.1820060E+004  0.2689075E+02  0.7546771E-02  0.1448709E+00
         21   -1    0    0  503  502  0.00000000000E+00  0.00000000000E+00  0.35962101610E+03  0.35962101610E+03  0.00000000000E+00 0.  1.
         21   -1    0    0  501  503 -0.00000000000E+00 -0.00000000000E+00 -0.20488451287E+01  0.20488451287E+01  0.00000000000E+00 0. -1.
          2    1    1    2  501    0  0.26442376246E+02  0.48901366626E+01  0.15413208859E+03  0.15646026150E+03  0.00000000000E+00 0.  1.
         -2    1    1    2    0  502 -0.26442376246E+02 -0.48901366626E+01  0.20344008238E+03  0.20520959972E+03  0.00000000000E+00 0. -1.
</event>
<event>
 4    1  0.1820060E+004  0.3227828E+02  0.7546771E-02  0.1400779E+00
         21   -1    0    0  503  502  0.00000000000E+00  0.00000000000E+00  0.13266508936E+03  0.13266508936E+03  0.00000000000E+00 0. -1.
         21   -1    0    0  501  503 -0.00000000000E+00 -0.00000000000E+00 -0.78542448152E+01  0.78542448152E+01  0.00000000000E+00 0.  1.
          2    1    1    2  501    0 -0.10267453046E+02  0.30601742052E+02  0.63082901743E+02  0.70861411932E+02  0.00000000000E+00 0. -1.
         -2    1    1    2    0  502  0.10267453046E+02 -0.30601742052E+02  0.61727942797E+02  0.69657922239E+02  0.00000000000E+00 0.  1.
</event>
<event>
 4    1  0.1820060E+004  0.2178881E+02  0.7546771E-02  0.1508294E+00
         21   -1    0    0  501  502  0.00000000000E+00  0.00000000000E+00  0.65963658058E+02  0.65963658058E+02  0.00000000000E+00 0. -1.
         21   -1    0    0  502  503 -0.00000000000E+00 -0.00000000000E+00 -0.21510719955E+02  0.21510719955E+02  0.00000000000E+00 0.  1.
          2    1    1    2  501    0 -0.13436045795E+02  0.17152990806E+02  0.57904173104E+02  0.61867969767E+02  0.00000000000E+00 0. -1.
         -2    1    1    2    0  503  0.13436045795E+02 -0.17152990806E+02 -0.13451235001E+02  0.25606408246E+02  0.00000000000E+00 0.  1.
</event>
<event>
 4    1  0.1820060E+004  0.2438214E+02  0.7546771E-02  0.1475835E+00
         21   -1    0    0  501  502  0.00000000000E+00  0.00000000000E+00  0.94522438674E+01  0.94522438674E+01  0.00000000000E+00 0. -1.
         21   -1    0    0  502  503 -0.00000000000E+00 -0.00000000000E+00 -0.29760959259E+03  0.29760959259E+03  0.00000000000E+00 0.  1.
          2    1    1    2  501    0  0.23781958779E+02  0.53765435124E+01 -0.77323551423E+01  0.25578860404E+02  0.00000000000E+00 0. -1.
         -2    1    1    2    0  503 -0.23781958779E+02 -0.53765435124E+01 -0.28042499358E+03  0.28148297605E+03  0.00000000000E+00 0.  1.
</event>
<event>
 4    1  0.1820060E+004  0.2173205E+02  0.7546771E-02  0.1509065E+00
         21   -1    0    0  501  502  0.00000000000E+00  0.00000000000E+00  0.21369869941E+02  0.21369869941E+02  0.00000000000E+00 0. -1.
         21   -1    0    0  502  503 -0.00000000000E+00 -0.00000000000E+00 -0.43772897670E+02  0.43772897670E+02  0.00000000000E+00 0.  1.
          2    1    1    2  501    0  0.17776479273E+02  0.12501158685E+02  0.11717096103E+02  0.24689522573E+02  0.00000000000E+00 0. -1.
         -2    1    1    2    0  503 -0.17776479273E+02 -0.12501158685E+02 -0.34120123831E+02  0.40453245037E+02  0.00000000000E+00 0.  1.
</event>
<event>
 4    1  0.1820060E+004  0.2065745E+02  0.7546771E-02  0.1524212E+00
         21   -1    0    0  501  502  0.00000000000E+00  0.00000000000E+00  0.75323692511E+02  0.75323692511E+02  0.00000000000E+00 0. -1.
         21   -1    0    0  502  503 -0.00000000000E+00 -0.00000000000E+00 -0.36907593983E+02  0.36907593983E+02  0.00000000000E+00 0.  1.
          2    1    1    2  501    0  0.13074627952E+02  0.15993261838E+02  0.70837514591E+02  0.73788100624E+02  0.00000000000E+00 0. -1.
         -2    1    1    2    0  503 -0.13074627952E+02 -0.15993261838E+02 -0.32421416063E+02  0.38443185870E+02  0.00000000000E+00 0.  1.
</event>
<event>
 4    1  0.1820060E+004  0.2412817E+02  0.7546771E-02  0.1478798E+00
         21   -1    0    0  503  502  0.00000000000E+00  0.00000000000E+00  0.77284976401E+01  0.77284976401E+01  0.00000000000E+00 0.  1.
         21   -1    0    0  501  503 -0.00000000000E+00 -0.00000000000E+00 -0.13079285955E+03  0.13079285955E+03  0.00000000000E+00 0. -1.
          2    1    1    2  501    0 -0.52728845320E+01 -0.23544966548E+02 -0.10663518424E+03  0.10933083407E+03  0.00000000000E+00 0. -1.
         -2    1    1    2    0  502  0.52728845320E+01  0.23544966548E+02 -0.16429177672E+02  0.29190523120E+02  0.00000000000E+00 0.  1.
</event>
<event>
 4    1  0.1820060E+004  0.4191234E+02  0.7546771E-02  0.1337630E+00
         21   -1    0    0  503  502  0.00000000000E+00  0.00000000000E+00  0.13760309267E+02  0.13760309267E+02  0.00000000000E+00 0. -1.
         21   -1    0    0  501  503 -0.00000000000E+00 -0.00000000000E+00 -0.13345272113E+03  0.13345272113E+03  0.00000000000E+00 0.  1.
          2    1    1    2  501    0  0.39778038052E+02 -0.13204244926E+02 -0.75181242716E+02  0.86074756182E+02  0.00000000000E+00 0.  1.
         -2    1    1    2    0  502 -0.39778038052E+02  0.13204244926E+02 -0.44511169148E+02  0.61138274217E+02  0.00000000000E+00 0. -1.
</event>
<event>
 4    1  0.1820060E+004  0.2794146E+02  0.7546771E-02  0.1438373E+00
         21   -1    0    0  501  502  0.00000000000E+00  0.00000000000E+00  0.35601241393E+01  0.35601241393E+01  0.00000000000E+00 0.  1.
         21   -1    0    0  502  503 -0.00000000000E+00 -0.00000000000E+00 -0.21932416329E+03  0.21932416329E+03  0.00000000000E+00 0. -1.
          2    1    1    2  501    0  0.26285220400E+02 -0.94769423970E+01 -0.10664633431E+03  0.11024593358E+03  0.00000000000E+00 0. -1.
         -2    1    1    2    0  503 -0.26285220400E+02  0.94769423970E+01 -0.10911770484E+03  0.11263835386E+03  0.00000000000E+00 0.  1.
</event>
<event>
 4    1  0.1820060E+004  0.2984524E+02  0.7546771E-02  0.1420946E+00
         21   -1    0    0  503  502  0.00000000000E+00  0.00000000000E+00  0.62565952776E+02  0.62565952776E+02  0.00000000000E+00 0.  1.
         21   -1    0    0  501  503 -0.00000000000E+00 -0.00000000000E+00 -0.23028917651E+02  0.23028917651E+02  0.00000000000E+00 0. -1.
          2    1    1    2  501    0 -0.29371344451E+02  0.52974169907E+01 -0.66755284882E+01  0.30582694162E+02  0.00000000000E+00 0. -1.
         -2    1    1    2    0  502  0.29371344451E+02 -0.52974169907E+01  0.46212563614E+02  0.55012176265E+02  0.00000000000E+00 0.  1.
</event>
<event>
 4    1  0.1820060E+004  0.2132989E+02  0.7546771E-02  0.1514607E+00
         21   -1    0    0  501  502  0.00000000000E+00  0.00000000000E+00  0.49824413491E+00  0.49824413491E+00  0.00000000000E+00 0.  1.
         21   -1    0    0  502  503 -0.00000000000E+00 -0.00000000000E+00 -0.13385276341E+04  0.13385276341E+04  0.00000000000E+00 0. -1.
          2    1    1    2  501    0 -0.18198601041E+02  0.11125434966E+02 -0.29158153233E+03  0.29236065806E+03  0.00000000000E+00 0.  1.
         -2    1    1    2    0  503  0.18198601041E+02 -0.11125434966E+02 -0.10464478576E+04  0.10466652201E+04  0.00000000000E+00 0. -1.
</event>
<event>
 4    1  0.1820060E+004  0.2665736E+02  0.7546771E-02  0.1451081E+00
         21   -1    0    0  503  502  0.00000000000E+00  0.00000000000E+00  0.58489505999E+01  0.58489505999E+01  0.00000000000E+00 0.  1.
         21   -1    0    0  501  503 -0.00000000000E+00 -0.00000000000E+00 -0.15675059261E+03  0.15675059261E+03  0.00000000000E+00 0. -1.
          2    1    1    2  501    0  0.22928997924E+02  0.13596900729E+02 -0.11400775821E+03  0.11708280654E+03  0.00000000000E+00 0. -1.
         -2    1    1    2    0  502 -0.22928997924E+02 -0.13596900729E+02 -0.36893883801E+02  0.45516736671E+02  0.00000000000E+00 0.  1.
</event>
<event>
 4    1  0.1820060E+004  0.2610113E+02  0.7546771E-02  0.1456852E+00
         21   -1    0    0  501  502  0.00000000000E+00  0.00000000000E+00  0.98474255783E+02  0.98474255783E+02  0.00000000000E+00 0. -1.
         21   -1    0    0  502  503 -0.00000000000E+00 -0.00000000000E+00 -0.22179125134E+02  0.22179125134E+02  0.00000000000E+00 0.  1.
          2    1    1    2  501    0  0.24151537375E+02 -0.98980943998E+01  0.88188692668E+02  0.91970182912E+02  0.00000000000E+00 0. -1.
         -2    1    1    2    0  503 -0.24151537375E+02  0.98980943998E+01 -0.11893562019E+02  0.28683198006E+02  0.00000000000E+00 0.  1.
</event>
<event>
 4    1  0.1820060E+004  0.2423878E+02  0.7546771E-02  0.1477502E+00
         21   -1    0    0  501  502  0.00000000000E+00  0.00000000000E+00  0.29692956352E+01  0.29692956352E+01  0.00000000000E+00 0.  1.
         21   -1    0    0  502  503 -0.00000000000E+00 -0.00000000000E+00 -0.30639339901E+03  0.30639339901E+03  0.00000000000E+00 0. -1.
          2    1    1    2  501    0  0.24071326664E+02  0.28441955122E+01 -0.59652060363E+02  0.64388558930E+02  0.00000000000E+00 0.  1.
         -2    1    1    2    0  503 -0.24071326664E+02 -0.28441955122E+01 -0.24377204301E+03  0.24497413571E+03  0.00000000000E+00 0. -1.
</event>
<event>
 4    1  0.1820060E+004  0.2211165E+02  0.7546771E-02  0.1503965E+00
         21   -1    0    0  503  502  0.00000000000E+00  0.00000000000E+00  0.23164684905E+02  0.23164684905E+02  0.00000000000E+00 0. -1.
         21   -1    0    0  501  503 -0.00000000000E+00 -0.00000000000E+00 -0.31737227199E+02  0.31737227199E+02  0.00000000000E+00 0.  1.
          2    1    1    2  501    0  0.18284283513E+02 -0.12434223948E+02 -0.20173746439E+02  0.29931672090E+02  0.00000000000E+00 0.  1.
         -2    1    1    2    0  502 -0.18284283513E+02  0.12434223948E+02  0.11601204144E+02  0.24970240014E+02  0.00000000000E+00 0. -1.
</event>
<event>
 4    1  0.1820060E+004  0.4013252E+02  0.7546771E-02  0.1347711E+00
         21   -1    0    0  501  502  0.00000000000E+00  0.00000000000E+00  0.22874409057E+02  0.22874409057E+02  0.00000000000E+00 0.  1.
         21   -1    0    0  502  503 -0.00000000000E+00 -0.00000000000E+00 -0.98598653185E+02  0.98598653185E+02  0.00000000000E+00 0. -1.
          2    1    1    2  501    0 -0.27922559744E+02 -0.28826199690E+02 -0.53877409853E+01  0.40492553441E+02  0.00000000000E+00 0.  1.
         -2    1    1    2    0  503  0.27922559744E+02  0.28826199690E+02 -0.70336503143E+02  0.80980508801E+02  0.00000000000E+00 0. -1.
</event>
<event>
 4    1  0.1820060E+004  0.2083953E+02  0.7546771E-02  0.1521568E+00
         21   -1    0    0  503  502  0.00000000000E+00  0.00000000000E+00  0.31697391852E+02  0.31697391852E+02  0.00000000000E+00 0.  1.
         21   -1    0    0  501  503 -0.00000000000E+00 -0.00000000000E+00 -0.16887192438E+02  0.16887192438E+02  0.00000000000E+00 0. -1.
          2    1    1    2  501    0 -0.13982389378E+02 -0.15452469246E+02 -0.31466785736E+01  0.21075758695E+02  0.00000000000E+00 0. -1.
         -2    1    1    2    0  502  0.13982389378E+02  0.15452469246E+02  0.17956877988E+02  0.27508825595E+02  0.00000000000E+00 0.  1.
</event>
<event>
 4    1  0.1820060E+004  0.2013901E+02  0.7546771E-02  0.1531921E+00
         21   -1    0    0  503  502  0.00000000000E+00  0.00000000000E+00  0.33396024970E+01  0.33396024970E+01  0.00000000000E+00 0. -1.
         21   -1    0    0  501  503 -0.00000000000E+00 -0.00000000000E+00 -0.13442095921E+03  0.13442095921E+03  0.00000000000E+00 0.  1.
          2    1    1    2  501    0 -0.19397383716E+02  0.54149239809E+01 -0.44140284228E+02  0.48517466839E+02  0.00000000000E+00 0. -1.
         -2    1    1    2    0  502  0.19397383716E+02 -0.54149239809E+01 -0.86941072483E+02  0.89243094866E+02  0.00000000000E+00 0.  1.
</event>
<event>
 4    1  0.1820060E+004  0.2453273E+02  0.7546771E-02  0.1474099E+00
         21   -1    0    0  503  502  0.00000000000E+00  0.00000000000E+00  0.51952152483E+02  0.51952152483E+02  0.00000000000E+00 0. -1.
         21   -1    0    0  501  503 -0.00000000000E+00 -0.00000000000E+00 -0.26677681569E+02  0.26677681569E+02  0.00000000000E+00 0.  1.
          2    1    1    2  501    0 -0.22344708889E+02 -0.10127622157E+02 -0.16934005883E+02  0.29809651141E+02  0.00000000000E+00 0.  1.
         -2    1    1    2    0  502  0.22344708889E+02  0.10127622157E+02  0.42208476797E+02  0.48820182911E+02  0.00000000000E+00 0. -1.
</event>
<event>
 4    1  0.1820060E+004  0.3336086E+02  0.7546771E-02  0.1392468E+00
         21   -1    0    0  501  502  0.00000000000E+00  0.00000000000E+00  0.14489420561E+02  0.14489420561E+02  0.00000000000E+00 0. -1.
         21   -1    0    0  502  503 -0.00000000000E+00 -0.00000000000E+00 -0.82726857061E+02  0.82726857061E+02  0.00000000000E+00 0.  1.
          2    1    1    2  501    0 -0.30690386461E+02 -0.13078502215E+02 -0.21120190545E+02  0.39484294219E+02  0.00000000000E+00 0. -1.
         -2    1    1    2    0  503  0.30690386461E+02  0.13078502215E+02 -0.47117245955E+02  0.57731983403E+02  0.00000000000E+00 0.  1.
</event>
<event>
 4    1  0.1820060E+004  0.2469057E+02  0.7546771E-02  0.1472295E+00
         21   -1    0    0  503  502  0.00000000000E+00  0.00000000000E+00  0.18500454334E+02  0.18500454334E+02  0.00000000000E+00 0. -1.
         21   -1    0    0  501  503 -0.00000000000E+00 -0.00000000000E+00 -0.52430655792E+02  0.52430655792E+02  0.00000000000E+00 0.  1.
          2    1    1    2  501    0 -0.24580862202E+02 -0.23249463668E+01 -0.38582094661E+02  0.45806137041E+02  0.00000000000E+00 0.  1.
         -2    1    1    2    0  502  0.24580862202E+02  0.23249463668E+01  0.46518932034E+01  0.25124973086E+02  0.00000000000E+00 0. -1.
</event>
<event>
 4    1  0.1820060E+004  0.2605014E+02  0.7546771E-02  0.1457390E+00
         21   -1    0    0  503  502  0.00000000000E+00  0.00000000000E+00  0.62997757760E+02  0.62997757760E+02  0.00000000000E+00 0. -1.
         21   -1    0    0  501  503 -0.00000000000E+00 -0.00000000000E+00 -0.10784791531E+02  0.10784791531E+02  0.00000000000E+00 0.  1.
          2    1    1    2  501    0  0.22533640406E+01 -0.25952493640E+02  0.27378784897E+02  0.37791631852E+02  0.00000000000E+00 0. -1.
         -2    1    1    2    0  502 -0.22533640406E+01  0.25952493640E+02  0.24834181332E+02  0.35990917439E+02  0.00000000000E+00 0.  1.
</event>
<event>
 4    1  0.1820060E+004  0.2115069E+02  0.7546771E-02  0.1517124E+00
         21   -1    0    0  501  502  0.00000000000E+00  0.00000000000E+00  0.20739293088E+03  0.20739293088E+03  0.00000000000E+00 0.  1.
         21   -1    0    0  502  503 -0.00000000000E+00 -0.00000000000E+00 -0.30545766849E+01  0.30545766849E+01  0.00000000000E+00 0. -1.
          2    1    1    2  501    0 -0.11436182093E+02  0.17792280859E+02  0.15920769889E+03  0.16060648463E+03  0.00000000000E+00 0.  1.
         -2    1    1    2    0  503  0.11436182093E+02 -0.17792280859E+02  0.45130655306E+02  0.49841022937E+02  0.00000000000E+00 0. -1.
</event>
<event>
 4    1  0.1820060E+004  0.2037481E+02  0.7546771E-02  0.1528381E+00
         21   -1    0    0  503  502  0.00000000000E+00  0.00000000000E+00  0.41430750868E+02  0.41430750868E+02  0.00000000000E+00 0.  1.
         21   -1    0    0  501  503 -0.00000000000E+00 -0.00000000000E+00 -0.10775392894E+02  0.10775392894E+02  0.00000000000E+00 0. -1.
          2    1    1    2  501    0 -0.76170773664E+01  0.18897429940E+02  0.84159757448E+01  0.22044531605E+02  0.00000000000E+00 0.  1.
         -2    1    1    2    0  502  0.76170773664E+01 -0.18897429940E+02  0.22239382229E+02  0.30161612157E+02  0.00000000000E+00 0. -1.
</event>
<event>
 4    1  0.1820060E+004  0.3487979E+02  0.7546771E-02  0.1381410E+00
         21   -1    0    0  503  502  0.00000000000E+00  0.00000000000E+00  0.75310391334E+02  0.75310391334E+02  0.00000000000E+00 0. -1.
         21   -1    0    0  501  503 -0.00000000000E+00 -0.00000000000E+00 -0.16154590673E+02  0.16154590673E+02  0.00000000000E+00 0.  1.
          2    1    1    2  501    0 -0.48563878294E+00 -0.34876410760E+02  0.29700004764E+02  0.45811463145E+02  0.00000000000E+00 0.  1.
         -2    1    1    2    0  502  0.48563878294E+00  0.34876410760E+02  0.29455795897E+02  0.45653518862E+02  0.00000000000E+00 0. -1.
</event>
<event>
 4    1  0.1820060E+004  0.4770455E+02  0.7546771E-02  0.1308444E+00
         21   -1    0    0  501  502  0.00000000000E+00  0.00000000000E+00  0.68005328943E+01  0.68005328943E+01  0.00000000000E+00 0.  1.
         21   -1    0    0  502  503 -0.00000000000E+00 -0.00000000000E+00 -0.37267238045E+03  0.37267238045E+03  0.00000000000E+00 0. -1.
          2    1    1    2  501    0 -0.19589776410E+02  0.43496722037E+02 -0.12232245922E+03  0.13129549953E+03  0.00000000000E+00 0.  1.
         -2    1    1    2    0  503  0.19589776410E+02 -0.43496722037E+02 -0.24354938833E+03  0.24817741381E+03  0.00000000000E+00 0. -1.
</event>
<event>
 4    1  0.1820060E+004  0.2061948E+02  0.7546771E-02  0.1524768E+00
         21   -1    0    0  501  502  0.00000000000E+00  0.00000000000E+00  0.21580804433E+02  0.21580804433E+02  0.00000000000E+00 0. -1.
         21   -1    0    0  502  503 -0.00000000000E+00 -0.00000000000E+00 -0.25206380754E+02  0.25206380754E+02  0.00000000000E+00 0.  1.
          2    1    1    2  501    0  0.18084055726E+02 -0.99060447322E+01  0.91201405389E+01  0.22546391223E+02  0.00000000000E+00 0. -1.
         -2    1    1    2    0  503 -0.18084055726E+02  0.99060447322E+01 -0.12745716859E+02  0.24240793964E+02  0.00000000000E+00 0.  1.
</event>
<event>
 4    1  0.1820060E+004  0.3542437E+02  0.7546771E-02  0.1377604E+00
         21   -1    0    0  501  502  0.00000000000E+00  0.00000000000E+00  0.50126238363E+03  0.50126238363E+03  0.00000000000E+00 0.  1.
         21   -1    0    0  502  503 -0.00000000000E+00 -0.00000000000E+00 -0.71223620253E+01  0.71223620253E+01  0.00000000000E+00 0. -1.
          2    1    1    2  501    0  0.34010878190E+02 -0.99068867540E+01  0.45177114602E+03  0.45315786942E+03  0.00000000000E+00 0.  1.
         -2    1    1    2    0  503 -0.34010878190E+02  0.99068867540E+01  0.42368875581E+02  0.55226876233E+02  0.00000000000E+00 0. -1.
</event>
<event>
 4    1  0.1820060E+004  0.2060739E+02  0.7546771E-02  0.1524945E+00
         21   -1    0    0  503  502  0.00000000000E+00  0.00000000000E+00  0.13003226545E+03  0.13003226545E+03  0.00000000000E+00 0. -1.
         21   -1    0    0  501  503 -0.00000000000E+00 -0.00000000000E+00 -0.21775403816E+02  0.21775403816E+02  0.00000000000E+00 0.  1.
          2    1    1    2  501    0  0.16402278395E+02  0.12475172859E+02 -0.15852335081E+02  0.25999253873E+02  0.00000000000E+00 0.  1.
         -2    1    1    2    0  502 -0.16402278395E+02 -0.12475172859E+02  0.12410919672E+03  0.12580841540E+03  0.00000000000E+00 0. -1.
</event>
<event>
 4    1  0.1820060E+004  0.2227251E+02  0.7546771E-02  0.1501841E+00
         21   -1    0    0  501  502  0.00000000000E+00  0.00000000000E+00  0.17505004111E+02  0.17505004111E+02  0.00000000000E+00 0.  1.
         21   -1    0    0  502  503 -0.00000000000E+00 -0.00000000000E+00 -0.41745932196E+02  0.41745932196E+02  0.00000000000E+00 0. -1.
          2    1    1    2  501    0 -0.20202384163E+02 -0.93770129602E+01  0.46688031847E+01  0.22756590718E+02  0.00000000000E+00 0.  1.
         -2    1    1    2    0  503  0.20202384163E+02  0.93770129602E+01 -0.28909731269E+02  0.36494345589E+02  0.00000000000E+00 0. -1.
</event>
<event>
 4    1  0.1820060E+004  0.2009801E+02  0.7546771E-02  0.1532543E+00
         21   -1    0    0  501  502  0.00000000000E+00  0.00000000000E+00  0.54328309457E+03  0.54328309457E+03  0.00000000000E+00 0.  1.
         21   -1    0    0  502  503 -0.00000000000E+00 -0.00000000000E+00 -0.26833451125E+01  0.26833451125E+01  0.00000000000E+00 0. -1.
          2    1    1    2  501    0 -0.19317588967E+02 -0.55462327028E+01  0.50240323485E+03  0.50280507190E+03  0.00000000000E+00 0.  1.
         -2    1    1    2    0  503  0.19317588967E+02  0.55462327028E+01  0.38196514609E+02  0.43161367784E+02  0.00000000000E+00 0. -1.
</event>
<event>
 4    1  0.1820060E+004  0.2717495E+02  0.7546771E-02  0.1445859E+00
         21   -1    0    0  503  502  0.00000000000E+00  0.00000000000E+00  0.61081403445E+03  0.61081403445E+03  0.00000000000E+00 0. -1.
         21   -1    0    0  501  503 -0.00000000000E+00 -0.00000000000E+00 -0.14532657657E+01  0.14532657657E+01  0.00000000000E+00 0.  1.
          2    1    1    2  501    0  0.18192804045E+02  0.20186623705E+02  0.43018636588E+03  0.43104383452E+03  0.00000000000E+00 0. -1.
         -2    1    1    2    0  502 -0.18192804045E+02 -0.20186623705E+02  0.17917440281E+03  0.18122346570E+03  0.00000000000E+00 0.  1.
</event>
<event>
 4    1  0.1820060E+004  0.2198979E+02  0.7546771E-02  0.1505588E+00
         21   -1    0    0  501  502  0.00000000000E+00  0.00000000000E+00  0.49981342585E+01  0.49981342585E+01  0.00000000000E+00 0.  1.
         21   -1    0    0  502  503 -0.00000000000E+00 -0.00000000000E+00 -0.10458833047E+03  0.10458833047E+03  0.00000000000E+00 0. -1.
          2    1    1    2  501    0 -0.10657707468E+02 -0.19234455809E+02 -0.34791361029E+02  0.41158107597E+02  0.00000000000E+00 0.  1.
         -2    1    1    2    0  503  0.10657707468E+02  0.19234455809E+02 -0.64798835187E+02  0.68428357136E+02  0.00000000000E+00 0. -1.
</event>
<event>
 4    1  0.1820060E+004  0.2127428E+02  0.7546771E-02  0.1515385E+00
         21   -1    0    0  503  502  0.00000000000E+00  0.00000000000E+00  0.10608944828E+03  0.10608944828E+03  0.00000000000E+00 0.  1.
         21   -1    0    0  501  503 -0.00000000000E+00 -0.00000000000E+00 -0.46104268976E+01  0.46104268976E+01  0.00000000000E+00 0. -1.
          2    1    1    2  501    0  0.12981918976E+02 -0.16854221323E+02  0.35614642245E+02  0.41484909774E+02  0.00000000000E+00 0. -1.
         -2    1    1    2    0  502 -0.12981918976E+02  0.16854221323E+02  0.65864379137E+02  0.69214965403E+02  0.00000000000E+00 0.  1.
</event>
<event>
 4    1  0.1820060E+004  0.2009982E+02  0.7546771E-02  0.1532515E+00
         21   -1    0    0  501  502  0.00000000000E+00  0.00000000000E+00  0.10700431727E+02  0.10700431727E+02  0.00000000000E+00 0. -1.
         21   -1    0    0  502  503 -0.00000000000E+00 -0.00000000000E+00 -0.44757765969E+02  0.44757765969E+02  0.00000000000E+00 0.  1.
          2    1    1    2  501    0  0.99926848048E+01 -0.17439870806E+02 -0.60610305470E+01  0.20993783238E+02  0.00000000000E+00 0. -1.
         -2    1    1    2    0  503 -0.99926848048E+01  0.17439870806E+02 -0.27996303695E+02  0.34464414458E+02  0.00000000000E+00 0.  1.
</event>
<event>
 4    1  0.1820060E+004  0.2172205E+02  0.7546771E-02  0.1509201E+00
         21   -1    0    0  501  502  0.00000000000E+00  0.00000000000E+00  0.77282589817E+02  0.77282589817E+02  0.00000000000E+00 0. -1.
         21   -1    0    0  502  503 -0.00000000000E+00 -0.00000000000E+00 -0.37690552197E+02  0.37690552197E+02  0.00000000000E+00 0.  1.
          2    1    1    2  501    0 -0.11245917733E+02  0.18584310574E+02  0.72420895944E+02  0.75608421717E+02  0.00000000000E+00 0. -1.
         -2    1    1    2    0  503  0.11245917733E+02 -0.18584310574E+02 -0.32828858324E+02  0.39364720297E+02  0.00000000000E+00 0.  1.
</event>
<event>
 4    1  0.1820060E+004  0.2385574E+02  0.7546771E-02  0.1482023E+00
         21   -1    0    0  501  502  0.00000000000E+00  0.00000000000E+00  0.85619831812E+02  0.85619831812E+02  0.00000000000E+00 0. -1.
         21   -1    0    0  502  503 -0.00000000000E+00 -0.00000000000E+00 -0.13238993617E+02  0.13238993617E+02  0.00000000000E+00 0.  1.
          2    1    1    2  501    0  0.10974455964E+02  0.21181535677E+02  0.71070189595E+02  0.74967112699E+02  0.00000000000E+00 0. -1.
         -2    1    1    2    0  503 -0.10974455964E+02 -0.21181535677E+02  0.13106485998E+01  0.23891712729E+02  0.00000000000E+00 0.  1.
</event>
<event>
 4    1  0.1820060E+004  0.9556960E+02  0.7546771E-02  0.1171715E+00
         21   -1    0    0  501  502  0.00000000000E+00  0.00000000000E+00  0.18502212991E+04  0.18502212991E+04  0.00000000000E+00 0.  1.
         21   -1    0    0  502  503 -0.00000000000E+00 -0.00000000000E+00 -0.18068551616E+02  0.18068551616E+02  0.00000000000E+00 0. -1.
          2    1    1    2  501    0  0.50822216580E+02 -0.80936089547E+02  0.17124548194E+04  0.17151195459E+04  0.00000000000E+00 0.  1.
         -2    1    1    2    0  503 -0.50822216580E+02  0.80936089547E+02  0.11969792813E+03  0.15317030485E+03  0.00000000000E+00 0. -1.
</event>
<event>
 4    1  0.1820060E+004  0.4049394E+02  0.7546771E-02  0.1345615E+00
         21   -1    0    0  503  502  0.00000000000E+00  0.00000000000E+00  0.10824580340E+02  0.10824580340E+02  0.00000000000E+00 0.  1.
         21   -1    0    0  501  503 -0.00000000000E+00 -0.00000000000E+00 -0.21821106248E+03  0.21821106248E+03  0.00000000000E+00 0. -1.
          2    1    1    2  501    0  0.11671911785E+02 -0.38775325241E+02 -0.16701939319E+03  0.17185818885E+03  0.00000000000E+00 0. -1.
         -2    1    1    2    0  502 -0.11671911785E+02  0.38775325241E+02 -0.40367088944E+02  0.57177453967E+02  0.00000000000E+00 0.  1.
</event>
<event>
 4    1  0.1820060E+004  0.2033181E+02  0.7546771E-02  0.1529022E+00
         21   -1    0    0  503  502  0.00000000000E+00  0.00000000000E+00  0.58149636320E+02  0.58149636320E+02  0.00000000000E+00 0. -1.
         21   -1    0    0  501  503 -0.00000000000E+00 -0.00000000000E+00 -0.89261046317E+01  0.89261046317E+01  0.00000000000E+00 0.  1.
          2    1    1    2  501    0 -0.16008721570E+02 -0.12534081889E+02  0.94795882466E+01  0.22433122128E+02  0.00000000000E+00 0.  1.
         -2    1    1    2    0  502  0.16008721570E+02  0.12534081889E+02  0.39743943442E+02  0.44642618823E+02  0.00000000000E+00 0. -1.
</event>
<event>
 4    1  0.1820060E+004  0.3785612E+02  0.7546771E-02  0.1361528E+00
         21   -1    0    0  501  502  0.00000000000E+00  0.00000000000E+00  0.47198383907E+01  0.47198383907E+01  0.00000000000E+00 0. -1.
         21   -1    0    0  502  503 -0.00000000000E+00 -0.00000000000E+00 -0.30787749500E+03  0.30787749500E+03  0.00000000000E+00 0.  1.
          2    1    1    2  501    0 -0.16844487566E+02 -0.33902055343E+02 -0.13322124339E+03  0.13849543606E+03  0.00000000000E+00 0. -1.
         -2    1    1    2    0  503  0.16844487566E+02  0.33902055343E+02 -0.16993641321E+03  0.17410189733E+03  0.00000000000E+00 0.  1.
</event>
<event>
 4    1  0.1820060E+004  0.2154821E+02  0.7546771E-02  0.1511580E+00
         21   -1    0    0  503  502  0.00000000000E+00  0.00000000000E+00  0.13104763374E+03  0.13104763374E+03  0.00000000000E+00 0.  1.
         21   -1    0    0  501  503 -0.00000000000E+00 -0.00000000000E+00 -0.35471655087E+01  0.35471655087E+01  0.00000000000E+00 0. -1.
          2    1    1    2  501    0 -0.14208584529E+02 -0.16200041480E+02  0.61494144999E+02  0.65160226269E+02  0.00000000000E+00 0.  1.
         -2    1    1    2    0  502  0.14208584529E+02  0.16200041480E+02  0.66006323237E+02  0.69434572985E+02  0.00000000000E+00 0. -1.
</event>
<event>
 4    1  0.1820060E+004  0.2352838E+02  0.7546771E-02  0.1485968E+00
         21   -1    0    0  503  502  0.00000000000E+00  0.00000000000E+00  0.42175225782E+02  0.42175225782E+02  0.00000000000E+00 0.  1.
         21   -1    0    0  501  503 -0.00000000000E+00 -0.00000000000E+00 -0.13583034306E+02  0.13583034306E+02  0.00000000000E+00 0. -1.
          2    1    1    2  501    0 -0.61076108313E+01 -0.22721831718E+02  0.19411021336E+02  0.30502004787E+02  0.00000000000E+00 0.  1.
         -2    1    1    2    0  502  0.61076108313E+01  0.22721831718E+02  0.91811701394E+01  0.25256255301E+02  0.00000000000E+00 0. -1.
</event>
<event>
 4    1  0.1820060E+004  0.2363968E+02  0.7546771E-02  0.1484618E+00
         21   -1    0    0  501  502  0.00000000000E+00  0.00000000000E+00  0.29927243461E+03  0.29927243461E+03  0.00000000000E+00 0. -1.
         21   -1    0    0  502  503 -0.00000000000E+00 -0.00000000000E+00 -0.18379530140E+02  0.18379530140E+02  0.00000000000E+00 0.  1.
          2    1    1    2  501    0  0.19539198707E+02  0.13306165698E+02  0.29098824591E+03  0.29194690200E+03  0.00000000000E+00 0. -1.
         -2    1    1    2    0  503 -0.19539198707E+02 -0.13306165698E+02 -0.10095341444E+02  0.25705062742E+02  0.00000000000E+00 0.  1.
</event>
<event>
 4    1  0.1820060E+004  0.2059680E+02  0.7546771E-02  0.1525100E+00
         21   -1    0    0  503  502  0.00000000000E+00  0.00000000000E+00  0.23332071938E+02  0.23332071938E+02  0.00000000000E+00 0.  1.
         21   -1    0    0  501  503 -0.00000000000E+00 -0.00000000000E+00 -0.74950950502E+02  0.74950950502E+02  0.00000000000E+00 0. -1.
          2    1    1    2  501    0 -0.20507462611E+02 -0.19163361890E+01 -0.68577012579E+02  0.71603317112E+02  0.00000000000E+00 0. -1.
         -2    1    1    2    0  502  0.20507462611E+02  0.19163361890E+01  0.16958134015E+02  0.26679705328E+02  0.00000000000E+00 0.  1.
</event>
<event>
 4    1  0.1820060E+004  0.2793359E+02  0.7546771E-02  0.1438449E+00
         21   -1    0    0  503  502  0.00000000000E+00  0.00000000000E+00  0.27448747993E+02  0.27448747993E+02  0.00000000000E+00 0.  1.
         21   -1    0    0  501  503 -0.00000000000E+00 -0.00000000000E+00 -0.33114880154E+02  0.33114880154E+02  0.00000000000E+00 0. -1.
          2    1    1    2  501    0 -0.26941085159E+02 -0.73799338773E+01 -0.14226605408E+02  0.31347755821E+02  0.00000000000E+00 0. -1.
         -2    1    1    2    0  502  0.26941085159E+02  0.73799338773E+01  0.85604732470E+01  0.29215872326E+02  0.00000000000E+00 0.  1.
</event>
<event>
 4    1  0.1820060E+004  0.3929021E+02  0.7546771E-02  0.1352696E+00
         21   -1    0    0  501  502  0.00000000000E+00  0.00000000000E+00  0.35466497781E+02  0.35466497781E+02  0.00000000000E+00 0. -1.
         21   -1    0    0  502  503 -0.00000000000E+00 -0.00000000000E+00 -0.53947117490E+02  0.53947117490E+02  0.00000000000E+00 0.  1.
          2    1    1    2  501    0  0.13538432828E+02  0.36884028394E+02  0.10408814376E+02  0.40645591775E+02  0.00000000000E+00 0. -1.
         -2    1    1    2    0  503 -0.13538432828E+02 -0.36884028394E+02 -0.28889434085E+02  0.48768023497E+02  0.00000000000E+00 0.  1.
</event>
<event>
 4    1  0.1820060E+004  0.2112505E+02  0.7546771E-02  0.1517487E+00
         21   -1    0    0  503  502  0.00000000000E+00  0.00000000000E+00  0.32853235149E+02  0.32853235149E+02  0.00000000000E+00 0. -1.
         21   -1    0    0  501  503 -0.00000000000E+00 -0.00000000000E+00 -0.17241366929E+02  0.17241366929E+02  0.00000000000E+00 0.  1.
          2    1    1    2  501    0  0.21017491000E+02 -0.21289970331E+01 -0.37306929561E+01  0.21451937587E+02  0.00000000000E+00 0.  1.
         -2    1    1    2    0  502 -0.21017491000E+02  0.21289970331E+01  0.19342561177E+02  0.28642664491E+02  0.00000000000E+00 0. -1.
</event>
<event>
 4    1  0.1820060E+004  0.2387977E+02  0.7546771E-02  0.1481737E+00
         21   -1    0    0  503  502  0.00000000000E+00  0.00000000000E+00  0.14477418432E+03  0.14477418432E+03  0.00000000000E+00 0. -1.
         21   -1    0    0  501  503 -0.00000000000E+00 -0.00000000000E+00 -0.51705720982E+01  0.51705720982E+01  0.00000000000E+00 0.  1.
          2    1    1    2  501    0 -0.20070548423E+02  0.12938955900E+02  0.33209589112E+02  0.40903793257E+02  0.00000000000E+00 0.  1.
         -2    1    1    2    0  502  0.20070548423E+02 -0.12938955900E+02  0.10639402311E+03  0.10904096316E+03  0.00000000000E+00 0. -1.
</event>
<event>
 4    1  0.1820060E+004  0.6579809E+02  0.7546771E-02  0.1241311E+00
         21   -1    0    0  501  502  0.00000000000E+00  0.00000000000E+00  0.14694931136E+02  0.14694931136E+02  0.00000000000E+00 0. -1.
         21   -1    0    0  502  503 -0.00000000000E+00 -0.00000000000E+00 -0.39896979302E+03  0.39896979302E+03  0.00000000000E+00 0.  1.
          2    1    1    2  501    0 -0.35954393291E+02 -0.55105996773E+02 -0.86358611136E+02  0.10856886752E+03  0.00000000000E+00 0. -1.
         -2    1    1    2    0  503  0.35954393291E+02  0.55105996773E+02 -0.29791625075E+03  0.30509585664E+03  0.00000000000E+00 0.  1.
</event>
<event>
 4    1  0.1820060E+004  0.2660473E+02  0.7546771E-02  0.1451620E+00
         21   -1    0    0  501  502  0.00000000000E+00  0.00000000000E+00  0.27602527904E+02  0.27602527904E+02  0.00000000000E+00 0.  1.
         21   -1    0    0  502  503 -0.00000000000E+00 -0.00000000000E+00 -0.13114042074E+03  0.13114042074E+03  0.00000000000E+00 0. -1.
          2    1    1    2  501    0  0.26603530583E+02  0.25242421296E+00  0.19420741139E+02  0.32938985168E+02  0.00000000000E+00 0.  1.
         -2    1    1    2    0  503 -0.26603530583E+02 -0.25242421296E+00 -0.12295863397E+03  0.12580396347E+03  0.00000000000E+00 0. -1.
</event>
<event>
 4    1  0.1820060E+004  0.2603086E+02  0.7546771E-02  0.1457594E+00
         21   -1    0    0  501  502  0.00000000000E+00  0.00000000000E+00  0.35349428640E+03  0.35349428640E+03  0.00000000000E+00 0.  1.
         21   -1    0    0  502  503 -0.00000000000E+00 -0.00000000000E+00 -0.26795507849E+01  0.26795507849E+01  0.00000000000E+00 0. -1.
          2    1    1    2  501    0  0.19343789825E+02  0.17419059007E+02  0.27041747873E+03  0.27166747804E+03  0.00000000000E+00 0.  1.
         -2    1    1    2    0  503 -0.19343789825E+02 -0.17419059007E+02  0.80397256890E+02  0.84506359151E+02  0.00000000000E+00 0. -1.
</event>
<event>
 4    1  0.1820060E+004  0.2276898E+02  0.7546771E-02  0.1495420E+00
         21   -1    0    0  501  502  0.00000000000E+00  0.00000000000E+00  0.55847790853E+02  0.55847790853E+02  0.00000000000E+00 0.  1.
         21   -1    0    0  502  503 -0.00000000000E+00 -0.00000000000E+00 -0.14423753963E+02  0.14423753963E+02  0.00000000000E+00 0. -1.
          2    1    1    2  501    0  0.12315975668E+02  0.19150537323E+02  0.41688389014E+02  0.47501032778E+02  0.00000000000E+00 0.  1.
         -2    1    1    2    0  503 -0.12315975668E+02 -0.19150537323E+02 -0.26435212273E+00  0.22770512038E+02  0.00000000000E+00 0. -1.
</event>
<event>
 4    1  0.1820060E+004  0.2091276E+02  0.7546771E-02  0.1520514E+00
         21   -1    0    0  503  502  0.00000000000E+00  0.00000000000E+00  0.33059848039E+01  0.33059848039E+01  0.00000000000E+00 0.  1.
         21   -1    0    0  501  503 -0.00000000000E+00 -0.00000000000E+00 -0.15544171590E+03  0.15544171590E+03  0.00000000000E+00 0. -1.
          2    1    1    2  501    0  0.55285370201E+01  0.20168758504E+02 -0.10670160182E+03  0.10873166683E+03  0.00000000000E+00 0.  1.
         -2    1    1    2    0  502 -0.55285370201E+01 -0.20168758504E+02 -0.45434129275E+02  0.50016033870E+02  0.00000000000E+00 0. -1.
</event>
<event>
 4    1  0.1820060E+004  0.3244451E+02  0.7546771E-02  0.1399478E+00
         21   -1    0    0  501  502  0.00000000000E+00  0.00000000000E+00  0.10044633547E+02  0.10044633547E+02  0.00000000000E+00 0. -1.
         21   -1    0    0  502  503 -0.00000000000E+00 -0.00000000000E+00 -0.13441006040E+03  0.13441006040E+03  0.00000000000E+00 0.  1.
          2    1    1    2  501    0 -0.31911570257E+02 -0.58564401621E+01 -0.28280477914E+02  0.43039884278E+02  0.00000000000E+00 0. -1.
         -2    1    1    2    0  503  0.31911570257E+02  0.58564401621E+01 -0.96084948939E+02  0.10141480967E+03  0.00000000000E+00 0.  1.
</event>
<event>
 4    1  0.1820060E+004  0.2207274E+02  0.7546771E-02  0.1504482E+00
         21   -1    0    0  503  502  0.00000000000E+00  0.00000000000E+00  0.80802628411E+01  0.80802628411E+01  0.00000000000E+00 0.  1.
         21   -1    0    0  501  503 -0.00000000000E+00 -0.00000000000E+00 -0.21091491464E+03  0.21091491464E+03  0.00000000000E+00 0. -1.
          2    1    1    2  501    0  0.12506701155E+02  0.18187586144E+02 -0.19394911594E+03  0.19520108975E+03  0.00000000000E+00 0. -1.
         -2    1    1    2    0  502 -0.12506701155E+02 -0.18187586144E+02 -0.88855358523E+01  0.23794087730E+02  0.00000000000E+00 0.  1.
</event>
<event>
 4    1  0.1820060E+004  0.4324414E+02  0.7546771E-02  0.1330457E+00
         21   -1    0    0  503  502  0.00000000000E+00  0.00000000000E+00  0.51456954458E+02  0.51456954458E+02  0.00000000000E+00 0. -1.
         21   -1    0    0  501  503 -0.00000000000E+00 -0.00000000000E+00 -0.36362608288E+02  0.36362608288E+02  0.00000000000E+00 0.  1.
          2    1    1    2  501    0 -0.30364655281E+02  0.30790318035E+02  0.85888841754E+01  0.44088829723E+02  0.00000000000E+00 0. -1.
         -2    1    1    2    0  502  0.30364655281E+02 -0.30790318035E+02  0.65054619944E+01  0.43730733023E+02  0.00000000000E+00 0.  1.
</event>
<event>
 4    1  0.1820060E+004  0.2067979E+02  0.7546771E-02  0.1523886E+00
         21   -1    0    0  501  502  0.00000000000E+00  0.00000000000E+00  0.21311264741E+03  0.21311264741E+03  0.00000000000E+00 0. -1.
         21   -1    0    0  502  503 -0.00000000000E+00 -0.00000000000E+00 -0.34051915120E+01  0.34051915120E+01  0.00000000000E+00 0.  1.
          2    1    1    2  501    0  0.20449305519E+02  0.30788701094E+01  0.17423185188E+03  0.17545481398E+03  0.00000000000E+00 0. -1.
         -2    1    1    2    0  503 -0.20449305519E+02 -0.30788701094E+01  0.35475604015E+02  0.41063024944E+02  0.00000000000E+00 0.  1.
</event>
<event>
 4    1  0.1820060E+004  0.2094887E+02  0.7546771E-02  0.1519996E+00
         21   -1    0    0  503  502  0.00000000000E+00  0.00000000000E+00  0.36830598384E+01  0.36830598384E+01  0.00000000000E+00 0.  1.
         21   -1    0    0  501  503 -0.00000000000E+00 -0.00000000000E+00 -0.14197706291E+03  0.14197706291E+03  0.00000000000E+00 0. -1.
          2    1    1    2  501    0  0.36588574927E+01  0.20626876512E+02 -0.39947306636E+02  0.45107012540E+02  0.00000000000E+00 0.  1.
         -2    1    1    2    0  502 -0.36588574927E+01 -0.20626876512E+02 -0.98346696438E+02  0.10055311021E+03  0.00000000000E+00 0. -1.
</event>
<event>
 4    1  0.1820060E+004  0.2092391E+02  0.7546771E-02  0.1520354E+00
         21   -1    0    0  503  502  0.00000000000E+00  0.00000000000E+00  0.18796731586E+03  0.18796731586E+03  0.00000000000E+00 0. -1.
         21   -1    0    0  501  503 -0.00000000000E+00 -0.00000000000E+00 -0.32776811058E+01  0.32776811058E+01  0.00000000000E+00 0.  1.
          2    1    1    2  501    0 -0.10273946670E+02 -0.18227889389E+02  0.40905476840E+02  0.45946359674E+02  0.00000000000E+00 0.  1.
         -2    1    1    2    0  502  0.10273946670E+02  0.18227889389E+02  0.14378415792E+03  0.14529863730E+03  0.00000000000E+00 0. -1.
</event>
<event>
 4    1  0.1820060E+004  0.2216711E+02  0.7546771E-02  0.1503230E+00
         21   -1    0    0  503  502  0.00000000000E+00  0.00000000000E+00  0.24188149498E+02  0.24188149498E+02  0.00000000000E+00 0.  1.
         21   -1    0    0  501  503 -0.00000000000E+00 -0.00000000000E+00 -0.11198841486E+03  0.11198841486E+03  0.00000000000E+00 0. -1.
          2    1    1    2  501    0  0.17256087750E+02  0.13914318984E+02 -0.10550395680E+03  0.10780754026E+03  0.00000000000E+00 0. -1.
         -2    1    1    2    0  502 -0.17256087750E+02 -0.13914318984E+02  0.17703691441E+02  0.28369024091E+02  0.00000000000E+00 0.  1.
</event>
<event>
 4    1  0.1820060E+004  0.2049863E+02  0.7546771E-02  0.1526545E+00
         21   -1    0    0  501  502  0.00000000000E+00  0.00000000000E+00  0.49133561051E+02  0.49133561051E+02  0.00000000000E+00 0.  1.
         21   -1    0    0  502  503 -0.00000000000E+00 -0.00000000000E+00 -0.85790880773E+01  0.85790880773E+01  0.00000000000E+00 0. -1.
          2    1    1    2  501    0 -0.15829793623E+02  0.13023493864E+02  0.21896548273E+02  0.29994209189E+02  0.00000000000E+00 0. -1.
         -2    1    1    2    0  503  0.15829793623E+02 -0.13023493864E+02  0.18657924700E+02  0.27718439940E+02  0.00000000000E+00 0.  1.
</event>
<event>
 4    1  0.1820060E+004  0.2377698E+02  0.7546771E-02  0.1482965E+00
         21   -1    0    0  503  502  0.00000000000E+00  0.00000000000E+00  0.11472413662E+03  0.11472413662E+03  0.00000000000E+00 0.  1.
         21   -1    0    0  501  503 -0.00000000000E+00 -0.00000000000E+00 -0.72784506700E+01  0.72784506700E+01  0.00000000000E+00 0. -1.
          2    1    1    2  501    0 -0.23217638837E+02  0.51270128352E+01  0.19056530208E+02  0.30471238199E+02  0.00000000000E+00 0. -1.
         -2    1    1    2    0  502  0.23217638837E+02 -0.51270128352E+01  0.88389155745E+02  0.91531349095E+02  0.00000000000E+00 0.  1.
</event>
<event>
 4    1  0.1820060E+004  0.2851093E+02  0.7546771E-02  0.1432994E+00
         21   -1    0    0  501  502  0.00000000000E+00  0.00000000000E+00  0.32908807909E+02  0.32908807909E+02  0.00000000000E+00 0.  1.
         21   -1    0    0  502  503 -0.00000000000E+00 -0.00000000000E+00 -0.24920371168E+02  0.24920371168E+02  0.00000000000E+00 0. -1.
          2    1    1    2  501    0 -0.21524910044E+02  0.18696295128E+02  0.67084557222E+01  0.29289530247E+02  0.00000000000E+00 0.  1.
         -2    1    1    2    0  503  0.21524910044E+02 -0.18696295128E+02  0.12799810182E+01  0.28539648830E+02  0.00000000000E+00 0. -1.
</event>
<event>
 4    1  0.1820060E+004  0.4237232E+02  0.7546771E-02  0.1335118E+00
         21   -1    0    0  503  502  0.00000000000E+00  0.00000000000E+00  0.59620302606E+01  0.59620302606E+01  0.00000000000E+00 0. -1.
         21   -1    0    0  501  503 -0.00000000000E+00 -0.00000000000E+00 -0.35056419922E+03  0.35056419922E+03  0.00000000000E+00 0.  1.
          2    1    1    2  501    0  0.34269537176E+02  0.24920121430E+02 -0.23923431001E+03  0.24295775088E+03  0.00000000000E+00 0.  1.
         -2    1    1    2    0  502 -0.34269537176E+02 -0.24920121430E+02 -0.10536785895E+03  0.11356847859E+03  0.00000000000E+00 0. -1.
</event>
<event>
 4    1  0.1820060E+004  0.2826998E+02  0.7546771E-02  0.1435252E+00
         21   -1    0    0  503  502  0.00000000000E+00  0.00000000000E+00  0.52676257448E+01  0.52676257448E+01  0.00000000000E+00 0.  1.
         21   -1    0    0  501  503 -0.00000000000E+00 -0.00000000000E+00 -0.45423518800E+03  0.45423518800E+03  0.00000000000E+00 0. -1.
          2    1    1    2  501    0  0.20266228249E+02 -0.19709687756E+02 -0.41198024043E+03  0.41294904081E+03  0.00000000000E+00 0. -1.
         -2    1    1    2    0  502 -0.20266228249E+02  0.19709687756E+02 -0.36987321821E+02  0.46553772934E+02  0.00000000000E+00 0.  1.
</event>
<event>
 4    1  0.1820060E+004  0.2236029E+02  0.7546771E-02  0.1500691E+00
         21   -1    0    0  501  502  0.00000000000E+00  0.00000000000E+00  0.11655918846E+02  0.11655918846E+02  0.00000000000E+00 0.  1.
         21   -1    0    0  502  503 -0.00000000000E+00 -0.00000000000E+00 -0.56648817072E+02  0.56648817072E+02  0.00000000000E+00 0. -1.
          2    1    1    2  501    0  0.19162007185E+02 -0.11523898420E+02 -0.56683851162E+01  0.23067582101E+02  0.00000000000E+00 0.  1.
         -2    1    1    2    0  503 -0.19162007185E+02  0.11523898420E+02 -0.39324513110E+02  0.45237153817E+02  0.00000000000E+00 0. -1.
</event>
<event>
 4    1  0.1820060E+004  0.2381793E+02  0.7546771E-02  0.1482475E+00
         21   -1    0    0  501  502  0.00000000000E+00  0.00000000000E+00  0.38815693316E+02  0.38815693316E+02  0.00000000000E+00 0.  1.
         21   -1    0    0  502  503 -0.00000000000E+00 -0.00000000000E+00 -0.30563860299E+02  0.30563860299E+02  0.00000000000E+00 0. -1.
          2    1    1    2  501    0 -0.14537943157E+02 -0.18866431113E+02  0.29184775820E+02  0.37670215739E+02  0.00000000000E+00 0.  1.
         -2    1    1    2    0  503  0.14537943157E+02  0.18866431113E+02 -0.20932942802E+02  0.31709337876E+02  0.00000000000E+00 0. -1.
</event>
<event>
 4    1  0.1820060E+004  0.2446925E+02  0.7546771E-02  0.1474829E+00
         21   -1    0    0  503  502  0.00000000000E+00  0.00000000000E+00  0.15386676272E+02  0.15386676272E+02  0.00000000000E+00 0. -1.
         21   -1    0    0  501  503 -0.00000000000E+00 -0.00000000000E+00 -0.45951982387E+02  0.45951982387E+02  0.00000000000E+00 0.  1.
          2    1    1    2  501    0 -0.24429335026E+02  0.13970492996E+01 -0.27285996566E+02  0.36650644812E+02  0.00000000000E+00 0.  1.
         -2    1    1    2    0  502  0.24429335026E+02 -0.13970492996E+01 -0.32793095483E+01  0.24688013846E+02  0.00000000000E+00 0. -1.
</event>
<event>
 4    1  0.1820060E+004  0.2196301E+02  0.7546771E-02  0.1505947E+00
         21   -1    0    0  501  502  0.00000000000E+00  0.00000000000E+00  0.10832980774E+03  0.10832980774E+03  0.00000000000E+00 0. -1.
         21   -1    0    0  502  503 -0.00000000000E+00 -0.00000000000E+00 -0.83126073385E+01  0.83126073385E+01  0.00000000000E+00 0.  1.
          2    1    1    2  501    0 -0.13365353651E+02 -0.17428173447E+02  0.89749634073E+02  0.92397893505E+02  0.00000000000E+00 0. -1.
         -2    1    1    2    0  503  0.13365353651E+02  0.17428173447E+02  0.10267566325E+02  0.24244521570E+02  0.00000000000E+00 0.  1.
</event>
<event>
 4    1  0.1820060E+004  0.2013861E+02  0.7546771E-02  0.1531927E+00
         21   -1    0    0  501  502  0.00000000000E+00  0.00000000000E+00  0.25515465035E+01  0.25515465035E+01  0.00000000000E+00 0. -1.
         21   -1    0    0  502  503 -0.00000000000E+00 -0.00000000000E+00 -0.20397084565E+03  0.20397084565E+03  0.00000000000E+00 0.  1.
          2    1    1    2  501    0  0.65627260372E+00 -0.20127912913E+02 -0.52195447135E+02  0.55945761892E+02  0.00000000000E+00 0. -1.
         -2    1    1    2    0  503 -0.65627260372E+00  0.20127912913E+02 -0.14922385201E+03  0.15057663026E+03  0.00000000000E+00 0.  1.
</event>
<event>
 4    1  0.1820060E+004  0.2147620E+02  0.7546771E-02  0.1512573E+00
         21   -1    0    0  501  502  0.00000000000E+00  0.00000000000E+00  0.37334388520E+02  0.37334388520E+02  0.00000000000E+00 0.  1.
         21   -1    0    0  502  503 -0.00000000000E+00 -0.00000000000E+00 -0.50768198010E+02  0.50768198010E+02  0.00000000000E+00 0. -1.
          2    1    1    2  501    0  0.47004199464E+01 -0.20955502078E+02  0.31601637604E+02  0.38208513636E+02  0.00000000000E+00 0.  1.
         -2    1    1    2    0  503 -0.47004199464E+01  0.20955502078E+02 -0.45035447094E+02  0.49894072894E+02  0.00000000000E+00 0. -1.
</event>
<event>
 4    1  0.1820060E+004  0.3013132E+02  0.7546771E-02  0.1418459E+00
         21   -1    0    0  501  502  0.00000000000E+00  0.00000000000E+00  0.55637485399E+02  0.55637485399E+02  0.00000000000E+00 0.  1.
         21   -1    0    0  502  503 -0.00000000000E+00 -0.00000000000E+00 -0.16509394683E+02  0.16509394683E+02  0.00000000000E+00 0. -1.
          2    1    1    2  501    0  0.29785903113E+02  0.45493515808E+01  0.23447359597E+02  0.38179514090E+02  0.00000000000E+00 0. -1.
         -2    1    1    2    0  503 -0.29785903113E+02 -0.45493515808E+01  0.15680731118E+02  0.33967365993E+02  0.00000000000E+00 0.  1.
</event>
<event>
 4    1  0.1820060E+004  0.2018790E+02  0.7546771E-02  0.1531182E+00
         21   -1    0    0  503  502  0.00000000000E+00  0.00000000000E+00  0.19583135412E+03  0.19583135412E+03  0.00000000000E+00 0. -1.
         21   -1    0    0  501  503 -0.00000000000E+00 -0.00000000000E+00 -0.94925383013E+01  0.94925383013E+01  0.00000000000E+00 0.  1.
          2    1    1    2  501    0 -0.63270807147E+01 -0.19170797963E+02  0.24566139620E+01  0.20336823672E+02  0.00000000000E+00 0.  1.
         -2    1    1    2    0  502  0.63270807147E+01  0.19170797963E+02  0.18388220186E+03  0.18498706875E+03  0.00000000000E+00 0. -1.
</event>
<event>
 4    1  0.1820060E+004  0.2542087E+02  0.7546771E-02  0.1464150E+00
         21   -1    0    0  501  502  0.00000000000E+00  0.00000000000E+00  0.25215284346E+03  0.25215284346E+03  0.00000000000E+00 0.  1.
         21   -1    0    0  502  503 -0.00000000000E+00 -0.00000000000E+00 -0.89154827382E+01  0.89154827382E+01  0.00000000000E+00 0. -1.
          2    1    1    2  501    0 -0.23486643153E+02  0.97261489971E+01  0.23180557001E+03  0.23319528870E+03  0.00000000000E+00 0.  1.
         -2    1    1    2    0  503  0.23486643153E+02 -0.97261489971E+01  0.11431790713E+02  0.27873037506E+02  0.00000000000E+00 0. -1.
</event>
<event>
 4    1  0.1820060E+004  0.3769800E+02  0.7546771E-02  0.1362530E+00
         21   -1    0    0  501  502  0.00000000000E+00  0.00000000000E+00  0.59841743149E+03  0.59841743149E+03  0.00000000000E+00 0.  1.
         21   -1    0    0  502  503 -0.00000000000E+00 -0.00000000000E+00 -0.23778884266E+01  0.23778884266E+01  0.00000000000E+00 0. -1.
          2    1    1    2  501    0  0.37626527860E+02 -0.23203118225E+01  0.30879375504E+03  0.31108635875E+03  0.00000000000E+00 0. -1.
         -2    1    1    2    0  503 -0.37626527860E+02  0.23203118225E+01  0.28724578802E+03  0.28970896117E+03  0.00000000000E+00 0.  1.
</event>
<event>
 4    1  0.1820060E+004  0.2099975E+02  0.7546771E-02  0.1519268E+00
         21   -1    0    0  503  502  0.00000000000E+00  0.00000000000E+00  0.19674650169E+03  0.19674650169E+03  0.00000000000E+00 0.  1.
         21   -1    0    0  501  503 -0.00000000000E+00 -0.00000000000E+00 -0.35137891743E+01  0.35137891743E+01  0.00000000000E+00 0. -1.
          2    1    1    2  501    0  0.16738270853E+02  0.12681479371E+02  0.36362447413E+02  0.41990680062E+02  0.00000000000E+00 0. -1.
         -2    1    1    2    0  502 -0.16738270853E+02 -0.12681479371E+02  0.15687026510E+03  0.15826961080E+03  0.00000000000E+00 0.  1.
</event>
<event>
 4    1  0.1820060E+004  0.2132463E+02  0.7546771E-02  0.1514680E+00
         21   -1    0    0  501  502  0.00000000000E+00  0.00000000000E+00  0.24255225578E+02  0.24255225578E+02  0.00000000000E+00 0. -1.
         21   -1    0    0  502  503 -0.00000000000E+00 -0.00000000000E+00 -0.18871128733E+02  0.18871128733E+02  0.00000000000E+00 0.  1.
          2    1    1    2  501    0  0.18049128904E+02 -0.11356447863E+02  0.44329562579E+01  0.21780520275E+02  0.00000000000E+00 0.  1.
         -2    1    1    2    0  503 -0.18049128904E+02  0.11356447863E+02  0.95114058745E+00  0.21345834036E+02  0.00000000000E+00 0. -1.
</event>
<event>
 4    1  0.1820060E+004  0.2694066E+02  0.7546771E-02  0.1448205E+00
         21   -1    0    0  503  502  0.00000000000E+00  0.00000000000E+00  0.11316428280E+03  0.11316428280E+03  0.00000000000E+00 0.  1.
         21   -1    0    0  501  503 -0.00000000000E+00 -0.00000000000E+00 -0.92474106340E+01  0.92474106340E+01  0.00000000000E+00 0. -1.
          2    1    1    2  501    0 -0.16411318997E+02  0.21365110068E+02  0.18076966301E+02  0.32443428149E+02  0.00000000000E+00 0. -1.
         -2    1    1    2    0  502  0.16411318997E+02 -0.21365110068E+02  0.85839905861E+02  0.89968265280E+02  0.00000000000E+00 0.  1.
</event>
<event>
 4    1  0.1820060E+004  0.2409661E+02  0.7546771E-02  0.1479169E+00
         21   -1    0    0  503  502  0.00000000000E+00  0.00000000000E+00  0.17059405515E+02  0.17059405515E+02  0.00000000000E+00 0. -1.
         21   -1    0    0  501  503 -0.00000000000E+00 -0.00000000000E+00 -0.96340771888E+02  0.96340771888E+02  0.00000000000E+00 0.  1.
          2    1    1    2  501    0  0.70233305178E+01  0.23050367494E+02 -0.85237732633E+02  0.88578313811E+02  0.00000000000E+00 0.  1.
         -2    1    1    2    0  502 -0.70233305178E+01 -0.23050367494E+02  0.59563662598E+01  0.24821863592E+02  0.00000000000E+00 0. -1.
</event>
<event>
 4    1  0.1820060E+004  0.2002603E+02  0.7546771E-02  0.1533638E+00
         21   -1    0    0  503  502  0.00000000000E+00  0.00000000000E+00  0.13657517761E+02  0.13657517761E+02  0.00000000000E+00 0. -1.
         21   -1    0    0  501  503 -0.00000000000E+00 -0.00000000000E+00 -0.37150657628E+02  0.37150657628E+02  0.00000000000E+00 0.  1.
          2    1    1    2  501    0  0.19036096756E+02  0.62184455578E+01 -0.23376855827E+02  0.30781803606E+02  0.00000000000E+00 0.  1.
         -2    1    1    2    0  502 -0.19036096756E+02 -0.62184455578E+01 -0.11628404014E+00  0.20026371784E+02  0.00000000000E+00 0. -1.
</event>
<event>
 4    1  0.1820060E+004  0.2375071E+02  0.7546771E-02  0.1483281E+00
         21   -1    0    0  501  502  0.00000000000E+00  0.00000000000E+00  0.67706336953E+01  0.67706336953E+01  0.00000000000E+00 0. -1.
         21   -1    0    0  502  503 -0.00000000000E+00 -0.00000000000E+00 -0.11765566858E+03  0.11765566858E+03  0.00000000000E+00 0.  1.
          2    1    1    2  501    0  0.10714592593E+02 -0.21196544449E+02 -0.21831663843E+02  0.32260154016E+02  0.00000000000E+00 0. -1.
         -2    1    1    2    0  503 -0.10714592593E+02  0.21196544449E+02 -0.89053371038E+02  0.92166148256E+02  0.00000000000E+00 0.  1.
</event>
<event>
 4    1  0.1820060E+004  0.2130543E+02  0.7546771E-02  0.1514949E+00
         21   -1    0    0  501  502  0.00000000000E+00  0.00000000000E+00  0.19842262151E+03  0.19842262151E+03  0.00000000000E+00 0. -1.
         21   -1    0    0  502  503 -0.00000000000E+00 -0.00000000000E+00 -0.66878439396E+01  0.66878439396E+01  0.00000000000E+00 0.  1.
          2    1    1    2  501    0 -0.77881077003E+01  0.19830949771E+02  0.17905348578E+03  0.18031658814E+03  0.00000000000E+00 0. -1.
         -2    1    1    2    0  503  0.77881077003E+01 -0.19830949771E+02  0.12681291793E+02  0.24793877307E+02  0.00000000000E+00 0.  1.
</event>
<event>
 4    1  0.1820060E+004  0.2717768E+02  0.7546771E-02  0.1445831E+00
         21   -1    0    0  503  502  0.00000000000E+00  0.00000000000E+00  0.15685773915E+03  0.15685773915E+03  0.00000000000E+00 0.  1.
         21   -1    0    0  501  503 -0.00000000000E+00 -0.00000000000E+00 -0.10678052055E+02  0.10678052055E+02  0.00000000000E+00 0. -1.
          2    1    1    2  501    0  0.68437165042E+01  0.26301903007E+02  0.10459022252E+02  0.29120743532E+02  0.00000000000E+00 0. -1.
         -2    1    1    2    0  502 -0.68437165042E+01 -0.26301903007E+02  0.13572066484E+03  0.13841504767E+03  0.00000000000E+00 0.  1.
</event>
<event>
 4    1  0.1820060E+004  0.2080745E+02  0.7546771E-02  0.1522032E+00
         21   -1    0    0  503  502  0.00000000000E+00  0.00000000000E+00  0.22992757861E+01  0.22992757861E+01  0.00000000000E+00 0.  1.
         21   -1    0    0  501  503 -0.00000000000E+00 -0.00000000000E+00 -0.37693291273E+03  0.37693291273E+03  0.00000000000E+00 0. -1.
          2    1    1    2  501    0  0.11868321379E+02  0.17090723899E+02 -0.32145541922E+03  0.32212813668E+03  0.00000000000E+00 0. -1.
         -2    1    1    2    0  502 -0.11868321379E+02 -0.17090723899E+02 -0.53178217731E+02  0.57104051842E+02  0.00000000000E+00 0.  1.
</event>
<event>
 4    1  0.1820060E+004  0.3183437E+02  0.7546771E-02  0.1404298E+00
         21   -1    0    0  503  502  0.00000000000E+00  0.00000000000E+00  0.30670181810E+02  0.30670181810E+02  0.00000000000E+00 0. -1.
         21   -1    0    0  501  503 -0.00000000000E+00 -0.00000000000E+00 -0.41036657903E+02  0.41036657903E+02  0.00000000000E+00 0.  1.
          2    1    1    2  501    0 -0.26312214048E+02 -0.17919107145E+02  0.10641054022E+02  0.33565742055E+02  0.00000000000E+00 0. -1.
         -2    1    1    2    0  502  0.26312214048E+02  0.17919107145E+02 -0.21007530115E+02  0.38141097658E+02  0.00000000000E+00 0.  1.
</event>
<event>
 4    1  0.1820060E+004  0.2562248E+02  0.7546771E-02  0.1461959E+00
         21   -1    0    0  503  502  0.00000000000E+00  0.00000000000E+00  0.16908813646E+01  0.16908813646E+01  0.00000000000E+00 0.  1.
         21   -1    0    0  501  503 -0.00000000000E+00 -0.00000000000E+00 -0.40372679191E+03  0.40372679191E+03  0.00000000000E+00 0. -1.
          2    1    1    2  501    0  0.47998551686E+01  0.25168888130E+02 -0.24068651775E+03  0.24204650662E+03  0.00000000000E+00 0.  1.
         -2    1    1    2    0  502 -0.47998551686E+01 -0.25168888130E+02 -0.16134939280E+03  0.16337116666E+03  0.00000000000E+00 0. -1.
</event>
<event>
 4    1  0.1820060E+004  0.2276285E+02  0.7546771E-02  0.1495498E+00
         21   -1    0    0  501  502  0.00000000000E+00  0.00000000000E+00  0.14076712265E+03  0.14076712265E+03  0.00000000000E+00 0. -1.
         21   -1    0    0  502  503 -0.00000000000E+00 -0.00000000000E+00 -0.82945236926E+01  0.82945236926E+01  0.00000000000E+00 0.  1.
          2    1    1    2  501    0 -0.15321152534E+02 -0.16834770787E+02  0.12182187482E+03  0.12393028850E+03  0.00000000000E+00 0.  1.
         -2    1    1    2    0  503  0.15321152534E+02  0.16834770787E+02  0.10650724135E+02  0.25131357843E+02  0.00000000000E+00 0. -1.
</event>
<event>
 4    1  0.1820060E+004  0.2010522E+02  0.7546771E-02  0.1532433E+00
         21   -1    0    0  503  502  0.00000000000E+00  0.00000000000E+00  0.36430265064E+03  0.36430265064E+03  0.00000000000E+00 0.  1.
         21   -1    0    0  501  503 -0.00000000000E+00 -0.00000000000E+00 -0.43855574505E+01  0.43855574505E+01  0.00000000000E+00 0. -1.
          2    1    1    2  501    0 -0.10427322390E+02 -0.17189842885E+02  0.20632096115E+02  0.28808039515E+02  0.00000000000E+00 0. -1.
         -2    1    1    2    0  502  0.10427322390E+02  0.17189842885E+02  0.33928499708E+03  0.33988016858E+03  0.00000000000E+00 0.  1.
</event>
<event>
 4    1  0.1820060E+004  0.2111963E+02  0.7546771E-02  0.1517564E+00
         21   -1    0    0  503  502  0.00000000000E+00  0.00000000000E+00  0.35662893262E+01  0.35662893262E+01  0.00000000000E+00 0. -1.
         21   -1    0    0  501  503 -0.00000000000E+00 -0.00000000000E+00 -0.24165115977E+03  0.24165115977E+03  0.00000000000E+00 0.  1.
          2    1    1    2  501    0 -0.91750942095E+01 -0.19022527784E+02 -0.20420318837E+03  0.20529242816E+03  0.00000000000E+00 0.  1.
         -2    1    1    2    0  502  0.91750942095E+01  0.19022527784E+02 -0.33881682073E+02  0.39925020941E+02  0.00000000000E+00 0. -1.
</event>
<event>
 4    1  0.1820060E+004  0.2037473E+02  0.7546771E-02  0.1528382E+00
         21   -1    0    0  501  502  0.00000000000E+00  0.00000000000E+00  0.24117848912E+03  0.24117848912E+03  0.00000000000E+00 0. -1.
         21   -1    0    0  502  503 -0.00000000000E+00 -0.00000000000E+00 -0.46411692487E+01  0.46411692487E+01  0.00000000000E+00 0.  1.
          2    1    1    2  501    0 -0.16093275249E+02 -0.12495445245E+02  0.21575818776E+03  0.21671807780E+03  0.00000000000E+00 0. -1.
         -2    1    1    2    0  503  0.16093275249E+02  0.12495445245E+02  0.20779132104E+02  0.29101580560E+02  0.00000000000E+00 0.  1.
</event>
<event>
 4    1  0.1820060E+004  0.2582241E+02  0.7546771E-02  0.1459810E+00
         21   -1    0    0  503  502  0.00000000000E+00  0.00000000000E+00  0.54120902200E+02  0.54120902200E+02  0.00000000000E+00 0.  1.
         21   -1    0    0  501  503 -0.00000000000E+00 -0.00000000000E+00 -0.12352658169E+02  0.12352658169E+02  0.00000000000E+00 0. -1.
          2    1    1    2  501    0 -0.22117591283E+01  0.25727518508E+02  0.19188533093E+02  0.32171367538E+02  0.00000000000E+00 0. -1.
         -2    1    1    2    0  502  0.22117591283E+01 -0.25727518508E+02  0.22579710938E+02  0.34302192831E+02  0.00000000000E+00 0.  1.
</event>
<event>
 4    1  0.1820060E+004  0.2012766E+02  0.7546771E-02  0.1532093E+00
         21   -1    0    0  501  502  0.00000000000E+00  0.00000000000E+00  0.17749789738E+02  0.17749789738E+02  0.00000000000E+00 0. -1.
         21   -1    0    0  502  503 -0.00000000000E+00 -0.00000000000E+00 -0.82840428638E+02  0.82840428638E+02  0.00000000000E+00 0.  1.
          2    1    1    2  501    0  0.10154070111E+02  0.17378655559E+02  0.10264099494E+02  0.22593683791E+02  0.00000000000E+00 0. -1.
         -2    1    1    2    0  503 -0.10154070111E+02 -0.17378655559E+02 -0.75354738394E+02  0.77996534585E+02  0.00000000000E+00 0.  1.
</event>
<event>
 4    1  0.1820060E+004  0.2500629E+02  0.7546771E-02  0.1468733E+00
         21   -1    0    0  503  502  0.00000000000E+00  0.00000000000E+00  0.43322432376E+01  0.43322432376E+01  0.00000000000E+00 0. -1.
         21   -1    0    0  501  503 -0.00000000000E+00 -0.00000000000E+00 -0.16134186099E+03  0.16134186099E+03  0.00000000000E+00 0.  1.
          2    1    1    2  501    0  0.24128573157E+02 -0.65670617682E+01 -0.51613980086E+02  0.57352569979E+02  0.00000000000E+00 0.  1.
         -2    1    1    2    0  502 -0.24128573157E+02  0.65670617682E+01 -0.10539563766E+03  0.10832153425E+03  0.00000000000E+00 0. -1.
</event>
<event>
 4    1  0.1820060E+004  0.2234995E+02  0.7546771E-02  0.1500826E+00
         21   -1    0    0  501  502  0.00000000000E+00  0.00000000000E+00  0.53189746179E+01  0.53189746179E+01  0.00000000000E+00 0.  1.
         21   -1    0    0  502  503 -0.00000000000E+00 -0.00000000000E+00 -0.94484932646E+02  0.94484932646E+02  0.00000000000E+00 0. -1.
          2    1    1    2  501    0  0.17097636504E+02 -0.14394133124E+02 -0.48465850586E+02  0.53370955729E+02  0.00000000000E+00 0.  1.
         -2    1    1    2    0  503 -0.17097636504E+02  0.14394133124E+02 -0.40700107442E+02  0.46432951535E+02  0.00000000000E+00 0. -1.
</event>
<event>
 4    1  0.1820060E+004  0.2368412E+02  0.7546771E-02  0.1484082E+00
         21   -1    0    0  501  502  0.00000000000E+00  0.00000000000E+00  0.23102342218E+03  0.23102342218E+03  0.00000000000E+00 0.  1.
         21   -1    0    0  502  503 -0.00000000000E+00 -0.00000000000E+00 -0.24884544560E+01  0.24884544560E+01  0.00000000000E+00 0. -1.
          2    1    1    2  501    0  0.87647132549E+01 -0.22002669857E+02  0.13245733002E+03  0.13455809881E+03  0.00000000000E+00 0.  1.
         -2    1    1    2    0  503 -0.87647132549E+01  0.22002669857E+02  0.96077637701E+02  0.98953777823E+02  0.00000000000E+00 0. -1.
</event>
<event>
 4    1  0.1820060E+004  0.2089436E+02  0.7546771E-02  0.1520779E+00
         21   -1    0    0  503  502  0.00000000000E+00  0.00000000000E+00  0.27852614457E+03  0.27852614457E+03  0.00000000000E+00 0.  1.
         21   -1    0    0  501  503 -0.00000000000E+00 -0.00000000000E+00 -0.15677715463E+01  0.15677715463E+01  0.00000000000E+00 0. -1.
          2    1    1    2  501    0  0.20230704730E+02  0.52242428118E+01  0.14050353861E+03  0.14204864832E+03  0.00000000000E+00 0.  1.
         -2    1    1    2    0  502 -0.20230704730E+02 -0.52242428118E+01  0.13645483442E+03  0.13804526780E+03  0.00000000000E+00 0. -1.
</event>
<event>
 4    1  0.1820060E+004  0.2183993E+02  0.7546771E-02  0.1507603E+00
         21   -1    0    0  503  502  0.00000000000E+00  0.00000000000E+00  0.81483317515E+02  0.81483317515E+02  0.00000000000E+00 0.  1.
         21   -1    0    0  501  503 -0.00000000000E+00 -0.00000000000E+00 -0.64233228948E+01  0.64233228948E+01  0.00000000000E+00 0. -1.
          2    1    1    2  501    0  0.16503073359E+02  0.14304940692E+02  0.24441570287E+02  0.32777631345E+02  0.00000000000E+00 0. -1.
         -2    1    1    2    0  502 -0.16503073359E+02 -0.14304940692E+02  0.50618424333E+02  0.55129009065E+02  0.00000000000E+00 0.  1.
</event>
<event>
 4    1  0.1820060E+004  0.2245659E+02  0.7546771E-02  0.1499437E+00
         21   -1    0    0  503  502  0.00000000000E+00  0.00000000000E+00  0.19617689151E+03  0.19617689151E+03  0.00000000000E+00 0.  1.
         21   -1    0    0  501  503 -0.00000000000E+00 -0.00000000000E+00 -0.10477184884E+02  0.10477184884E+02  0.00000000000E+00 0. -1.
          2    1    1    2  501    0  0.22448513531E+02  0.60229955357E+00  0.30893504658E+01  0.22668096762E+02  0.00000000000E+00 0. -1.
         -2    1    1    2    0  502 -0.22448513531E+02 -0.60229955357E+00  0.18261035616E+03  0.18398597963E+03  0.00000000000E+00 0.  1.
</event>
<event>
 4    1  0.1820060E+004  0.3636297E+02  0.7546771E-02  0.1371226E+00
         21   -1    0    0  503  502  0.00000000000E+00  0.00000000000E+00  0.81992599297E+01  0.81992599297E+01  0.00000000000E+00 0. -1.
         21   -1    0    0  501  503 -0.00000000000E+00 -0.00000000000E+00 -0.17566571287E+03  0.17566571287E+03  0.00000000000E+00 0.  1.
          2    1    1    2  501    0  0.27318551128E+02 -0.23999216709E+02 -0.57412646366E+02  0.67959381995E+02  0.00000000000E+00 0. -1.
         -2    1    1    2    0  502 -0.27318551128E+02  0.23999216709E+02 -0.11005380658E+03  0.11590559081E+03  0.00000000000E+00 0.  1.
</event>
<event>
 4    1  0.1820060E+004  0.2014741E+02  0.7546771E-02  0.1531794E+00
         21   -1    0    0  503  502  0.00000000000E+00  0.00000000000E+00  0.17855588472E+02  0.17855588472E+02  0.00000000000E+00 0. -1.
         21   -1    0    0  501  503 -0.00000000000E+00 -0.00000000000E+00 -0.13905208053E+03  0.13905208053E+03  0.00000000000E+00 0.  1.
          2    1    1    2  501    0 -0.16145614933E+02  0.12051441615E+02 -0.13235291648E+03  0.13387760316E+03  0.00000000000E+00 0.  1.
         -2    1    1    2    0  502  0.16145614933E+02 -0.12051441615E+02  0.11156424426E+02  0.23030065839E+02  0.00000000000E+00 0. -1.
</event>
<event>
 4    1  0.1820060E+004  0.2221613E+02  0.7546771E-02  0.1502583E+00
         21   -1    0    0  503  502  0.00000000000E+00  0.00000000000E+00  0.89131642568E+01  0.89131642568E+01  0.00000000000E+00 0. -1.
         21   -1    0    0  501  503 -0.00000000000E+00 -0.00000000000E+00 -0.61909791663E+02  0.61909791663E+02  0.00000000000E+00 0.  1.
          2    1    1    2  501    0 -0.80761091573E+01 -0.20696201645E+02 -0.14992478132E+02  0.26801692152E+02  0.00000000000E+00 0.  1.
         -2    1    1    2    0  502  0.80761091573E+01  0.20696201645E+02 -0.38004149274E+02  0.44021263768E+02  0.00000000000E+00 0. -1.
</event>
<event>
 4    1  0.1820060E+004  0.2170236E+02  0.7546771E-02  0.1509469E+00
         21   -1    0    0  503  502  0.00000000000E+00  0.00000000000E+00  0.13419694315E+02  0.13419694315E+02  0.00000000000E+00 0. -1.
         21   -1    0    0  501  503 -0.00000000000E+00 -0.00000000000E+00 -0.62799210258E+02  0.62799210258E+02  0.00000000000E+00 0.  1.
          2    1    1    2  501    0 -0.14680749470E+02  0.15983371223E+02 -0.50000910539E+02  0.54507647311E+02  0.00000000000E+00 0.  1.
         -2    1    1    2    0  502  0.14680749470E+02 -0.15983371223E+02  0.62139459524E+00  0.21711257262E+02  0.00000000000E+00 0. -1.
</event>
<event>
 4    1  0.1820060E+004  0.2221486E+02  0.7546771E-02  0.1502600E+00
         21   -1    0    0  501  502  0.00000000000E+00  0.00000000000E+00  0.51632053159E+02  0.51632053159E+02  0.00000000000E+00 0. -1.
         21   -1    0    0  502  503 -0.00000000000E+00 -0.00000000000E+00 -0.10863781575E+02  0.10863781575E+02  0.00000000000E+00 0.  1.
          2    1    1    2  501    0 -0.74583582433E+00  0.22202338988E+02  0.31217484675E+02  0.38314898892E+02  0.00000000000E+00 0. -1.
         -2    1    1    2    0  503  0.74583582433E+00 -0.22202338988E+02  0.95507869094E+01  0.24180935842E+02  0.00000000000E+00 0.  1.
</event>
<event>
 4    1  0.1820060E+004  0.5390809E+02  0.7546771E-02  0.1282063E+00
         21   -1    0    0  503  502  0.00000000000E+00  0.00000000000E+00  0.64673442304E+02  0.64673442304E+02  0.00000000000E+00 0. -1.
         21   -1    0    0  501  503 -0.00000000000E+00 -0.00000000000E+00 -0.10883274432E+03  0.10883274432E+03  0.00000000000E+00 0.  1.
          2    1    1    2  501    0  0.53388907515E+02  0.74637229715E+01 -0.88553207607E+02  0.10367137109E+03  0.00000000000E+00 0.  1.
         -2    1    1    2    0  502 -0.53388907515E+02 -0.74637229715E+01  0.44393905594E+02  0.69834815531E+02  0.00000000000E+00 0. -1.
</event>
<event>
 4    1  0.1820060E+004  0.2105543E+02  0.7546771E-02  0.1518475E+00
         21   -1    0    0  503  502  0.00000000000E+00  0.00000000000E+00  0.10300622852E+02  0.10300622852E+02  0.00000000000E+00 0.  1.
         21   -1    0    0  501  503 -0.00000000000E+00 -0.00000000000E+00 -0.80309742417E+02  0.80309742417E+02  0.00000000000E+00 0. -1.
          2    1    1    2  501    0  0.19057146068E+02  0.89530087970E+01 -0.65868138151E+02  0.69151592941E+02  0.00000000000E+00 0. -1.
         -2    1    1    2    0  502 -0.19057146068E+02 -0.89530087970E+01 -0.41409814142E+01  0.21458772328E+02  0.00000000000E+00 0.  1.
</event>
<event>
 4    1  0.1820060E+004  0.2730856E+02  0.7546771E-02  0.1444533E+00
         21   -1    0    0  501  502  0.00000000000E+00  0.00000000000E+00  0.67292634273E+02  0.67292634273E+02  0.00000000000E+00 0. -1.
         21   -1    0    0  502  503 -0.00000000000E+00 -0.00000000000E+00 -0.15283246364E+02  0.15283246364E+02  0.00000000000E+00 0.  1.
          2    1    1    2  501    0 -0.22558334154E+02  0.15390872845E+02  0.47651249031E+02  0.54921752894E+02  0.00000000000E+00 0. -1.
         -2    1    1    2    0  503  0.22558334154E+02 -0.15390872845E+02  0.43581388782E+01  0.27654127743E+02  0.00000000000E+00 0.  1.
</event>
<event>
 4    1  0.1820060E+004  0.2129062E+02  0.7546771E-02  0.1515156E+00
         21   -1    0    0  501  502  0.00000000000E+00  0.00000000000E+00  0.58457282867E+02  0.58457282867E+02  0.00000000000E+00 0.  1.
         21   -1    0    0  502  503 -0.00000000000E+00 -0.00000000000E+00 -0.71532196842E+02  0.71532196842E+02  0.00000000000E+00 0. -1.
          2    1    1    2  501    0  0.15945864266E+02  0.14107438150E+02  0.54833488082E+02  0.58821780095E+02  0.00000000000E+00 0.  1.
         -2    1    1    2    0  503 -0.15945864266E+02 -0.14107438150E+02 -0.67908402057E+02  0.71167699614E+02  0.00000000000E+00 0. -1.
</event>
<event>
 4    1  0.1820060E+004  0.2320634E+02  0.7546771E-02  0.1489923E+00
         21   -1    0    0  503  502  0.00000000000E+00  0.00000000000E+00  0.17737846893E+02  0.17737846893E+02  0.00000000000E+00 0. -1.
         21   -1    0    0  501  503 -0.00000000000E+00 -0.00000000000E+00 -0.46340867788E+02  0.46340867788E+02  0.00000000000E+00 0.  1.
          2    1    1    2  501    0 -0.22054524333E+02  0.72202753920E+01 -0.33115965243E+02  0.40437625725E+02  0.00000000000E+00 0.  1.
         -2    1    1    2    0  502  0.22054524333E+02 -0.72202753920E+01  0.45129443485E+01  0.23641088955E+02  0.00000000000E+00 0. -1.
</event>
<event>
 4    1  0.1820060E+004  0.2072936E+02  0.7546771E-02  0.1523164E+00
         21   -1    0    0  501  502  0.00000000000E+00  0.00000000000E+00  0.88839556022E+01  0.88839556022E+01  0.00000000000E+00 0. -1.
         21   -1    0    0  502  503 -0.00000000000E+00 -0.00000000000E+00 -0.10889248463E+03  0.10889248463E+03  0.00000000000E+00 0.  1.
          2    1    1    2  501    0 -0.10636239673E+02 -0.17792599540E+02 -0.61014678642E+01  0.21608658054E+02  0.00000000000E+00 0. -1.
         -2    1    1    2    0  503  0.10636239673E+02  0.17792599540E+02 -0.93907061161E+02  0.96167782177E+02  0.00000000000E+00 0.  1.
</event>
<event>
 4    1  0.1820060E+004  0.6079394E+02  0.7546771E-02  0.1257159E+00
         21   -1    0    0  503  502  0.00000000000E+00  0.00000000000E+00  0.38762297808E+02  0.38762297808E+02  0.00000000000E+00 0.  1.
         21   -1    0    0  501  503 -0.00000000000E+00 -0.00000000000E+00 -0.19768762112E+03  0.19768762112E+03  0.00000000000E+00 0. -1.
          2    1    1    2  501    0 -0.39605825306E+02  0.46122459191E+02 -0.16452584050E+03  0.17539855995E+03  0.00000000000E+00 0. -1.
         -2    1    1    2    0  502  0.39605825306E+02 -0.46122459191E+02  0.56005171913E+01  0.61051358976E+02  0.00000000000E+00 0.  1.
</event>
<event>
 4    1  0.1820060E+004  0.2407198E+02  0.7546771E-02  0.1479459E+00
         21   -1    0    0  503  502  0.00000000000E+00  0.00000000000E+00  0.32259829694E+02  0.32259829694E+02  0.00000000000E+00 0.  1.
         21   -1    0    0  501  503 -0.00000000000E+00 -0.00000000000E+00 -0.37891756943E+02  0.37891756943E+02  0.00000000000E+00 0. -1.
          2    1    1    2  501    0 -0.58646235313E+01 -0.23346660400E+02 -0.28253965264E+02  0.37118013337E+02  0.00000000000E+00 0. -1.
         -2    1    1    2    0  502  0.58646235313E+01  0.23346660400E+02  0.22622038015E+02  0.33033573300E+02  0.00000000000E+00 0.  1.
</event>
<event>
 4    1  0.1820060E+004  0.2943181E+02  0.7546771E-02  0.1424599E+00
         21   -1    0    0  503  502  0.00000000000E+00  0.00000000000E+00  0.80805823266E+01  0.80805823266E+01  0.00000000000E+00 0.  1.
         21   -1    0    0  501  503 -0.00000000000E+00 -0.00000000000E+00 -0.17133079075E+03  0.17133079075E+03  0.00000000000E+00 0. -1.
          2    1    1    2  501    0  0.19223259086E+02  0.22286715978E+02 -0.13650818809E+03  0.13964496702E+03  0.00000000000E+00 0. -1.
         -2    1    1    2    0  502 -0.19223259086E+02 -0.22286715978E+02 -0.26742020332E+02  0.39766406053E+02  0.00000000000E+00 0.  1.
</event>
<event>
 4    1  0.1820060E+004  0.2114127E+02  0.7546771E-02  0.1517257E+00
         21   -1    0    0  503  502  0.00000000000E+00  0.00000000000E+00  0.25822691999E+02  0.25822691999E+02  0.00000000000E+00 0.  1.
         21   -1    0    0  501  503 -0.00000000000E+00 -0.00000000000E+00 -0.32060640083E+02  0.32060640083E+02  0.00000000000E+00 0. -1.
          2    1    1    2  501    0  0.52377969605E+01 -0.20482160547E+02 -0.22750957345E+02  0.31057357869E+02  0.00000000000E+00 0. -1.
         -2    1    1    2    0  502 -0.52377969605E+01  0.20482160547E+02  0.16513009261E+02  0.26825974214E+02  0.00000000000E+00 0.  1.
</event>
<event>
 4    1  0.1820060E+004  0.2483751E+02  0.7546771E-02  0.1470629E+00
         21   -1    0    0  501  502  0.00000000000E+00  0.00000000000E+00  0.17318772719E+01  0.17318772719E+01  0.00000000000E+00 0.  1.
         21   -1    0    0  502  503 -0.00000000000E+00 -0.00000000000E+00 -0.44314025246E+03  0.44314025246E+03  0.00000000000E+00 0. -1.
          2    1    1    2  501    0  0.13809555082E+02  0.20644561090E+02 -0.31922657177E+03  0.32019135816E+03  0.00000000000E+00 0. -1.
         -2    1    1    2    0  503 -0.13809555082E+02 -0.20644561090E+02 -0.12218180342E+03  0.12468077158E+03  0.00000000000E+00 0.  1.
</event>
<event>
 4    1  0.1820060E+004  0.2587426E+02  0.7546771E-02  0.1459256E+00
         21   -1    0    0  501  502  0.00000000000E+00  0.00000000000E+00  0.21269587533E+01  0.21269587533E+01  0.00000000000E+00 0. -1.
         21   -1    0    0  502  503 -0.00000000000E+00 -0.00000000000E+00 -0.32350365396E+03  0.32350365396E+03  0.00000000000E+00 0.  1.
          2    1    1    2  501    0  0.12414003086E+02  0.22701758830E+02 -0.13391816863E+03  0.13639484307E+03  0.00000000000E+00 0.  1.
         -2    1    1    2    0  503 -0.12414003086E+02 -0.22701758830E+02 -0.18745852658E+03  0.18923576964E+03  0.00000000000E+00 0. -1.
</event>
<event>
 4    1  0.1820060E+004  0.2679452E+02  0.7546771E-02  0.1449683E+00
         21   -1    0    0  501  502  0.00000000000E+00  0.00000000000E+00  0.57205682140E+02  0.57205682140E+02  0.00000000000E+00 0. -1.
         21   -1    0    0  502  503 -0.00000000000E+00 -0.00000000000E+00 -0.48678600567E+02  0.48678600567E+02  0.00000000000E+00 0.  1.
          2    1    1    2  501    0  0.22582100926E+02 -0.14422037705E+02  0.49873159305E+02  0.56615178821E+02  0.00000000000E+00 0. -1.
         -2    1    1    2    0  503 -0.22582100926E+02  0.14422037705E+02 -0.41346077733E+02  0.49269103886E+02  0.00000000000E+00 0.  1.
</event>
<event>
 4    1  0.1820060E+004  0.2052753E+02  0.7546771E-02  0.1526119E+00
         21   -1    0    0  503  502  0.00000000000E+00  0.00000000000E+00  0.77051854174E+01  0.77051854174E+01  0.00000000000E+00 0.  1.
         21   -1    0    0  501  503 -0.00000000000E+00 -0.00000000000E+00 -0.55136855190E+02  0.55136855190E+02  0.00000000000E+00 0. -1.
          2    1    1    2  501    0  0.90029162665E+01 -0.18447955589E+02 -0.26551491822E+02  0.33561306361E+02  0.00000000000E+00 0.  1.
         -2    1    1    2    0  502 -0.90029162665E+01  0.18447955589E+02 -0.20880177951E+02  0.29280734246E+02  0.00000000000E+00 0. -1.
</event>
<event>
 4    1  0.1820060E+004  0.2353408E+02  0.7546771E-02  0.1485898E+00
         21   -1    0    0  501  502  0.00000000000E+00  0.00000000000E+00  0.82204349492E+02  0.82204349492E+02  0.00000000000E+00 0. -1.
         21   -1    0    0  502  503 -0.00000000000E+00 -0.00000000000E+00 -0.29618698620E+02  0.29618698620E+02  0.00000000000E+00 0.  1.
          2    1    1    2  501    0 -0.17706252388E+02 -0.15502957700E+02  0.75435363593E+02  0.79021181663E+02  0.00000000000E+00 0. -1.
         -2    1    1    2    0  503  0.17706252388E+02  0.15502957700E+02 -0.22849712721E+02  0.32801866449E+02  0.00000000000E+00 0.  1.
</event>
<event>
 4    1  0.1820060E+004  0.2514875E+02  0.7546771E-02  0.1467146E+00
         21   -1    0    0  501  502  0.00000000000E+00  0.00000000000E+00  0.17450869018E+02  0.17450869018E+02  0.00000000000E+00 0. -1.
         21   -1    0    0  502  503 -0.00000000000E+00 -0.00000000000E+00 -0.57425701152E+02  0.57425701152E+02  0.00000000000E+00 0.  1.
          2    1    1    2  501    0 -0.38888932795E+01 -0.24846253107E+02  0.27510177793E+01  0.25298772365E+02  0.00000000000E+00 0. -1.
         -2    1    1    2    0  503  0.38888932795E+01  0.24846253107E+02 -0.42725849913E+02  0.49577797804E+02  0.00000000000E+00 0.  1.
</event>
<event>
 4    1  0.1820060E+004  0.2629186E+02  0.7546771E-02  0.1454854E+00
         21   -1    0    0  501  502  0.00000000000E+00  0.00000000000E+00  0.18520216510E+03  0.18520216510E+03  0.00000000000E+00 0.  1.
         21   -1    0    0  502  503 -0.00000000000E+00 -0.00000000000E+00 -0.37544849625E+01  0.37544849625E+01  0.00000000000E+00 0. -1.
          2    1    1    2  501    0 -0.16633679467E+02  0.20361301466E+02  0.83489539559E+02  0.87531509217E+02  0.00000000000E+00 0.  1.
         -2    1    1    2    0  503  0.16633679467E+02 -0.20361301466E+02  0.97958140580E+02  0.10142514085E+03  0.00000000000E+00 0. -1.
</event>
<event>
 4    1  0.1820060E+004  0.4073250E+02  0.7546771E-02  0.1344246E+00
         21   -1    0    0  501  502  0.00000000000E+00  0.00000000000E+00  0.58602821798E+02  0.58602821798E+02  0.00000000000E+00 0.  1.
         21   -1    0    0  502  503 -0.00000000000E+00 -0.00000000000E+00 -0.28641057366E+02  0.28641057366E+02  0.00000000000E+00 0. -1.
          2    1    1    2  501    0  0.65559910098E+01 -0.40201433057E+02  0.10301931975E+02  0.42015069206E+02  0.00000000000E+00 0. -1.
         -2    1    1    2    0  503 -0.65559910098E+01  0.40201433057E+02  0.19659832457E+02  0.45228809958E+02  0.00000000000E+00 0.  1.
</event>
<event>
 4    1  0.1820060E+004  0.2693389E+02  0.7546771E-02  0.1448273E+00
         21   -1    0    0  503  502  0.00000000000E+00  0.00000000000E+00  0.51192614410E+02  0.51192614410E+02  0.00000000000E+00 0.  1.
         21   -1    0    0  501  503 -0.00000000000E+00 -0.00000000000E+00 -0.17723864588E+02  0.17723864588E+02  0.00000000000E+00 0. -1.
          2    1    1    2  501    0  0.16300413985E+02  0.21441341372E+02  0.32162821834E+02  0.41950944258E+02  0.00000000000E+00 0.  1.
         -2    1    1    2    0  502 -0.16300413985E+02 -0.21441341372E+02  0.13059279888E+01  0.26965534740E+02  0.00000000000E+00 0. -1.
</event>
<event>
 4    1  0.1820060E+004  0.5172531E+02  0.7546771E-02  0.1290861E+00
         21   -1    0    0  501  502  0.00000000000E+00  0.00000000000E+00  0.19635302893E+03  0.19635302893E+03  0.00000000000E+00 0.  1.
         21   -1    0    0  502  503 -0.00000000000E+00 -0.00000000000E+00 -0.53007714040E+02  0.53007714040E+02  0.00000000000E+00 0. -1.
          2    1    1    2  501    0  0.22429319672E+02 -0.46609365215E+02  0.17913983194E+03  0.18645800250E+03  0.00000000000E+00 0.  1.
         -2    1    1    2    0  503 -0.22429319672E+02  0.46609365215E+02 -0.35794517059E+02  0.62902740466E+02  0.00000000000E+00 0. -1.
</event>
<event>
 4    1  0.1820060E+004  0.2661551E+02  0.7546771E-02  0.1451509E+00
         21   -1    0    0  501  502  0.00000000000E+00  0.00000000000E+00  0.57480921927E+01  0.57480921927E+01  0.00000000000E+00 0. -1.
         21   -1    0    0  502  503 -0.00000000000E+00 -0.00000000000E+00 -0.21452232937E+03  0.21452232937E+03  0.00000000000E+00 0.  1.
          2    1    1    2  501    0 -0.26397426052E+02 -0.34002193016E+01 -0.32543675736E+02  0.42041365628E+02  0.00000000000E+00 0. -1.
         -2    1    1    2    0  503  0.26397426052E+02  0.34002193016E+01 -0.17623056144E+03  0.17822905593E+03  0.00000000000E+00 0.  1.
</event>
<event>
 4    1  0.1820060E+004  0.3042228E+02  0.7546771E-02  0.1415962E+00
         21   -1    0    0  501  502  0.00000000000E+00  0.00000000000E+00  0.39787980236E+02  0.39787980236E+02  0.00000000000E+00 0. -1.
         21   -1    0    0  502  503 -0.00000000000E+00 -0.00000000000E+00 -0.37867712318E+02  0.37867712318E+02  0.00000000000E+00 0.  1.
          2    1    1    2  501    0  0.29509060878E+02  0.73980026435E+01  0.25074865059E+02  0.39424154712E+02  0.00000000000E+00 0. -1.
         -2    1    1    2    0  503 -0.29509060878E+02 -0.73980026435E+01 -0.23154597141E+02  0.38231537842E+02  0.00000000000E+00 0.  1.
</event>
<event>
 4    1  0.1820060E+004  0.5172288E+02  0.7546771E-02  0.1290871E+00
         21   -1    0    0  501  502  0.00000000000E+00  0.00000000000E+00  0.28260876262E+02  0.28260876262E+02  0.00000000000E+00 0.  1.
         21   -1    0    0  502  503 -0.00000000000E+00 -0.00000000000E+00 -0.10677146556E+03  0.10677146556E+03  0.00000000000E+00 0. -1.
          2    1    1    2  501    0  0.41073166115E+02  0.31436466500E+02 -0.16518637350E+02  0.54296609292E+02  0.00000000000E+00 0.  1.
         -2    1    1    2    0  503 -0.41073166115E+02 -0.31436466500E+02 -0.61991951944E+02  0.80735732526E+02  0.00000000000E+00 0. -1.
</event>
<event>
 4    1  0.1820060E+004  0.2610710E+02  0.7546771E-02  0.1456790E+00
         21   -1    0    0  501  502  0.00000000000E+00  0.00000000000E+00  0.18692883755E+03  0.18692883755E+03  0.00000000000E+00 0. -1.
         21   -1    0    0  502  503 -0.00000000000E+00 -0.00000000000E+00 -0.53254781680E+01  0.53254781680E+01  0.00000000000E+00 0.  1.
          2    1    1    2  501    0  0.19404600107E+02  0.17465458290E+02  0.14478101811E+03  0.14711602205E+03  0.00000000000E+00 0. -1.
         -2    1    1    2    0  503 -0.19404600107E+02 -0.17465458290E+02  0.36822341272E+02  0.45138293669E+02  0.00000000000E+00 0.  1.
</event>
<event>
 4    1  0.1820060E+004  0.2789095E+02  0.7546771E-02  0.1438858E+00
         21   -1    0    0  501  502  0.00000000000E+00  0.00000000000E+00  0.63347678480E+02  0.63347678480E+02  0.00000000000E+00 0.  1.
         21   -1    0    0  502  503 -0.00000000000E+00 -0.00000000000E+00 -0.25092518816E+02  0.25092518816E+02  0.00000000000E+00 0. -1.
          2    1    1    2  501    0  0.77597723533E+01 -0.26789758184E+02  0.50726044505E+02  0.57888140423E+02  0.00000000000E+00 0.  1.
         -2    1    1    2    0  503 -0.77597723533E+01  0.26789758184E+02 -0.12470884841E+02  0.30552056874E+02  0.00000000000E+00 0. -1.
</event>
<event>
 4    1  0.1820060E+004  0.3473329E+02  0.7546771E-02  0.1382448E+00
         21   -1    0    0  503  502  0.00000000000E+00  0.00000000000E+00  0.54803409700E+02  0.54803409700E+02  0.00000000000E+00 0.  1.
         21   -1    0    0  501  503 -0.00000000000E+00 -0.00000000000E+00 -0.10955835528E+03  0.10955835528E+03  0.00000000000E+00 0. -1.
          2    1    1    2  501    0  0.20578766034E+02  0.27980627015E+02 -0.10083968223E+03  0.10665384481E+03  0.00000000000E+00 0. -1.
         -2    1    1    2    0  502 -0.20578766034E+02 -0.27980627015E+02  0.46084736645E+02  0.57707920178E+02  0.00000000000E+00 0.  1.
</event>
<event>
 4    1  0.1820060E+004  0.2037039E+02  0.7546771E-02  0.1528447E+00
         21   -1    0    0  503  502  0.00000000000E+00  0.00000000000E+00  0.45062002731E+01  0.45062002731E+01  0.00000000000E+00 0.  1.
         21   -1    0    0  501  503 -0.00000000000E+00 -0.00000000000E+00 -0.13175030680E+03  0.13175030680E+03  0.00000000000E+00 0. -1.
          2    1    1    2  501    0  0.40190303599E+01 -0.19969983295E+02 -0.10100362809E+03  0.10303730260E+03  0.00000000000E+00 0. -1.
         -2    1    1    2    0  502 -0.40190303599E+01  0.19969983295E+02 -0.26240478437E+02  0.33219204482E+02  0.00000000000E+00 0.  1.
</event>
<event>
 4    1  0.1820060E+004  0.2766981E+02  0.7546771E-02  0.1440993E+00
         21   -1    0    0  503  502  0.00000000000E+00  0.00000000000E+00  0.10191597940E+02  0.10191597940E+02  0.00000000000E+00 0. -1.
         21   -1    0    0  501  503 -0.00000000000E+00 -0.00000000000E+00 -0.14974766610E+03  0.14974766610E+03  0.00000000000E+00 0.  1.
          2    1    1    2  501    0 -0.11293980210E+02 -0.25259937075E+02 -0.12623112105E+03  0.12922814837E+03  0.00000000000E+00 0.  1.
         -2    1    1    2    0  502  0.11293980210E+02  0.25259937075E+02 -0.13324947107E+02  0.30711115666E+02  0.00000000000E+00 0. -1.
</event>
<event>
 4    1  0.1820060E+004  0.4704300E+02  0.7546771E-02  0.1311528E+00
         21   -1    0    0  503  502  0.00000000000E+00  0.00000000000E+00  0.88044996018E+03  0.88044996018E+03  0.00000000000E+00 0.  1.
         21   -1    0    0  501  503 -0.00000000000E+00 -0.00000000000E+00 -0.30740039222E+01  0.30740039222E+01  0.00000000000E+00 0. -1.
          2    1    1    2  501    0 -0.46585130734E+02  0.65474970195E+01  0.25005793195E+03  0.25444451941E+03  0.00000000000E+00 0. -1.
         -2    1    1    2    0  502  0.46585130734E+02 -0.65474970195E+01  0.62731802430E+03  0.62907944469E+03  0.00000000000E+00 0.  1.
</event>
<event>
 4    1  0.1820060E+004  0.2345104E+02  0.7546771E-02  0.1486911E+00
         21   -1    0    0  501  502  0.00000000000E+00  0.00000000000E+00  0.97023797846E+01  0.97023797846E+01  0.00000000000E+00 0. -1.
         21   -1    0    0  502  503 -0.00000000000E+00 -0.00000000000E+00 -0.56939984348E+02  0.56939984348E+02  0.00000000000E+00 0.  1.
          2    1    1    2  501    0 -0.82133878844E+01  0.21965690621E+02 -0.25861240150E+02  0.34910672395E+02  0.00000000000E+00 0. -1.
         -2    1    1    2    0  503  0.82133878844E+01 -0.21965690621E+02 -0.21376364413E+02  0.31731691737E+02  0.00000000000E+00 0.  1.
</event>
<event>
 4    1  0.1820060E+004  0.2370531E+02  0.7546771E-02  0.1483826E+00
         21   -1    0    0  503  502  0.00000000000E+00  0.00000000000E+00  0.16047439954E+01  0.16047439954E+01  0.00000000000E+00 0. -1.
         21   -1    0    0  501  503 -0.00000000000E+00 -0.00000000000E+00 -0.35907113658E+03  0.35907113658E+03  0.00000000000E+00 0.  1.
          2    1    1    2  501    0 -0.13917942234E+02 -0.19189391452E+02 -0.15034825711E+03  0.15220558556E+03  0.00000000000E+00 0. -1.
         -2    1    1    2    0  502  0.13917942234E+02  0.19189391452E+02 -0.20711813548E+03  0.20847029502E+03  0.00000000000E+00 0.  1.
</event>
<event>
 4    1  0.1820060E+004  0.2586663E+02  0.7546771E-02  0.1459338E+00
         21   -1    0    0  501  502  0.00000000000E+00  0.00000000000E+00  0.88737269723E+02  0.88737269723E+02  0.00000000000E+00 0. -1.
         21   -1    0    0  502  503 -0.00000000000E+00 -0.00000000000E+00 -0.57154729123E+02  0.57154729123E+02  0.00000000000E+00 0.  1.
          2    1    1    2  501    0 -0.23493557163E+02  0.10822908070E+02  0.83755520579E+02  0.87658826108E+02  0.00000000000E+00 0. -1.
         -2    1    1    2    0  503  0.23493557163E+02 -0.10822908070E+02 -0.52172979979E+02  0.58233172738E+02  0.00000000000E+00 0.  1.
</event>
<event>
 4    1  0.1820060E+004  0.3019908E+02  0.7546771E-02  0.1417874E+00
         21   -1    0    0  501  502  0.00000000000E+00  0.00000000000E+00  0.32092869462E+03  0.32092869462E+03  0.00000000000E+00 0.  1.
         21   -1    0    0  502  503 -0.00000000000E+00 -0.00000000000E+00 -0.46933194297E+01  0.46933194297E+01  0.00000000000E+00 0. -1.
          2    1    1    2  501    0 -0.30004527188E+02 -0.34224253554E+01  0.26038079722E+03  0.26212619901E+03  0.00000000000E+00 0.  1.
         -2    1    1    2    0  503  0.30004527188E+02  0.34224253554E+01  0.55854577965E+02  0.63495815034E+02  0.00000000000E+00 0. -1.
</event>
<event>
 4    1  0.1820060E+004  0.2782005E+02  0.7546771E-02  0.1439540E+00
         21   -1    0    0  503  502  0.00000000000E+00  0.00000000000E+00  0.26355737402E+02  0.26355737402E+02  0.00000000000E+00 0. -1.
         21   -1    0    0  501  503 -0.00000000000E+00 -0.00000000000E+00 -0.43460389800E+02  0.43460389800E+02  0.00000000000E+00 0.  1.
          2    1    1    2  501    0  0.15402647516E+02 -0.23167082527E+02 -0.28431867937E+02  0.39778466256E+02  0.00000000000E+00 0.  1.
         -2    1    1    2    0  502 -0.15402647516E+02  0.23167082527E+02  0.11327215539E+02  0.30037660947E+02  0.00000000000E+00 0. -1.
</event>
<event>
 4    1  0.1820060E+004  0.2511595E+02  0.7546771E-02  0.1467510E+00
         21   -1    0    0  503  502  0.00000000000E+00  0.00000000000E+00  0.47486938632E+01  0.47486938632E+01  0.00000000000E+00 0. -1.
         21   -1    0    0  501  503 -0.00000000000E+00 -0.00000000000E+00 -0.14273901042E+03  0.14273901042E+03  0.00000000000E+00 0.  1.
          2    1    1    2  501    0 -0.22070071758E+02  0.11988445856E+02 -0.49573952177E+02  0.55573263679E+02  0.00000000000E+00 0.  1.
         -2    1    1    2    0  502  0.22070071758E+02 -0.11988445856E+02 -0.88416364381E+02  0.91914440606E+02  0.00000000000E+00 0. -1.
</event>
<event>
 4    1  0.1820060E+004  0.2722470E+02  0.7546771E-02  0.1445364E+00
         21   -1    0    0  501  502  0.00000000000E+00  0.00000000000E+00  0.11396905038E+04  0.11396905038E+04  0.00000000000E+00 0. -1.
         21   -1    0    0  502  503 -0.00000000000E+00 -0.00000000000E+00 -0.11726740595E+01  0.11726740595E+01  0.00000000000E+00 0.  1.
          2    1    1    2  501    0 -0.19676233670E+02 -0.18815683601E+02  0.94996505750E+03  0.95035508868E+03  0.00000000000E+00 0. -1.
         -2    1    1    2    0  503  0.19676233670E+02  0.18815683601E+02  0.18855277221E+03  0.19050808915E+03  0.00000000000E+00 0.  1.
</event>
<event>
 4    1  0.1820060E+004  0.3619456E+02  0.7546771E-02  0.1372354E+00
         21   -1    0    0  503  502  0.00000000000E+00  0.00000000000E+00  0.61776683048E+02  0.61776683048E+02  0.00000000000E+00 0.  1.
         21   -1    0    0  501  503 -0.00000000000E+00 -0.00000000000E+00 -0.21494299001E+02  0.21494299001E+02  0.00000000000E+00 0. -1.
          2    1    1    2  501    0  0.11530838345E+02 -0.34308681344E+02  0.15320519121E+02  0.39303487818E+02  0.00000000000E+00 0.  1.
         -2    1    1    2    0  502 -0.11530838345E+02  0.34308681344E+02  0.24961864925E+02  0.43967494232E+02  0.00000000000E+00 0. -1.
</event>
