<event>
 4    1  0.3048956E+006  0.2344937E+02  0.7546771E-02  0.1486931E+00
         21   -1    0    0  504  501  0.00000000000E+00  0.00000000000E+00  0.72288628297E+01  0.72288628297E+01  0.00000000000E+00 0.  1.
         21   -1    0    0  503  502 -0.00000000000E+00 -0.00000000000E+00 -0.76086973644E+02  0.76086973644E+02  0.00000000000E+00 0.  1.
         21    1    1    2  503  501 -0.19853523759E+02 -0.12478406350E+02 -0.35115311626E+02  0.42225089002E+02  0.00000000000E+00 0.  1.
         21    1    1    2  504  502  0.19853523759E+02  0.12478406350E+02 -0.33742799189E+02  0.41090747472E+02  0.00000000000E+00 0.  1.
</event>
<event>
 4    1  0.3048956E+006  0.3234343E+02  0.7546771E-02  0.1400268E+00
         21   -1    0    0  504  501  0.00000000000E+00  0.00000000000E+00  0.15678002912E+03  0.15678002912E+03  0.00000000000E+00 0. -1.
         21   -1    0    0  503  502 -0.00000000000E+00 -0.00000000000E+00 -0.67125539809E+01  0.67125539809E+01  0.00000000000E+00 0. -1.
         21    1    1    2  503  501 -0.25558703834E+02  0.19820449684E+02  0.68710490290E+02  0.75942274414E+02  0.00000000000E+00 0. -1.
         21    1    1    2  504  502  0.25558703834E+02 -0.19820449684E+02  0.81356984851E+02  0.87550308689E+02  0.00000000000E+00 0. -1.
</event>
<event>
 4    1  0.3048956E+006  0.2147766E+02  0.7546771E-02  0.1512553E+00
         21   -1    0    0  503  501  0.00000000000E+00  0.00000000000E+00  0.57752874526E+03  0.57752874526E+03  0.00000000000E+00 0.  1.
         21   -1    0    0  501  502 -0.00000000000E+00 -0.00000000000E+00 -0.29605723089E+01  0.29605723089E+01  0.00000000000E+00 0. -1.
         21    1    1    2  503  504  0.59126507575E+01 -0.20647774348E+02  0.53530501033E+03  0.53573570360E+03  0.00000000000E+00 0.  1.
         21    1    1    2  504  502 -0.59126507575E+01  0.20647774348E+02  0.39263162622E+02  0.44753613973E+02  0.00000000000E+00 0. -1.
</event>
<event>
 4    1  0.3048956E+006  0.2337973E+02  0.7546771E-02  0.1487784E+00
         21   -1    0    0  502  501  0.00000000000E+00  0.00000000000E+00  0.14330807464E+01  0.14330807464E+01  0.00000000000E+00 0. -1.
         21   -1    0    0  504  502 -0.00000000000E+00 -0.00000000000E+00 -0.71758366835E+03  0.71758366835E+03  0.00000000000E+00 0. -1.
         21    1    1    2  503  501 -0.11117470065E+02  0.20567293496E+02 -0.11201281128E+03  0.11442675209E+03  0.00000000000E+00 0. -1.
         21    1    1    2  504  503  0.11117470065E+02 -0.20567293496E+02 -0.60413777632E+03  0.60458999700E+03  0.00000000000E+00 0. -1.
</event>
<event>
 4    1  0.3048956E+006  0.3595934E+02  0.7546771E-02  0.1373941E+00
         21   -1    0    0  504  501  0.00000000000E+00  0.00000000000E+00  0.86147729338E+02  0.86147729338E+02  0.00000000000E+00 0. -1.
         21   -1    0    0  503  502 -0.00000000000E+00 -0.00000000000E+00 -0.15458674740E+02  0.15458674740E+02  0.00000000000E+00 0. -1.
         21    1    1    2  503  501  0.34323079218E+02  0.10723807721E+02  0.26689050821E+02  0.44781461039E+02  0.00000000000E+00 0. -1.
         21    1    1    2  504  502 -0.34323079218E+02 -0.10723807721E+02  0.44000003777E+02  0.56824943039E+02  0.00000000000E+00 0. -1.
</event>
<event>
 4    1  0.3048956E+006  0.2119160E+02  0.7546771E-02  0.1516547E+00
         21   -1    0    0  503  501  0.00000000000E+00  0.00000000000E+00  0.12555870934E+03  0.12555870934E+03  0.00000000000E+00 0.  1.
         21   -1    0    0  504  502 -0.00000000000E+00 -0.00000000000E+00 -0.11580558898E+02  0.11580558898E+02  0.00000000000E+00 0.  1.
         21    1    1    2  503  502 -0.21015435223E+02 -0.27267575754E+01  0.11399463837E+03  0.11594766622E+03  0.00000000000E+00 0.  1.
         21    1    1    2  504  501  0.21015435223E+02  0.27267575754E+01 -0.16487924166E-01  0.21191602024E+02  0.00000000000E+00 0.  1.
</event>
<event>
 4    1  0.3048956E+006  0.2023640E+02  0.7546771E-02  0.1530452E+00
         21   -1    0    0  504  501  0.00000000000E+00  0.00000000000E+00  0.11376070655E+02  0.11376070655E+02  0.00000000000E+00 0. -1.
         21   -1    0    0  501  502 -0.00000000000E+00 -0.00000000000E+00 -0.50829795091E+02  0.50829795091E+02  0.00000000000E+00 0. -1.
         21    1    1    2  503  502 -0.12236457034E+02  0.16117722833E+02 -0.36528207948E+02  0.41759092974E+02  0.00000000000E+00 0. -1.
         21    1    1    2  504  503  0.12236457034E+02 -0.16117722833E+02 -0.29255164886E+01  0.20446772772E+02  0.00000000000E+00 0. -1.
</event>
<event>
 4    1  0.3048956E+006  0.2343914E+02  0.7546771E-02  0.1487056E+00
         21   -1    0    0  504  501  0.00000000000E+00  0.00000000000E+00  0.26155637101E+02  0.26155637101E+02  0.00000000000E+00 0.  1.
         21   -1    0    0  503  502 -0.00000000000E+00 -0.00000000000E+00 -0.24957419005E+02  0.24957419005E+02  0.00000000000E+00 0. -1.
         21    1    1    2  503  501 -0.20273557393E+02 -0.11763346286E+02  0.10769684013E+02  0.25794951812E+02  0.00000000000E+00 0.  1.
         21    1    1    2  504  502  0.20273557393E+02  0.11763346286E+02 -0.95714659177E+01  0.25318104294E+02  0.00000000000E+00 0. -1.
</event>
<event>
 4    1  0.3048956E+006  0.4256391E+02  0.7546771E-02  0.1334083E+00
         21   -1    0    0  503  501  0.00000000000E+00  0.00000000000E+00  0.23269415289E+01  0.23269415289E+01  0.00000000000E+00 0.  1.
         21   -1    0    0  504  502 -0.00000000000E+00 -0.00000000000E+00 -0.10804367789E+04  0.10804367789E+04  0.00000000000E+00 0.  1.
         21    1    1    2  503  502 -0.28164465980E+02  0.31913147934E+02 -0.82521687785E+03  0.82631385178E+03  0.00000000000E+00 0.  1.
         21    1    1    2  504  501  0.28164465980E+02 -0.31913147934E+02 -0.25289295957E+03  0.25644986869E+03  0.00000000000E+00 0.  1.
</event>
<event>
 4    1  0.3048956E+006  0.2155112E+02  0.7546771E-02  0.1511540E+00
         21   -1    0    0  502  501  0.00000000000E+00  0.00000000000E+00  0.48326878283E+00  0.48326878283E+00  0.00000000000E+00 0.  1.
         21   -1    0    0  504  502 -0.00000000000E+00 -0.00000000000E+00 -0.18780758848E+04  0.18780758848E+04  0.00000000000E+00 0.  1.
         21    1    1    2  503  501 -0.11179266092E+02 -0.18424841186E+02 -0.28245987576E+03  0.28328083624E+03  0.00000000000E+00 0.  1.
         21    1    1    2  504  503  0.11179266092E+02  0.18424841186E+02 -0.15951327403E+04  0.15952783174E+04  0.00000000000E+00 0.  1.
</event>
<event>
 4    1  0.3048956E+006  0.2847606E+02  0.7546771E-02  0.1433319E+00
         21   -1    0    0  503  501  0.00000000000E+00  0.00000000000E+00  0.18501453341E+03  0.18501453341E+03  0.00000000000E+00 0. -1.
         21   -1    0    0  504  502 -0.00000000000E+00 -0.00000000000E+00 -0.47080176327E+01  0.47080176327E+01  0.00000000000E+00 0. -1.
         21    1    1    2  503  502  0.95287189491E+01 -0.26834485332E+02  0.11508433920E+03  0.11855501346E+03  0.00000000000E+00 0. -1.
         21    1    1    2  504  501 -0.95287189491E+01  0.26834485332E+02  0.65222176578E+02  0.71167537581E+02  0.00000000000E+00 0. -1.
</event>
<event>
 4    1  0.3048956E+006  0.2559212E+02  0.7546771E-02  0.1462287E+00
         21   -1    0    0  504  501  0.00000000000E+00  0.00000000000E+00  0.87925563531E+02  0.87925563531E+02  0.00000000000E+00 0.  1.
         21   -1    0    0  501  502 -0.00000000000E+00 -0.00000000000E+00 -0.31415617933E+02  0.31415617933E+02  0.00000000000E+00 0.  1.
         21    1    1    2  503  502 -0.64841664612E+01  0.24757061348E+02 -0.23863420109E+02  0.34991703597E+02  0.00000000000E+00 0.  1.
         21    1    1    2  504  503  0.64841664612E+01 -0.24757061348E+02  0.80373365707E+02  0.84349477867E+02  0.00000000000E+00 0.  1.
</event>
<event>
 4    1  0.3048956E+006  0.2487315E+02  0.7546771E-02  0.1470228E+00
         21   -1    0    0  504  501  0.00000000000E+00  0.00000000000E+00  0.42773946093E+03  0.42773946093E+03  0.00000000000E+00 0. -1.
         21   -1    0    0  501  502 -0.00000000000E+00 -0.00000000000E+00 -0.39434676450E+01  0.39434676450E+01  0.00000000000E+00 0.  1.
         21    1    1    2  503  502  0.91162232175E+01 -0.23142338951E+02  0.40141680492E+02  0.47223171120E+02  0.00000000000E+00 0.  1.
         21    1    1    2  504  503 -0.91162232175E+01  0.23142338951E+02  0.38365431279E+03  0.38445975745E+03  0.00000000000E+00 0. -1.
</event>
<event>
 4    1  0.3048956E+006  0.3073671E+02  0.7546771E-02  0.1413300E+00
         21   -1    0    0  503  501  0.00000000000E+00  0.00000000000E+00  0.32209587285E+02  0.32209587285E+02  0.00000000000E+00 0.  1.
         21   -1    0    0  501  502 -0.00000000000E+00 -0.00000000000E+00 -0.32848097231E+02  0.32848097231E+02  0.00000000000E+00 0.  1.
         21    1    1    2  503  504 -0.10807405582E+02  0.28774039879E+02  0.10324484084E+02  0.32424379068E+02  0.00000000000E+00 0.  1.
         21    1    1    2  504  502  0.10807405582E+02 -0.28774039879E+02 -0.10962994031E+02  0.32633305448E+02  0.00000000000E+00 0.  1.
</event>
<event>
 4    1  0.3048956E+006  0.4721607E+02  0.7546771E-02  0.1310716E+00
         21   -1    0    0  503  501  0.00000000000E+00  0.00000000000E+00  0.15496567333E+03  0.15496567333E+03  0.00000000000E+00 0.  1.
         21   -1    0    0  504  502 -0.00000000000E+00 -0.00000000000E+00 -0.46672557202E+02  0.46672557202E+02  0.00000000000E+00 0.  1.
         21    1    1    2  503  502  0.37324051947E+02  0.28918381539E+02  0.13800021758E+03  0.14585409729E+03  0.00000000000E+00 0.  1.
         21    1    1    2  504  501 -0.37324051947E+02 -0.28918381539E+02 -0.29707101454E+02  0.55784133240E+02  0.00000000000E+00 0.  1.
</event>
<event>
 4    1  0.3048956E+006  0.2297039E+02  0.7546771E-02  0.1492870E+00
         21   -1    0    0  504  501  0.00000000000E+00  0.00000000000E+00  0.62681780681E+02  0.62681780681E+02  0.00000000000E+00 0. -1.
         21   -1    0    0  503  502 -0.00000000000E+00 -0.00000000000E+00 -0.23672043101E+02  0.23672043101E+02  0.00000000000E+00 0.  1.
         21    1    1    2  503  501  0.22252190321E+02 -0.56990095018E+01  0.54164979715E+02  0.58834375249E+02  0.00000000000E+00 0. -1.
         21    1    1    2  504  502 -0.22252190321E+02  0.56990095018E+01 -0.15155242135E+02  0.27519448533E+02  0.00000000000E+00 0.  1.
</event>
<event>
 4    1  0.3048956E+006  0.2388099E+02  0.7546771E-02  0.1481722E+00
         21   -1    0    0  503  501  0.00000000000E+00  0.00000000000E+00  0.89154575069E+02  0.89154575069E+02  0.00000000000E+00 0. -1.
         21   -1    0    0  504  502 -0.00000000000E+00 -0.00000000000E+00 -0.37849537310E+02  0.37849537310E+02  0.00000000000E+00 0.  1.
         21    1    1    2  503  502  0.23874590972E+02 -0.55275967637E+00 -0.32235262665E+02  0.40117499877E+02  0.00000000000E+00 0.  1.
         21    1    1    2  504  501 -0.23874590972E+02  0.55275967637E+00  0.83540300423E+02  0.86886612502E+02  0.00000000000E+00 0. -1.
</event>
<event>
 4    1  0.3048956E+006  0.2679061E+02  0.7546771E-02  0.1449723E+00
         21   -1    0    0  504  501  0.00000000000E+00  0.00000000000E+00  0.70393116270E+00  0.70393116270E+00  0.00000000000E+00 0.  1.
         21   -1    0    0  503  502 -0.00000000000E+00 -0.00000000000E+00 -0.11596567827E+04  0.11596567827E+04  0.00000000000E+00 0.  1.
         21    1    1    2  503  501 -0.23961443235E+02  0.11982747401E+02 -0.37785763281E+03  0.37880618748E+03  0.00000000000E+00 0.  1.
         21    1    1    2  504  502  0.23961443235E+02 -0.11982747401E+02 -0.78109521877E+03  0.78155452643E+03  0.00000000000E+00 0.  1.
</event>
<event>
 4    1  0.3048956E+006  0.3121213E+02  0.7546771E-02  0.1409347E+00
         21   -1    0    0  502  501  0.00000000000E+00  0.00000000000E+00  0.10018709310E+03  0.10018709310E+03  0.00000000000E+00 0. -1.
         21   -1    0    0  503  502 -0.00000000000E+00 -0.00000000000E+00 -0.55184184541E+02  0.55184184541E+02  0.00000000000E+00 0. -1.
         21    1    1    2  503  504 -0.24063223253E+02  0.19878591951E+02 -0.48008442757E+02  0.57262620506E+02  0.00000000000E+00 0. -1.
         21    1    1    2  504  501  0.24063223253E+02 -0.19878591951E+02  0.93011351318E+02  0.98108657137E+02  0.00000000000E+00 0. -1.
</event>
<event>
 4    1  0.3048956E+006  0.3278930E+02  0.7546771E-02  0.1396809E+00
         21   -1    0    0  504  501  0.00000000000E+00  0.00000000000E+00  0.47003757478E+03  0.47003757478E+03  0.00000000000E+00 0.  1.
         21   -1    0    0  501  502 -0.00000000000E+00 -0.00000000000E+00 -0.83940449158E+01  0.83940449158E+01  0.00000000000E+00 0.  1.
         21    1    1    2  503  502 -0.15856115638E+02  0.28700554674E+02  0.26785430285E+02  0.42339077898E+02  0.00000000000E+00 0.  1.
         21    1    1    2  504  503  0.15856115638E+02 -0.28700554674E+02  0.43485809958E+03  0.43609254179E+03  0.00000000000E+00 0.  1.
</event>
<event>
 4    1  0.3048956E+006  0.2521673E+02  0.7546771E-02  0.1466393E+00
         21   -1    0    0  502  501  0.00000000000E+00  0.00000000000E+00  0.18211214311E+02  0.18211214311E+02  0.00000000000E+00 0.  1.
         21   -1    0    0  504  502 -0.00000000000E+00 -0.00000000000E+00 -0.28319448539E+03  0.28319448539E+03  0.00000000000E+00 0. -1.
         21    1    1    2  503  501  0.25122702782E+02 -0.21756460010E+01  0.86150563223E+01  0.26647754615E+02  0.00000000000E+00 0.  1.
         21    1    1    2  504  503 -0.25122702782E+02  0.21756460010E+01 -0.27359832740E+03  0.27475794509E+03  0.00000000000E+00 0. -1.
</event>
<event>
 4    1  0.3048956E+006  0.2046419E+02  0.7546771E-02  0.1527054E+00
         21   -1    0    0  503  501  0.00000000000E+00  0.00000000000E+00  0.70171197630E+02  0.70171197630E+02  0.00000000000E+00 0.  1.
         21   -1    0    0  504  502 -0.00000000000E+00 -0.00000000000E+00 -0.88616071451E+02  0.88616071451E+02  0.00000000000E+00 0.  1.
         21    1    1    2  503  502 -0.19445370095E+02 -0.63765728955E+01 -0.85896017918E+02  0.88300107555E+02  0.00000000000E+00 0.  1.
         21    1    1    2  504  501  0.19445370095E+02  0.63765728955E+01  0.67451144097E+02  0.70487161526E+02  0.00000000000E+00 0.  1.
</event>
<event>
 4    1  0.3048956E+006  0.2773087E+02  0.7546771E-02  0.1440401E+00
         21   -1    0    0  503  501  0.00000000000E+00  0.00000000000E+00  0.24852024070E+02  0.24852024070E+02  0.00000000000E+00 0.  1.
         21   -1    0    0  504  502 -0.00000000000E+00 -0.00000000000E+00 -0.32055735080E+02  0.32055735080E+02  0.00000000000E+00 0.  1.
         21    1    1    2  503  502  0.17755380457E+02  0.21301356497E+02 -0.89026884853E+01  0.29124889460E+02  0.00000000000E+00 0.  1.
         21    1    1    2  504  501 -0.17755380457E+02 -0.21301356497E+02  0.16989774756E+01  0.27782869690E+02  0.00000000000E+00 0.  1.
</event>
<event>
 4    1  0.3048956E+006  0.2944309E+02  0.7546771E-02  0.1424499E+00
         21   -1    0    0  502  501  0.00000000000E+00  0.00000000000E+00  0.30059826514E+02  0.30059826514E+02  0.00000000000E+00 0. -1.
         21   -1    0    0  503  502 -0.00000000000E+00 -0.00000000000E+00 -0.59512380705E+02  0.59512380705E+02  0.00000000000E+00 0. -1.
         21    1    1    2  503  504  0.30195124312E+01  0.29287847436E+02 -0.46879196457E+02  0.55358418720E+02  0.00000000000E+00 0. -1.
         21    1    1    2  504  501 -0.30195124312E+01 -0.29287847436E+02  0.17426642266E+02  0.34213788498E+02  0.00000000000E+00 0. -1.
</event>
<event>
 4    1  0.3048956E+006  0.3209660E+02  0.7546771E-02  0.1402211E+00
         21   -1    0    0  503  501  0.00000000000E+00  0.00000000000E+00  0.70309543992E+02  0.70309543992E+02  0.00000000000E+00 0.  1.
         21   -1    0    0  501  502 -0.00000000000E+00 -0.00000000000E+00 -0.10322646512E+03  0.10322646512E+03  0.00000000000E+00 0. -1.
         21    1    1    2  503  504 -0.16531414466E+02 -0.27511894385E+02  0.63915944989E+02  0.71522304359E+02  0.00000000000E+00 0.  1.
         21    1    1    2  504  502  0.16531414466E+02  0.27511894385E+02 -0.96832866118E+02  0.10201370475E+03  0.00000000000E+00 0. -1.
</event>
<event>
 4    1  0.3048956E+006  0.2301591E+02  0.7546771E-02  0.1492298E+00
         21   -1    0    0  503  501  0.00000000000E+00  0.00000000000E+00  0.23624494639E+02  0.23624494639E+02  0.00000000000E+00 0. -1.
         21   -1    0    0  504  502 -0.00000000000E+00 -0.00000000000E+00 -0.38465293301E+02  0.38465293301E+02  0.00000000000E+00 0. -1.
         21    1    1    2  503  502 -0.21201119493E+02 -0.89579401975E+01 -0.27469219289E+02  0.35836994415E+02  0.00000000000E+00 0. -1.
         21    1    1    2  504  501  0.21201119493E+02  0.89579401975E+01  0.12628420627E+02  0.26252793525E+02  0.00000000000E+00 0. -1.
</event>
<event>
 4    1  0.3048956E+006  0.3369226E+02  0.7546771E-02  0.1389998E+00
         21   -1    0    0  504  501  0.00000000000E+00  0.00000000000E+00  0.28392862617E+03  0.28392862617E+03  0.00000000000E+00 0.  1.
         21   -1    0    0  503  502 -0.00000000000E+00 -0.00000000000E+00 -0.79486548546E+01  0.79486548546E+01  0.00000000000E+00 0.  1.
         21    1    1    2  503  501 -0.23603971109E+02 -0.24042066779E+02  0.35104572716E+02  0.48656956879E+02  0.00000000000E+00 0.  1.
         21    1    1    2  504  502  0.23603971109E+02  0.24042066779E+02  0.24087539860E+03  0.24322032415E+03  0.00000000000E+00 0.  1.
</event>
<event>
 4    1  0.3048956E+006  0.2152185E+02  0.7546771E-02  0.1511943E+00
         21   -1    0    0  504  501  0.00000000000E+00  0.00000000000E+00  0.35166810971E+02  0.35166810971E+02  0.00000000000E+00 0.  1.
         21   -1    0    0  503  502 -0.00000000000E+00 -0.00000000000E+00 -0.36545501008E+02  0.36545501008E+02  0.00000000000E+00 0.  1.
         21    1    1    2  503  501  0.45362411966E+01  0.21038361096E+02 -0.29365162996E+02  0.36407456923E+02  0.00000000000E+00 0.  1.
         21    1    1    2  504  502 -0.45362411966E+01 -0.21038361096E+02  0.27986472960E+02  0.35304855056E+02  0.00000000000E+00 0.  1.
</event>
<event>
 4    1  0.3048956E+006  0.2358047E+02  0.7546771E-02  0.1485335E+00
         21   -1    0    0  504  501  0.00000000000E+00  0.00000000000E+00  0.50821923531E+01  0.50821923531E+01  0.00000000000E+00 0.  1.
         21   -1    0    0  503  502 -0.00000000000E+00 -0.00000000000E+00 -0.17925214274E+03  0.17925214274E+03  0.00000000000E+00 0.  1.
         21    1    1    2  503  501  0.15041996995E+02  0.18159759474E+02 -0.14461643127E+03  0.14652628000E+03  0.00000000000E+00 0.  1.
         21    1    1    2  504  502 -0.15041996995E+02 -0.18159759474E+02 -0.29553519124E+02  0.37808055099E+02  0.00000000000E+00 0.  1.
</event>
<event>
 4    1  0.3048956E+006  0.2468930E+02  0.7546771E-02  0.1472309E+00
         21   -1    0    0  503  501  0.00000000000E+00  0.00000000000E+00  0.23354765188E+03  0.23354765188E+03  0.00000000000E+00 0. -1.
         21   -1    0    0  504  502 -0.00000000000E+00 -0.00000000000E+00 -0.28404355359E+01  0.28404355359E+01  0.00000000000E+00 0. -1.
         21    1    1    2  503  502 -0.20403449601E+02 -0.13901833007E+02  0.81689401326E+02  0.85338854021E+02  0.00000000000E+00 0. -1.
         21    1    1    2  504  501  0.20403449601E+02  0.13901833007E+02  0.14901781502E+03  0.15104923339E+03  0.00000000000E+00 0. -1.
</event>
<event>
 4    1  0.3048956E+006  0.2463167E+02  0.7546771E-02  0.1472966E+00
         21   -1    0    0  502  501  0.00000000000E+00  0.00000000000E+00  0.86720614380E+01  0.86720614380E+01  0.00000000000E+00 0. -1.
         21   -1    0    0  503  502 -0.00000000000E+00 -0.00000000000E+00 -0.16850743714E+03  0.16850743714E+03  0.00000000000E+00 0. -1.
         21    1    1    2  503  504  0.18945974153E+02 -0.15740693730E+02 -0.14766483690E+03  0.14970512160E+03  0.00000000000E+00 0. -1.
         21    1    1    2  504  501 -0.18945974153E+02  0.15740693730E+02 -0.12170538800E+02  0.27474376979E+02  0.00000000000E+00 0. -1.
</event>
<event>
 4    1  0.3048956E+006  0.2645353E+02  0.7546771E-02  0.1453176E+00
         21   -1    0    0  503  501  0.00000000000E+00  0.00000000000E+00  0.11272503739E+01  0.11272503739E+01  0.00000000000E+00 0.  1.
         21   -1    0    0  504  502 -0.00000000000E+00 -0.00000000000E+00 -0.62469731719E+03  0.62469731719E+03  0.00000000000E+00 0.  1.
         21    1    1    2  503  502 -0.23457633650E+02  0.12228191994E+02 -0.28704759719E+03  0.28826396290E+03  0.00000000000E+00 0.  1.
         21    1    1    2  504  501  0.23457633650E+02 -0.12228191994E+02 -0.33652246963E+03  0.33756060466E+03  0.00000000000E+00 0.  1.
</event>
<event>
 4    1  0.3048956E+006  0.2124912E+02  0.7546771E-02  0.1515738E+00
         21   -1    0    0  504  501  0.00000000000E+00  0.00000000000E+00  0.37955868350E+02  0.37955868350E+02  0.00000000000E+00 0. -1.
         21   -1    0    0  501  502 -0.00000000000E+00 -0.00000000000E+00 -0.21478252805E+03  0.21478252805E+03  0.00000000000E+00 0.  1.
         21    1    1    2  503  502  0.10952884441E+02  0.18208775781E+02 -0.21123310517E+03  0.21229919904E+03  0.00000000000E+00 0.  1.
         21    1    1    2  504  503 -0.10952884441E+02 -0.18208775781E+02  0.34406445471E+02  0.40439197359E+02  0.00000000000E+00 0. -1.
</event>
<event>
 4    1  0.3048956E+006  0.2011673E+02  0.7546771E-02  0.1532259E+00
         21   -1    0    0  504  501  0.00000000000E+00  0.00000000000E+00  0.12854090921E+04  0.12854090921E+04  0.00000000000E+00 0. -1.
         21   -1    0    0  501  502 -0.00000000000E+00 -0.00000000000E+00 -0.35922073989E+01  0.35922073989E+01  0.00000000000E+00 0.  1.
         21    1    1    2  503  502  0.12926438361E+02  0.15413960428E+02  0.25297959078E+02  0.32321350811E+02  0.00000000000E+00 0.  1.
         21    1    1    2  504  503 -0.12926438361E+02 -0.15413960428E+02  0.12565189256E+04  0.12566799487E+04  0.00000000000E+00 0. -1.
</event>
<event>
 4    1  0.3048956E+006  0.2079845E+02  0.7546771E-02  0.1522162E+00
         21   -1    0    0  503  501  0.00000000000E+00  0.00000000000E+00  0.27940406806E+03  0.27940406806E+03  0.00000000000E+00 0.  1.
         21   -1    0    0  501  502 -0.00000000000E+00 -0.00000000000E+00 -0.69637254668E+02  0.69637254668E+02  0.00000000000E+00 0.  1.
         21    1    1    2  503  504 -0.23860586858E+01 -0.20661127048E+02  0.27745315198E+03  0.27823160674E+03  0.00000000000E+00 0.  1.
         21    1    1    2  504  502  0.23860586858E+01  0.20661127048E+02 -0.67686338587E+02  0.70809715987E+02  0.00000000000E+00 0.  1.
</event>
<event>
 4    1  0.3048956E+006  0.2418023E+02  0.7546771E-02  0.1478187E+00
         21   -1    0    0  503  501  0.00000000000E+00  0.00000000000E+00  0.67412352540E+02  0.67412352540E+02  0.00000000000E+00 0. -1.
         21   -1    0    0  504  502 -0.00000000000E+00 -0.00000000000E+00 -0.98284620263E+01  0.98284620263E+01  0.00000000000E+00 0. -1.
         21    1    1    2  503  502 -0.14947475806E+02  0.19006742270E+02  0.15551352344E+02  0.28749397287E+02  0.00000000000E+00 0. -1.
         21    1    1    2  504  501  0.14947475806E+02 -0.19006742270E+02  0.42032538170E+02  0.48491417278E+02  0.00000000000E+00 0. -1.
</event>
<event>
 4    1  0.3048956E+006  0.3936326E+02  0.7546771E-02  0.1352258E+00
         21   -1    0    0  503  501  0.00000000000E+00  0.00000000000E+00  0.30730950228E+02  0.30730950228E+02  0.00000000000E+00 0. -1.
         21   -1    0    0  504  502 -0.00000000000E+00 -0.00000000000E+00 -0.61090869167E+02  0.61090869167E+02  0.00000000000E+00 0. -1.
         21    1    1    2  503  502  0.35801099340E+02  0.16363001726E+02 -0.34367516258E+02  0.52255073564E+02  0.00000000000E+00 0. -1.
         21    1    1    2  504  501 -0.35801099340E+02 -0.16363001726E+02  0.40075973191E+01  0.39566745831E+02  0.00000000000E+00 0. -1.
</event>
<event>
 4    1  0.3048956E+006  0.3229940E+02  0.7546771E-02  0.1400613E+00
         21   -1    0    0  503  501  0.00000000000E+00  0.00000000000E+00  0.89572598006E+01  0.89572598006E+01  0.00000000000E+00 0. -1.
         21   -1    0    0  504  502 -0.00000000000E+00 -0.00000000000E+00 -0.17873400867E+03  0.17873400867E+03  0.00000000000E+00 0. -1.
         21    1    1    2  503  502 -0.28518120829E+02 -0.15164696506E+02 -0.29498633819E+02  0.43742663762E+02  0.00000000000E+00 0. -1.
         21    1    1    2  504  501  0.28518120829E+02  0.15164696506E+02 -0.14027811505E+03  0.14394860471E+03  0.00000000000E+00 0. -1.
</event>
<event>
 4    1  0.3048956E+006  0.2039712E+02  0.7546771E-02  0.1528049E+00
         21   -1    0    0  504  501  0.00000000000E+00  0.00000000000E+00  0.31330492471E+03  0.31330492471E+03  0.00000000000E+00 0.  1.
         21   -1    0    0  501  502 -0.00000000000E+00 -0.00000000000E+00 -0.44105026873E+01  0.44105026873E+01  0.00000000000E+00 0.  1.
         21    1    1    2  503  502 -0.74026630857E-01 -0.20396981037E+02  0.21639900886E+02  0.29737646607E+02  0.00000000000E+00 0.  1.
         21    1    1    2  504  503  0.74026630857E-01  0.20396981037E+02  0.28725452114E+03  0.28797778079E+03  0.00000000000E+00 0.  1.
</event>
<event>
 4    1  0.3048956E+006  0.2180456E+02  0.7546771E-02  0.1508081E+00
         21   -1    0    0  503  501  0.00000000000E+00  0.00000000000E+00  0.69502141589E+02  0.69502141589E+02  0.00000000000E+00 0.  1.
         21   -1    0    0  501  502 -0.00000000000E+00 -0.00000000000E+00 -0.27945731560E+02  0.27945731560E+02  0.00000000000E+00 0.  1.
         21    1    1    2  503  504 -0.11176824961E+02 -0.18722106211E+02  0.63120882342E+02  0.66780869003E+02  0.00000000000E+00 0.  1.
         21    1    1    2  504  502  0.11176824961E+02  0.18722106211E+02 -0.21564472313E+02  0.30667004147E+02  0.00000000000E+00 0.  1.
</event>
<event>
 4    1  0.3048956E+006  0.3466378E+02  0.7546771E-02  0.1382942E+00
         21   -1    0    0  503  501  0.00000000000E+00  0.00000000000E+00  0.42383631949E+02  0.42383631949E+02  0.00000000000E+00 0.  1.
         21   -1    0    0  504  502 -0.00000000000E+00 -0.00000000000E+00 -0.32411230889E+02  0.32411230889E+02  0.00000000000E+00 0.  1.
         21    1    1    2  503  502 -0.20332010008E+02 -0.28074668114E+02  0.18224151393E+02  0.39162447761E+02  0.00000000000E+00 0.  1.
         21    1    1    2  504  501  0.20332010008E+02  0.28074668114E+02 -0.82517503341E+01  0.35632415077E+02  0.00000000000E+00 0.  1.
</event>
<event>
 4    1  0.3048956E+006  0.2466472E+02  0.7546771E-02  0.1472589E+00
         21   -1    0    0  503  501  0.00000000000E+00  0.00000000000E+00  0.22642242808E+03  0.22642242808E+03  0.00000000000E+00 0.  1.
         21   -1    0    0  504  502 -0.00000000000E+00 -0.00000000000E+00 -0.10293328734E+02  0.10293328734E+02  0.00000000000E+00 0.  1.
         21    1    1    2  503  502 -0.24533859739E+02  0.25373374463E+01  0.63195822264E+01  0.25461450755E+02  0.00000000000E+00 0.  1.
         21    1    1    2  504  501  0.24533859739E+02 -0.25373374463E+01  0.20980951712E+03  0.21125430606E+03  0.00000000000E+00 0.  1.
</event>
<event>
 4    1  0.3048956E+006  0.5324743E+02  0.7546771E-02  0.1284675E+00
         21   -1    0    0  503  501  0.00000000000E+00  0.00000000000E+00  0.79918421143E+02  0.79918421143E+02  0.00000000000E+00 0. -1.
         21   -1    0    0  504  502 -0.00000000000E+00 -0.00000000000E+00 -0.35745267715E+02  0.35745267715E+02  0.00000000000E+00 0. -1.
         21    1    1    2  503  502 -0.27798099445E+01  0.53174818818E+02  0.27093952498E+02  0.59744212787E+02  0.00000000000E+00 0. -1.
         21    1    1    2  504  501  0.27798099445E+01 -0.53174818818E+02  0.17079200930E+02  0.55919476071E+02  0.00000000000E+00 0. -1.
</event>
<event>
 4    1  0.3048956E+006  0.2199243E+02  0.7546771E-02  0.1505553E+00
         21   -1    0    0  503  501  0.00000000000E+00  0.00000000000E+00  0.45964192136E+02  0.45964192136E+02  0.00000000000E+00 0. -1.
         21   -1    0    0  504  502 -0.00000000000E+00 -0.00000000000E+00 -0.10828092196E+02  0.10828092196E+02  0.00000000000E+00 0. -1.
         21    1    1    2  503  502 -0.43165834367E+01  0.21564649011E+02  0.22336957619E+02  0.31346557310E+02  0.00000000000E+00 0. -1.
         21    1    1    2  504  501  0.43165834367E+01 -0.21564649011E+02  0.12799142321E+02  0.25445727022E+02  0.00000000000E+00 0. -1.
</event>
<event>
 4    1  0.3048956E+006  0.2626622E+02  0.7546771E-02  0.1455122E+00
         21   -1    0    0  503  501  0.00000000000E+00  0.00000000000E+00  0.83523912811E+01  0.83523912811E+01  0.00000000000E+00 0. -1.
         21   -1    0    0  504  502 -0.00000000000E+00 -0.00000000000E+00 -0.16605734891E+03  0.16605734891E+03  0.00000000000E+00 0. -1.
         21    1    1    2  503  502  0.25458996178E+02  0.64617342655E+01 -0.14067430199E+03  0.14310546368E+03  0.00000000000E+00 0. -1.
         21    1    1    2  504  501 -0.25458996178E+02 -0.64617342655E+01 -0.17030655640E+02  0.31304276508E+02  0.00000000000E+00 0. -1.
</event>
<event>
 4    1  0.3048956E+006  0.2921516E+02  0.7546771E-02  0.1426541E+00
         21   -1    0    0  504  501  0.00000000000E+00  0.00000000000E+00  0.27929882436E+03  0.27929882436E+03  0.00000000000E+00 0. -1.
         21   -1    0    0  503  502 -0.00000000000E+00 -0.00000000000E+00 -0.34762263456E+01  0.34762263456E+01  0.00000000000E+00 0. -1.
         21    1    1    2  503  501  0.20971569839E+02  0.20340074331E+02  0.18707228857E+03  0.18933981757E+03  0.00000000000E+00 0. -1.
         21    1    1    2  504  502 -0.20971569839E+02 -0.20340074331E+02  0.88750309445E+02  0.93435233140E+02  0.00000000000E+00 0. -1.
</event>
<event>
 4    1  0.3048956E+006  0.2276752E+02  0.7546771E-02  0.1495438E+00
         21   -1    0    0  503  501  0.00000000000E+00  0.00000000000E+00  0.14265168076E+02  0.14265168076E+02  0.00000000000E+00 0.  1.
         21   -1    0    0  504  502 -0.00000000000E+00 -0.00000000000E+00 -0.82436934634E+02  0.82436934634E+02  0.00000000000E+00 0. -1.
         21    1    1    2  503  502 -0.18564643375E+02 -0.13180068586E+02  0.20711609908E+01  0.22861537557E+02  0.00000000000E+00 0.  1.
         21    1    1    2  504  501  0.18564643375E+02  0.13180068586E+02 -0.70242927548E+02  0.73840565153E+02  0.00000000000E+00 0. -1.
</event>
<event>
 4    1  0.3048956E+006  0.2133210E+02  0.7546771E-02  0.1514576E+00
         21   -1    0    0  503  501  0.00000000000E+00  0.00000000000E+00  0.86368624721E+02  0.86368624721E+02  0.00000000000E+00 0. -1.
         21   -1    0    0  504  502 -0.00000000000E+00 -0.00000000000E+00 -0.73987450385E+01  0.73987450385E+01  0.00000000000E+00 0. -1.
         21    1    1    2  503  502 -0.10205248960E+02  0.18732633489E+02  0.64640113189E+02  0.68069103835E+02  0.00000000000E+00 0. -1.
         21    1    1    2  504  501  0.10205248960E+02 -0.18732633489E+02  0.14329766494E+02  0.25698265925E+02  0.00000000000E+00 0. -1.
</event>
<event>
 4    1  0.3048956E+006  0.2447466E+02  0.7546771E-02  0.1474767E+00
         21   -1    0    0  503  501  0.00000000000E+00  0.00000000000E+00  0.55362791463E+02  0.55362791463E+02  0.00000000000E+00 0.  1.
         21   -1    0    0  501  502 -0.00000000000E+00 -0.00000000000E+00 -0.59666339077E+02  0.59666339077E+02  0.00000000000E+00 0.  1.
         21    1    1    2  503  504  0.11459541629E+02  0.21626088159E+02  0.49887411640E+02  0.55567640075E+02  0.00000000000E+00 0.  1.
         21    1    1    2  504  502 -0.11459541629E+02 -0.21626088159E+02 -0.54190959254E+02  0.59461490465E+02  0.00000000000E+00 0.  1.
</event>
<event>
 4    1  0.3048956E+006  0.3907890E+02  0.7546771E-02  0.1353970E+00
         21   -1    0    0  504  501  0.00000000000E+00  0.00000000000E+00  0.48877382329E+02  0.48877382329E+02  0.00000000000E+00 0.  1.
         21   -1    0    0  503  502 -0.00000000000E+00 -0.00000000000E+00 -0.69948467364E+02  0.69948467364E+02  0.00000000000E+00 0. -1.
         21    1    1    2  503  501  0.35557954033E+02  0.16210863326E+02  0.33658968443E+02  0.51576024871E+02  0.00000000000E+00 0.  1.
         21    1    1    2  504  502 -0.35557954033E+02 -0.16210863326E+02 -0.54730053478E+02  0.67249824822E+02  0.00000000000E+00 0. -1.
</event>
<event>
 4    1  0.3048956E+006  0.2454713E+02  0.7546771E-02  0.1473934E+00
         21   -1    0    0  504  501  0.00000000000E+00  0.00000000000E+00  0.10015424096E+02  0.10015424096E+02  0.00000000000E+00 0. -1.
         21   -1    0    0  501  502 -0.00000000000E+00 -0.00000000000E+00 -0.18555659053E+03  0.18555659053E+03  0.00000000000E+00 0. -1.
         21    1    1    2  503  502  0.16454388826E+02 -0.18215780364E+02 -0.16815568527E+03  0.16993791823E+03  0.00000000000E+00 0. -1.
         21    1    1    2  504  503 -0.16454388826E+02  0.18215780364E+02 -0.73854811708E+01  0.25634096396E+02  0.00000000000E+00 0. -1.
</event>
<event>
 4    1  0.3048956E+006  0.2634368E+02  0.7546771E-02  0.1454315E+00
         21   -1    0    0  503  501  0.00000000000E+00  0.00000000000E+00  0.90607919887E+02  0.90607919887E+02  0.00000000000E+00 0. -1.
         21   -1    0    0  504  502 -0.00000000000E+00 -0.00000000000E+00 -0.20874234792E+02  0.20874234792E+02  0.00000000000E+00 0.  1.
         21    1    1    2  503  502 -0.25216285230E+02 -0.76242103768E+01  0.79217824965E+02  0.83483252313E+02  0.00000000000E+00 0. -1.
         21    1    1    2  504  501  0.25216285230E+02  0.76242103768E+01 -0.94841398697E+01  0.27998902367E+02  0.00000000000E+00 0.  1.
</event>
<event>
 4    1  0.3048956E+006  0.2222381E+02  0.7546771E-02  0.1502482E+00
         21   -1    0    0  504  501  0.00000000000E+00  0.00000000000E+00  0.12097185829E+03  0.12097185829E+03  0.00000000000E+00 0. -1.
         21   -1    0    0  503  502 -0.00000000000E+00 -0.00000000000E+00 -0.10426014851E+02  0.10426014851E+02  0.00000000000E+00 0. -1.
         21    1    1    2  503  501  0.11178649380E+02 -0.19207691151E+02  0.10651841341E+03  0.10881208571E+03  0.00000000000E+00 0. -1.
         21    1    1    2  504  502 -0.11178649380E+02  0.19207691151E+02  0.40274300319E+01  0.22585787433E+02  0.00000000000E+00 0. -1.
</event>
<event>
 4    1  0.3048956E+006  0.2899215E+02  0.7546771E-02  0.1428561E+00
         21   -1    0    0  503  501  0.00000000000E+00  0.00000000000E+00  0.81929807497E+02  0.81929807497E+02  0.00000000000E+00 0.  1.
         21   -1    0    0  504  502 -0.00000000000E+00 -0.00000000000E+00 -0.23994827484E+02  0.23994827484E+02  0.00000000000E+00 0.  1.
         21    1    1    2  503  502  0.11416677437E+02  0.26649657456E+02  0.69038509626E+02  0.74878972867E+02  0.00000000000E+00 0.  1.
         21    1    1    2  504  501 -0.11416677437E+02 -0.26649657456E+02 -0.11103529613E+02  0.31045662114E+02  0.00000000000E+00 0.  1.
</event>
<event>
 4    1  0.3048956E+006  0.2299311E+02  0.7546771E-02  0.1492585E+00
         21   -1    0    0  502  501  0.00000000000E+00  0.00000000000E+00  0.24805719342E+02  0.24805719342E+02  0.00000000000E+00 0. -1.
         21   -1    0    0  503  502 -0.00000000000E+00 -0.00000000000E+00 -0.66530852406E+03  0.66530852406E+03  0.00000000000E+00 0. -1.
         21    1    1    2  503  504  0.69408269845E+01  0.21920489577E+02 -0.65973664029E+03  0.66013719596E+03  0.00000000000E+00 0. -1.
         21    1    1    2  504  501 -0.69408269845E+01 -0.21920489577E+02  0.19233835574E+02  0.29977047444E+02  0.00000000000E+00 0. -1.
</event>
<event>
 4    1  0.3048956E+006  0.2018758E+02  0.7546771E-02  0.1531187E+00
         21   -1    0    0  502  501  0.00000000000E+00  0.00000000000E+00  0.60693720429E+00  0.60693720429E+00  0.00000000000E+00 0. -1.
         21   -1    0    0  503  502 -0.00000000000E+00 -0.00000000000E+00 -0.68417551583E+03  0.68417551583E+03  0.00000000000E+00 0.  1.
         21    1    1    2  503  504 -0.88518741417E+01 -0.18143391680E+02 -0.29511992746E+03  0.29580958389E+03  0.00000000000E+00 0. -1.
         21    1    1    2  504  501  0.88518741417E+01  0.18143391680E+02 -0.38844865117E+03  0.38897286915E+03  0.00000000000E+00 0.  1.
</event>
<event>
 4    1  0.3048956E+006  0.2041207E+02  0.7546771E-02  0.1527827E+00
         21   -1    0    0  502  501  0.00000000000E+00  0.00000000000E+00  0.22114266827E+02  0.22114266827E+02  0.00000000000E+00 0.  1.
         21   -1    0    0  503  502 -0.00000000000E+00 -0.00000000000E+00 -0.43146229942E+02  0.43146229942E+02  0.00000000000E+00 0. -1.
         21    1    1    2  503  504 -0.18133679366E+02  0.93713449972E+01 -0.35006603630E+02  0.40523014845E+02  0.00000000000E+00 0. -1.
         21    1    1    2  504  501  0.18133679366E+02 -0.93713449972E+01  0.13974640515E+02  0.24737481924E+02  0.00000000000E+00 0.  1.
</event>
<event>
 4    1  0.3048956E+006  0.2054344E+02  0.7546771E-02  0.1525884E+00
         21   -1    0    0  503  501  0.00000000000E+00  0.00000000000E+00  0.43026006676E+01  0.43026006676E+01  0.00000000000E+00 0.  1.
         21   -1    0    0  501  502 -0.00000000000E+00 -0.00000000000E+00 -0.17969549560E+03  0.17969549560E+03  0.00000000000E+00 0.  1.
         21    1    1    2  503  504  0.23633606954E+01  0.20407046994E+02 -0.25698109942E+02  0.32900241570E+02  0.00000000000E+00 0.  1.
         21    1    1    2  504  502 -0.23633606954E+01 -0.20407046994E+02 -0.14969478499E+03  0.15109785470E+03  0.00000000000E+00 0.  1.
</event>
<event>
 4    1  0.3048956E+006  0.2407827E+02  0.7546771E-02  0.1479385E+00
         21   -1    0    0  503  501  0.00000000000E+00  0.00000000000E+00  0.82710642810E+02  0.82710642810E+02  0.00000000000E+00 0.  1.
         21   -1    0    0  504  502 -0.00000000000E+00 -0.00000000000E+00 -0.87730536020E+02  0.87730536020E+02  0.00000000000E+00 0.  1.
         21    1    1    2  503  502 -0.21035710313E+02  0.11715891150E+02 -0.84255174597E+02  0.87628178460E+02  0.00000000000E+00 0.  1.
         21    1    1    2  504  501  0.21035710313E+02 -0.11715891150E+02  0.79235281387E+02  0.82813000371E+02  0.00000000000E+00 0.  1.
</event>
<event>
 4    1  0.3048956E+006  0.2872969E+02  0.7546771E-02  0.1430966E+00
         21   -1    0    0  502  501  0.00000000000E+00  0.00000000000E+00  0.45728424492E+02  0.45728424492E+02  0.00000000000E+00 0.  1.
         21   -1    0    0  503  502 -0.00000000000E+00 -0.00000000000E+00 -0.23883134833E+02  0.23883134833E+02  0.00000000000E+00 0.  1.
         21    1    1    2  503  504  0.28652477645E+02 -0.21049148794E+01 -0.62785686677E+01  0.29407746707E+02  0.00000000000E+00 0.  1.
         21    1    1    2  504  501 -0.28652477645E+02  0.21049148794E+01  0.28123858327E+02  0.40203812618E+02  0.00000000000E+00 0.  1.
</event>
<event>
 4    1  0.3048956E+006  0.2010453E+02  0.7546771E-02  0.1532444E+00
         21   -1    0    0  503  501  0.00000000000E+00  0.00000000000E+00  0.37678767789E+03  0.37678767789E+03  0.00000000000E+00 0. -1.
         21   -1    0    0  504  502 -0.00000000000E+00 -0.00000000000E+00 -0.15757405545E+01  0.15757405545E+01  0.00000000000E+00 0. -1.
         21    1    1    2  503  502  0.16339948254E+02 -0.11713166790E+02  0.80719066515E+02  0.83185094123E+02  0.00000000000E+00 0. -1.
         21    1    1    2  504  501 -0.16339948254E+02  0.11713166790E+02  0.29449287082E+03  0.29517832432E+03  0.00000000000E+00 0. -1.
</event>
<event>
 4    1  0.3048956E+006  0.2063700E+02  0.7546771E-02  0.1524511E+00
         21   -1    0    0  503  501  0.00000000000E+00  0.00000000000E+00  0.79956646907E+01  0.79956646907E+01  0.00000000000E+00 0.  1.
         21   -1    0    0  504  502 -0.00000000000E+00 -0.00000000000E+00 -0.53964028834E+02  0.53964028834E+02  0.00000000000E+00 0. -1.
         21    1    1    2  503  502 -0.20618972985E+02 -0.86243032391E+00 -0.26511143658E+02  0.33596526176E+02  0.00000000000E+00 0. -1.
         21    1    1    2  504  501  0.20618972985E+02  0.86243032391E+00 -0.19457220485E+02  0.28363167348E+02  0.00000000000E+00 0.  1.
</event>
<event>
 4    1  0.3048956E+006  0.2023957E+02  0.7546771E-02  0.1530404E+00
         21   -1    0    0  503  501  0.00000000000E+00  0.00000000000E+00  0.36977501672E+02  0.36977501672E+02  0.00000000000E+00 0. -1.
         21   -1    0    0  504  502 -0.00000000000E+00 -0.00000000000E+00 -0.12338129091E+02  0.12338129091E+02  0.00000000000E+00 0. -1.
         21    1    1    2  503  502 -0.18010184288E+02 -0.92343717398E+01  0.44397863650E+01  0.20720812302E+02  0.00000000000E+00 0. -1.
         21    1    1    2  504  501  0.18010184288E+02  0.92343717398E+01  0.20199586216E+02  0.28594818460E+02  0.00000000000E+00 0. -1.
</event>
<event>
 4    1  0.3048956E+006  0.2015768E+02  0.7546771E-02  0.1531639E+00
         21   -1    0    0  503  501  0.00000000000E+00  0.00000000000E+00  0.90283056425E+01  0.90283056425E+01  0.00000000000E+00 0. -1.
         21   -1    0    0  504  502 -0.00000000000E+00 -0.00000000000E+00 -0.93625005220E+02  0.93625005220E+02  0.00000000000E+00 0. -1.
         21    1    1    2  503  502 -0.19751946669E+02  0.40239872276E+01 -0.79285265698E+02  0.81807611059E+02  0.00000000000E+00 0. -1.
         21    1    1    2  504  501  0.19751946669E+02 -0.40239872276E+01 -0.53114338794E+01  0.20845699803E+02  0.00000000000E+00 0. -1.
</event>
<event>
 4    1  0.3048956E+006  0.2662254E+02  0.7546771E-02  0.1451437E+00
         21   -1    0    0  504  501  0.00000000000E+00  0.00000000000E+00  0.52161411041E+01  0.52161411041E+01  0.00000000000E+00 0. -1.
         21   -1    0    0  501  502 -0.00000000000E+00 -0.00000000000E+00 -0.22420965031E+03  0.22420965031E+03  0.00000000000E+00 0. -1.
         21    1    1    2  503  502 -0.19484361939E+02 -0.18141640155E+02 -0.18149848927E+03  0.18344062003E+03  0.00000000000E+00 0. -1.
         21    1    1    2  504  503  0.19484361939E+02  0.18141640155E+02 -0.37495019935E+02  0.45985171389E+02  0.00000000000E+00 0. -1.
</event>
<event>
 4    1  0.3048956E+006  0.2957303E+02  0.7546771E-02  0.1423344E+00
         21   -1    0    0  503  501  0.00000000000E+00  0.00000000000E+00  0.47387942253E+03  0.47387942253E+03  0.00000000000E+00 0.  1.
         21   -1    0    0  504  502 -0.00000000000E+00 -0.00000000000E+00 -0.20650134106E+02  0.20650134106E+02  0.00000000000E+00 0.  1.
         21    1    1    2  503  502  0.91502005924E+01 -0.28121842128E+02 -0.93423108188E+01  0.31013592939E+02  0.00000000000E+00 0.  1.
         21    1    1    2  504  501 -0.91502005924E+01  0.28121842128E+02  0.46257159924E+03  0.46351596369E+03  0.00000000000E+00 0.  1.
</event>
<event>
 4    1  0.3048956E+006  0.2059281E+02  0.7546771E-02  0.1525159E+00
         21   -1    0    0  502  501  0.00000000000E+00  0.00000000000E+00  0.37165234560E+02  0.37165234560E+02  0.00000000000E+00 0.  1.
         21   -1    0    0  503  502 -0.00000000000E+00 -0.00000000000E+00 -0.27591845106E+03  0.27591845106E+03  0.00000000000E+00 0.  1.
         21    1    1    2  503  504 -0.19021300629E+02 -0.78901274278E+01 -0.27264748976E+03  0.27342406197E+03  0.00000000000E+00 0.  1.
         21    1    1    2  504  501  0.19021300629E+02  0.78901274278E+01  0.33894273262E+02  0.39659623654E+02  0.00000000000E+00 0.  1.
</event>
<event>
 4    1  0.3048956E+006  0.3005014E+02  0.7546771E-02  0.1419161E+00
         21   -1    0    0  503  501  0.00000000000E+00  0.00000000000E+00  0.10157166634E+02  0.10157166634E+02  0.00000000000E+00 0. -1.
         21   -1    0    0  504  502 -0.00000000000E+00 -0.00000000000E+00 -0.15828483323E+03  0.15828483323E+03  0.00000000000E+00 0. -1.
         21    1    1    2  503  502 -0.24773676026E+02 -0.17008118951E+02 -0.18304060810E+02  0.35185931510E+02  0.00000000000E+00 0. -1.
         21    1    1    2  504  501  0.24773676026E+02  0.17008118951E+02 -0.12982360579E+03  0.13325606836E+03  0.00000000000E+00 0. -1.
</event>
<event>
 4    1  0.3048956E+006  0.2173065E+02  0.7546771E-02  0.1509084E+00
         21   -1    0    0  503  501  0.00000000000E+00  0.00000000000E+00  0.18503116640E+03  0.18503116640E+03  0.00000000000E+00 0. -1.
         21   -1    0    0  504  502 -0.00000000000E+00 -0.00000000000E+00 -0.37899162438E+01  0.37899162438E+01  0.00000000000E+00 0. -1.
         21    1    1    2  503  502 -0.84404576826E+01 -0.20024481372E+02  0.36665737364E+02  0.42621561170E+02  0.00000000000E+00 0. -1.
         21    1    1    2  504  501  0.84404576826E+01  0.20024481372E+02  0.14457551279E+03  0.14619952147E+03  0.00000000000E+00 0. -1.
</event>
<event>
 4    1  0.3048956E+006  0.2330726E+02  0.7546771E-02  0.1488675E+00
         21   -1    0    0  503  501  0.00000000000E+00  0.00000000000E+00  0.14718468480E+01  0.14718468480E+01  0.00000000000E+00 0. -1.
         21   -1    0    0  504  502 -0.00000000000E+00 -0.00000000000E+00 -0.44884943429E+03  0.44884943429E+03  0.00000000000E+00 0.  1.
         21    1    1    2  503  502 -0.15769042406E+02  0.17162914486E+02 -0.12876784729E+03  0.13086018045E+03  0.00000000000E+00 0. -1.
         21    1    1    2  504  501  0.15769042406E+02 -0.17162914486E+02 -0.31860974015E+03  0.31946110069E+03  0.00000000000E+00 0.  1.
</event>
<event>
 4    1  0.3048956E+006  0.2116585E+02  0.7546771E-02  0.1516910E+00
         21   -1    0    0  502  501  0.00000000000E+00  0.00000000000E+00  0.39621442696E+01  0.39621442696E+01  0.00000000000E+00 0.  1.
         21   -1    0    0  503  502 -0.00000000000E+00 -0.00000000000E+00 -0.38695219605E+03  0.38695219605E+03  0.00000000000E+00 0.  1.
         21    1    1    2  503  504  0.61702622760E+00 -0.21156849558E+02 -0.35593453813E+03  0.35656330215E+03  0.00000000000E+00 0.  1.
         21    1    1    2  504  501 -0.61702622760E+00  0.21156849558E+02 -0.27055513648E+02  0.34351038170E+02  0.00000000000E+00 0.  1.
</event>
<event>
 4    1  0.3048956E+006  0.3715074E+02  0.7546771E-02  0.1366043E+00
         21   -1    0    0  504  501  0.00000000000E+00  0.00000000000E+00  0.76713650765E+02  0.76713650765E+02  0.00000000000E+00 0. -1.
         21   -1    0    0  503  502 -0.00000000000E+00 -0.00000000000E+00 -0.66299740386E+02  0.66299740386E+02  0.00000000000E+00 0. -1.
         21    1    1    2  503  501 -0.30336406127E+02  0.21444804500E+02  0.66245246799E+02  0.75951365361E+02  0.00000000000E+00 0. -1.
         21    1    1    2  504  502  0.30336406127E+02 -0.21444804500E+02 -0.55831336419E+02  0.67062025790E+02  0.00000000000E+00 0. -1.
</event>
<event>
 4    1  0.3048956E+006  0.2303241E+02  0.7546771E-02  0.1492092E+00
         21   -1    0    0  504  501  0.00000000000E+00  0.00000000000E+00  0.20585643421E+03  0.20585643421E+03  0.00000000000E+00 0.  1.
         21   -1    0    0  503  502 -0.00000000000E+00 -0.00000000000E+00 -0.24982972214E+02  0.24982972214E+02  0.00000000000E+00 0.  1.
         21    1    1    2  503  501  0.17063032000E+02  0.15470775690E+02 -0.18868211615E+02  0.29774172885E+02  0.00000000000E+00 0.  1.
         21    1    1    2  504  502 -0.17063032000E+02 -0.15470775690E+02  0.19974167361E+03  0.20106523354E+03  0.00000000000E+00 0.  1.
</event>
<event>
 4    1  0.3048956E+006  0.2018078E+02  0.7546771E-02  0.1531290E+00
         21   -1    0    0  503  501  0.00000000000E+00  0.00000000000E+00  0.15820055609E+03  0.15820055609E+03  0.00000000000E+00 0.  1.
         21   -1    0    0  504  502 -0.00000000000E+00 -0.00000000000E+00 -0.10603293893E+03  0.10603293893E+03  0.00000000000E+00 0.  1.
         21    1    1    2  503  502  0.79786780073E+01 -0.18536578041E+02  0.15658688325E+03  0.15788196867E+03  0.00000000000E+00 0.  1.
         21    1    1    2  504  501 -0.79786780073E+01  0.18536578041E+02 -0.10441926608E+03  0.10635152635E+03  0.00000000000E+00 0.  1.
</event>
<event>
 4    1  0.3048956E+006  0.5213697E+02  0.7546771E-02  0.1289164E+00
         21   -1    0    0  504  501  0.00000000000E+00  0.00000000000E+00  0.72949775244E+03  0.72949775244E+03  0.00000000000E+00 0.  1.
         21   -1    0    0  503  502 -0.00000000000E+00 -0.00000000000E+00 -0.21149256712E+02  0.21149256712E+02  0.00000000000E+00 0.  1.
         21    1    1    2  503  501  0.50428445167E+02 -0.13237646940E+02  0.69483353430E+03  0.69678684241E+03  0.00000000000E+00 0.  1.
         21    1    1    2  504  502 -0.50428445167E+02  0.13237646940E+02  0.13514961431E+02  0.53860166737E+02  0.00000000000E+00 0.  1.
</event>
<event>
 4    1  0.3048956E+006  0.2698912E+02  0.7546771E-02  0.1447717E+00
         21   -1    0    0  503  501  0.00000000000E+00  0.00000000000E+00  0.92158297998E+03  0.92158297998E+03  0.00000000000E+00 0. -1.
         21   -1    0    0  504  502 -0.00000000000E+00 -0.00000000000E+00 -0.88919766684E+00  0.88919766684E+00  0.00000000000E+00 0. -1.
         21    1    1    2  503  502 -0.25918116029E+02  0.75275557569E+01  0.61409600423E+03  0.61468879544E+03  0.00000000000E+00 0. -1.
         21    1    1    2  504  501  0.25918116029E+02 -0.75275557569E+01  0.30659777808E+03  0.30778338220E+03  0.00000000000E+00 0. -1.
</event>
<event>
 4    1  0.3048956E+006  0.2125760E+02  0.7546771E-02  0.1515619E+00
         21   -1    0    0  503  501  0.00000000000E+00  0.00000000000E+00  0.36386249347E+02  0.36386249347E+02  0.00000000000E+00 0.  1.
         21   -1    0    0  504  502 -0.00000000000E+00 -0.00000000000E+00 -0.36844877709E+02  0.36844877709E+02  0.00000000000E+00 0.  1.
         21    1    1    2  503  502  0.18478188419E+02  0.10509150545E+02 -0.30041997312E+02  0.36802272959E+02  0.00000000000E+00 0.  1.
         21    1    1    2  504  501 -0.18478188419E+02 -0.10509150545E+02  0.29583368950E+02  0.36428854097E+02  0.00000000000E+00 0.  1.
</event>
<event>
 4    1  0.3048956E+006  0.2760495E+02  0.7546771E-02  0.1441624E+00
         21   -1    0    0  502  501  0.00000000000E+00  0.00000000000E+00  0.98199058159E+03  0.98199058159E+03  0.00000000000E+00 0. -1.
         21   -1    0    0  504  502 -0.00000000000E+00 -0.00000000000E+00 -0.42792348747E+01  0.42792348747E+01  0.00000000000E+00 0. -1.
         21    1    1    2  503  501 -0.26212377274E+02 -0.86570495754E+01  0.93504253024E+03  0.93544992735E+03  0.00000000000E+00 0. -1.
         21    1    1    2  504  503  0.26212377274E+02  0.86570495754E+01  0.42668816471E+02  0.50819889106E+02  0.00000000000E+00 0. -1.
</event>
<event>
 4    1  0.3048956E+006  0.2176929E+02  0.7546771E-02  0.1508559E+00
         21   -1    0    0  503  501  0.00000000000E+00  0.00000000000E+00  0.51205043069E+02  0.51205043069E+02  0.00000000000E+00 0. -1.
         21   -1    0    0  504  502 -0.00000000000E+00 -0.00000000000E+00 -0.12907475434E+02  0.12907475434E+02  0.00000000000E+00 0. -1.
         21    1    1    2  503  502  0.19388235754E+02  0.98994107639E+01  0.36201226556E+02  0.42242523874E+02  0.00000000000E+00 0. -1.
         21    1    1    2  504  501 -0.19388235754E+02 -0.98994107639E+01  0.20963410788E+01  0.21869994628E+02  0.00000000000E+00 0. -1.
</event>
<event>
 4    1  0.3048956E+006  0.2259414E+02  0.7546771E-02  0.1497658E+00
         21   -1    0    0  503  501  0.00000000000E+00  0.00000000000E+00  0.20773799163E+02  0.20773799163E+02  0.00000000000E+00 0. -1.
         21   -1    0    0  504  502 -0.00000000000E+00 -0.00000000000E+00 -0.28667000647E+02  0.28667000647E+02  0.00000000000E+00 0. -1.
         21    1    1    2  503  502  0.21383406320E+02 -0.72969261009E+01  0.53942329333E+01  0.23229140004E+02  0.00000000000E+00 0. -1.
         21    1    1    2  504  501 -0.21383406320E+02  0.72969261009E+01 -0.13287434417E+02  0.26211659806E+02  0.00000000000E+00 0. -1.
</event>
<event>
 4    1  0.3048956E+006  0.2849383E+02  0.7546771E-02  0.1433153E+00
         21   -1    0    0  504  501  0.00000000000E+00  0.00000000000E+00  0.40180153567E+02  0.40180153567E+02  0.00000000000E+00 0.  1.
         21   -1    0    0  503  502 -0.00000000000E+00 -0.00000000000E+00 -0.45528235292E+02  0.45528235292E+02  0.00000000000E+00 0.  1.
         21    1    1    2  503  501  0.16507494864E+02  0.23225010517E+02  0.29285463664E+02  0.40859966743E+02  0.00000000000E+00 0.  1.
         21    1    1    2  504  502 -0.16507494864E+02 -0.23225010517E+02 -0.34633545388E+02  0.44848422117E+02  0.00000000000E+00 0.  1.
</event>
<event>
 4    1  0.3048956E+006  0.3644856E+02  0.7546771E-02  0.1370656E+00
         21   -1    0    0  504  501  0.00000000000E+00  0.00000000000E+00  0.35579110303E+03  0.35579110303E+03  0.00000000000E+00 0. -1.
         21   -1    0    0  501  502 -0.00000000000E+00 -0.00000000000E+00 -0.17759197518E+02  0.17759197518E+02  0.00000000000E+00 0. -1.
         21    1    1    2  503  502 -0.64888148621E+01 -0.35866318789E+02  0.30331593472E+01  0.36574548493E+02  0.00000000000E+00 0. -1.
         21    1    1    2  504  503  0.64888148621E+01  0.35866318789E+02  0.33499874616E+03  0.33697575205E+03  0.00000000000E+00 0. -1.
</event>
<event>
 4    1  0.3048956E+006  0.4529343E+02  0.7546771E-02  0.1319979E+00
         21   -1    0    0  504  501  0.00000000000E+00  0.00000000000E+00  0.18188296780E+02  0.18188296780E+02  0.00000000000E+00 0. -1.
         21   -1    0    0  503  502 -0.00000000000E+00 -0.00000000000E+00 -0.33468396559E+03  0.33468396559E+03  0.00000000000E+00 0.  1.
         21    1    1    2  503  501 -0.43581263162E+02 -0.12335669296E+02 -0.14586195969E+02  0.47584160691E+02  0.00000000000E+00 0. -1.
         21    1    1    2  504  502  0.43581263162E+02  0.12335669296E+02 -0.30190947285E+03  0.30528810168E+03  0.00000000000E+00 0.  1.
</event>
<event>
 4    1  0.3048956E+006  0.5149925E+02  0.7546771E-02  0.1291800E+00
         21   -1    0    0  503  501  0.00000000000E+00  0.00000000000E+00  0.37717817706E+03  0.37717817706E+03  0.00000000000E+00 0.  1.
         21   -1    0    0  501  502 -0.00000000000E+00 -0.00000000000E+00 -0.23471973574E+02  0.23471973574E+02  0.00000000000E+00 0.  1.
         21    1    1    2  503  504 -0.46487762481E+02  0.22159885567E+02  0.34450795256E+03  0.34833590392E+03  0.00000000000E+00 0.  1.
         21    1    1    2  504  502  0.46487762481E+02 -0.22159885567E+02  0.91982509334E+01  0.52314246713E+02  0.00000000000E+00 0.  1.
</event>
<event>
 4    1  0.3048956E+006  0.2867689E+02  0.7546771E-02  0.1431454E+00
         21   -1    0    0  503  501  0.00000000000E+00  0.00000000000E+00  0.52267289501E+01  0.52267289501E+01  0.00000000000E+00 0.  1.
         21   -1    0    0  504  502 -0.00000000000E+00 -0.00000000000E+00 -0.26859733739E+03  0.26859733739E+03  0.00000000000E+00 0.  1.
         21    1    1    2  503  502  0.26546908380E+02 -0.10845541427E+02 -0.21980208386E+03  0.22166488261E+03  0.00000000000E+00 0.  1.
         21    1    1    2  504  501 -0.26546908380E+02  0.10845541427E+02 -0.43568524586E+02  0.52159183736E+02  0.00000000000E+00 0.  1.
</event>
<event>
 4    1  0.3048956E+006  0.2175843E+02  0.7546771E-02  0.1508706E+00
         21   -1    0    0  504  501  0.00000000000E+00  0.00000000000E+00  0.16456518371E+03  0.16456518371E+03  0.00000000000E+00 0. -1.
         21   -1    0    0  503  502 -0.00000000000E+00 -0.00000000000E+00 -0.29190952575E+01  0.29190952575E+01  0.00000000000E+00 0. -1.
         21    1    1    2  503  501  0.11113032707E+02 -0.18706408840E+02  0.90897293268E+02  0.93465218937E+02  0.00000000000E+00 0. -1.
         21    1    1    2  504  502 -0.11113032707E+02  0.18706408840E+02  0.70748795187E+02  0.74019060032E+02  0.00000000000E+00 0. -1.
</event>
<event>
 4    1  0.3048956E+006  0.3600562E+02  0.7546771E-02  0.1373628E+00
         21   -1    0    0  504  501  0.00000000000E+00  0.00000000000E+00  0.43643056135E+02  0.43643056135E+02  0.00000000000E+00 0.  1.
         21   -1    0    0  503  502 -0.00000000000E+00 -0.00000000000E+00 -0.41813178367E+02  0.41813178367E+02  0.00000000000E+00 0. -1.
         21    1    1    2  503  501  0.35983865635E+02 -0.12514426110E+01  0.23908255550E+02  0.43220474061E+02  0.00000000000E+00 0.  1.
         21    1    1    2  504  502 -0.35983865635E+02  0.12514426110E+01 -0.22078377781E+02  0.42235760441E+02  0.00000000000E+00 0. -1.
</event>
<event>
 4    1  0.3048956E+006  0.4354521E+02  0.7546771E-02  0.1328876E+00
         21   -1    0    0  503  501  0.00000000000E+00  0.00000000000E+00  0.10782589566E+04  0.10782589566E+04  0.00000000000E+00 0.  1.
         21   -1    0    0  501  502 -0.00000000000E+00 -0.00000000000E+00 -0.58510512236E+01  0.58510512236E+01  0.00000000000E+00 0.  1.
         21    1    1    2  503  504  0.10509264545E+02  0.42258027126E+02  0.98953990931E+03  0.99049756063E+03  0.00000000000E+00 0.  1.
         21    1    1    2  504  502 -0.10509264545E+02 -0.42258027126E+02  0.82867996085E+02  0.93612447212E+02  0.00000000000E+00 0.  1.
</event>
<event>
 4    1  0.3048956E+006  0.2045133E+02  0.7546771E-02  0.1527245E+00
         21   -1    0    0  503  501  0.00000000000E+00  0.00000000000E+00  0.66833519956E+03  0.66833519956E+03  0.00000000000E+00 0. -1.
         21   -1    0    0  504  502 -0.00000000000E+00 -0.00000000000E+00 -0.24859613897E+01  0.24859613897E+01  0.00000000000E+00 0. -1.
         21    1    1    2  503  502 -0.17843325505E+02  0.99936294442E+01  0.42787924773E+02  0.47424291254E+02  0.00000000000E+00 0. -1.
         21    1    1    2  504  501  0.17843325505E+02 -0.99936294442E+01  0.62306131340E+03  0.62339686970E+03  0.00000000000E+00 0. -1.
</event>
<event>
 4    1  0.3048956E+006  0.2526884E+02  0.7546771E-02  0.1465818E+00
         21   -1    0    0  504  501  0.00000000000E+00  0.00000000000E+00  0.15315267148E+02  0.15315267148E+02  0.00000000000E+00 0. -1.
         21   -1    0    0  501  502 -0.00000000000E+00 -0.00000000000E+00 -0.12089279605E+03  0.12089279605E+03  0.00000000000E+00 0.  1.
         21    1    1    2  503  502 -0.24845087029E+02  0.46082217102E+01 -0.10791256913E+03  0.11083156876E+03  0.00000000000E+00 0.  1.
         21    1    1    2  504  503  0.24845087029E+02 -0.46082217102E+01  0.23350402365E+01  0.25376494434E+02  0.00000000000E+00 0. -1.
</event>
<event>
 4    1  0.3048956E+006  0.2064526E+02  0.7546771E-02  0.1524390E+00
         21   -1    0    0  504  501  0.00000000000E+00  0.00000000000E+00  0.13572957641E+03  0.13572957641E+03  0.00000000000E+00 0. -1.
         21   -1    0    0  503  502 -0.00000000000E+00 -0.00000000000E+00 -0.69564556299E+01  0.69564556299E+01  0.00000000000E+00 0.  1.
         21    1    1    2  503  501 -0.11519459511E+02 -0.17132686321E+02  0.11722773525E+03  0.11903179743E+03  0.00000000000E+00 0. -1.
         21    1    1    2  504  502  0.11519459511E+02  0.17132686321E+02  0.11545385537E+02  0.23654234615E+02  0.00000000000E+00 0.  1.
</event>
<event>
 4    1  0.3048956E+006  0.2068843E+02  0.7546771E-02  0.1523760E+00
         21   -1    0    0  504  501  0.00000000000E+00  0.00000000000E+00  0.40998501755E+01  0.40998501755E+01  0.00000000000E+00 0. -1.
         21   -1    0    0  503  502 -0.00000000000E+00 -0.00000000000E+00 -0.17846451294E+03  0.17846451294E+03  0.00000000000E+00 0. -1.
         21    1    1    2  503  501  0.40205238703E+00  0.20684525000E+02 -0.28375936532E+02  0.35117018591E+02  0.00000000000E+00 0. -1.
         21    1    1    2  504  502 -0.40205238703E+00 -0.20684525000E+02 -0.14598872623E+03  0.14744734452E+03  0.00000000000E+00 0. -1.
</event>
<event>
 4    1  0.3048956E+006  0.4568183E+02  0.7546771E-02  0.1318065E+00
         21   -1    0    0  504  501  0.00000000000E+00  0.00000000000E+00  0.10038275437E+02  0.10038275437E+02  0.00000000000E+00 0.  1.
         21   -1    0    0  503  502 -0.00000000000E+00 -0.00000000000E+00 -0.23915592395E+03  0.23915592395E+03  0.00000000000E+00 0.  1.
         21    1    1    2  503  501 -0.22424350032E+02 -0.39799220651E+02 -0.15961165867E+03  0.16602021269E+03  0.00000000000E+00 0.  1.
         21    1    1    2  504  502  0.22424350032E+02  0.39799220651E+02 -0.69505989849E+02  0.83173986700E+02  0.00000000000E+00 0.  1.
</event>
<event>
 4    1  0.3048956E+006  0.2077222E+02  0.7546771E-02  0.1522542E+00
         21   -1    0    0  503  501  0.00000000000E+00  0.00000000000E+00  0.11060493289E+02  0.11060493289E+02  0.00000000000E+00 0.  1.
         21   -1    0    0  504  502 -0.00000000000E+00 -0.00000000000E+00 -0.39898640712E+02  0.39898640712E+02  0.00000000000E+00 0.  1.
         21    1    1    2  503  502 -0.12374407686E+01  0.20735332677E+02 -0.10619500965E+02  0.23329360935E+02  0.00000000000E+00 0.  1.
         21    1    1    2  504  501  0.12374407686E+01 -0.20735332677E+02 -0.18218646458E+02  0.27629773065E+02  0.00000000000E+00 0.  1.
</event>
<event>
 4    1  0.3048956E+006  0.2217048E+02  0.7546771E-02  0.1503186E+00
         21   -1    0    0  504  501  0.00000000000E+00  0.00000000000E+00  0.11943963986E+02  0.11943963986E+02  0.00000000000E+00 0. -1.
         21   -1    0    0  503  502 -0.00000000000E+00 -0.00000000000E+00 -0.41679112549E+02  0.41679112549E+02  0.00000000000E+00 0. -1.
         21    1    1    2  503  501  0.11083829120E+02 -0.19201009334E+02 -0.11855267827E+02  0.25141149589E+02  0.00000000000E+00 0. -1.
         21    1    1    2  504  502 -0.11083829120E+02  0.19201009334E+02 -0.17879880736E+02  0.28481926946E+02  0.00000000000E+00 0. -1.
</event>
<event>
 4    1  0.3048956E+006  0.2085475E+02  0.7546771E-02  0.1521349E+00
         21   -1    0    0  502  501  0.00000000000E+00  0.00000000000E+00  0.14226334161E+03  0.14226334161E+03  0.00000000000E+00 0.  1.
         21   -1    0    0  503  502 -0.00000000000E+00 -0.00000000000E+00 -0.33942856676E+01  0.33942856676E+01  0.00000000000E+00 0.  1.
         21    1    1    2  503  504  0.90695840644E+01 -0.18779329822E+02  0.46482004219E+02  0.50946023396E+02  0.00000000000E+00 0.  1.
         21    1    1    2  504  501 -0.90695840644E+01  0.18779329822E+02  0.92387051724E+02  0.94711603882E+02  0.00000000000E+00 0.  1.
</event>
<event>
 4    1  0.3048956E+006  0.2136739E+02  0.7546771E-02  0.1514084E+00
         21   -1    0    0  504  501  0.00000000000E+00  0.00000000000E+00  0.62045166514E+01  0.62045166514E+01  0.00000000000E+00 0.  1.
         21   -1    0    0  503  502 -0.00000000000E+00 -0.00000000000E+00 -0.16396707391E+03  0.16396707391E+03  0.00000000000E+00 0. -1.
         21    1    1    2  503  501  0.26220218909E+01  0.21205902316E+02 -0.14205225547E+03  0.14365029960E+03  0.00000000000E+00 0. -1.
         21    1    1    2  504  502 -0.26220218909E+01 -0.21205902316E+02 -0.15710301789E+02  0.26521290959E+02  0.00000000000E+00 0.  1.
</event>
<event>
 4    1  0.3048956E+006  0.4189879E+02  0.7546771E-02  0.1337704E+00
         21   -1    0    0  504  501  0.00000000000E+00  0.00000000000E+00  0.11217903388E+02  0.11217903388E+02  0.00000000000E+00 0.  1.
         21   -1    0    0  501  502 -0.00000000000E+00 -0.00000000000E+00 -0.18506987404E+03  0.18506987404E+03  0.00000000000E+00 0.  1.
         21    1    1    2  503  502 -0.21879097394E+01  0.41841625341E+02 -0.12549271189E+03  0.13230241607E+03  0.00000000000E+00 0.  1.
         21    1    1    2  504  503  0.21879097394E+01 -0.41841625341E+02 -0.48359258764E+02  0.63985361360E+02  0.00000000000E+00 0.  1.
</event>
<event>
 4    1  0.3048956E+006  0.3923930E+02  0.7546771E-02  0.1353002E+00
         21   -1    0    0  503  501  0.00000000000E+00  0.00000000000E+00  0.16603824889E+02  0.16603824889E+02  0.00000000000E+00 0.  1.
         21   -1    0    0  501  502 -0.00000000000E+00 -0.00000000000E+00 -0.11593326049E+03  0.11593326049E+03  0.00000000000E+00 0.  1.
         21    1    1    2  503  504 -0.38738541326E+02 -0.62488393208E+01 -0.20019832209E+02  0.44051291225E+02  0.00000000000E+00 0.  1.
         21    1    1    2  504  502  0.38738541326E+02  0.62488393208E+01 -0.79309603391E+02  0.88485794153E+02  0.00000000000E+00 0.  1.
</event>
<event>
 4    1  0.3048956E+006  0.2278223E+02  0.7546771E-02  0.1495251E+00
         21   -1    0    0  503  501  0.00000000000E+00  0.00000000000E+00  0.59270402378E+02  0.59270402378E+02  0.00000000000E+00 0.  1.
         21   -1    0    0  504  502 -0.00000000000E+00 -0.00000000000E+00 -0.64731224015E+02  0.64731224015E+02  0.00000000000E+00 0. -1.
         21    1    1    2  503  502  0.22532570126E+02  0.33634930821E+01  0.54924272312E+02  0.59461798586E+02  0.00000000000E+00 0.  1.
         21    1    1    2  504  501 -0.22532570126E+02 -0.33634930821E+01 -0.60385093949E+02  0.64539827807E+02  0.00000000000E+00 0. -1.
</event>
<event>
 4    1  0.3048956E+006  0.2949817E+02  0.7546771E-02  0.1424008E+00
         21   -1    0    0  503  501  0.00000000000E+00  0.00000000000E+00  0.19764020962E+03  0.19764020962E+03  0.00000000000E+00 0.  1.
         21   -1    0    0  504  502 -0.00000000000E+00 -0.00000000000E+00 -0.89614632385E+01  0.89614632385E+01  0.00000000000E+00 0.  1.
         21    1    1    2  503  502  0.27943593197E+02  0.94497307524E+01  0.20661004922E+02  0.36014149114E+02  0.00000000000E+00 0.  1.
         21    1    1    2  504  501 -0.27943593197E+02 -0.94497307524E+01  0.16801774146E+03  0.17058752374E+03  0.00000000000E+00 0.  1.
</event>
<event>
 4    1  0.3048956E+006  0.2358279E+02  0.7546771E-02  0.1485307E+00
         21   -1    0    0  503  501  0.00000000000E+00  0.00000000000E+00  0.15276943960E+03  0.15276943960E+03  0.00000000000E+00 0.  1.
         21   -1    0    0  504  502 -0.00000000000E+00 -0.00000000000E+00 -0.81294155511E+02  0.81294155511E+02  0.00000000000E+00 0.  1.
         21    1    1    2  503  502  0.40280145636E+01 -0.23236241792E+02  0.15011902324E+03  0.15196009007E+03  0.00000000000E+00 0.  1.
         21    1    1    2  504  501 -0.40280145636E+01  0.23236241792E+02 -0.78643739148E+02  0.82103505048E+02  0.00000000000E+00 0.  1.
</event>
<event>
 4    1  0.3048956E+006  0.3992036E+02  0.7546771E-02  0.1348953E+00
         21   -1    0    0  504  501  0.00000000000E+00  0.00000000000E+00  0.12125183630E+02  0.12125183630E+02  0.00000000000E+00 0. -1.
         21   -1    0    0  501  502 -0.00000000000E+00 -0.00000000000E+00 -0.37848711212E+03  0.37848711212E+03  0.00000000000E+00 0. -1.
         21    1    1    2  503  502 -0.24089334982E+02  0.31832983286E+02 -0.34097386204E+03  0.34330279562E+03  0.00000000000E+00 0. -1.
         21    1    1    2  504  503  0.24089334982E+02 -0.31832983286E+02 -0.25388066454E+02  0.47309500136E+02  0.00000000000E+00 0. -1.
</event>
<event>
 4    1  0.3048956E+006  0.3839708E+02  0.7546771E-02  0.1358144E+00
         21   -1    0    0  503  501  0.00000000000E+00  0.00000000000E+00  0.49198856266E+03  0.49198856266E+03  0.00000000000E+00 0. -1.
         21   -1    0    0  504  502 -0.00000000000E+00 -0.00000000000E+00 -0.42505815168E+02  0.42505815168E+02  0.00000000000E+00 0. -1.
         21    1    1    2  503  502  0.28435955124E+02 -0.25801789294E+02 -0.32913102909E+02  0.50572801165E+02  0.00000000000E+00 0. -1.
         21    1    1    2  504  501 -0.28435955124E+02  0.25801789294E+02  0.48239585040E+03  0.48392157666E+03  0.00000000000E+00 0. -1.
</event>
<event>
 4    1  0.3048956E+006  0.2135052E+02  0.7546771E-02  0.1514319E+00
         21   -1    0    0  504  501  0.00000000000E+00  0.00000000000E+00  0.61321774492E+01  0.61321774492E+01  0.00000000000E+00 0.  1.
         21   -1    0    0  503  502 -0.00000000000E+00 -0.00000000000E+00 -0.14722367139E+03  0.14722367139E+03  0.00000000000E+00 0. -1.
         21    1    1    2  503  501  0.13257575614E+02  0.16735630325E+02 -0.16593807307E+02  0.27040692937E+02  0.00000000000E+00 0.  1.
         21    1    1    2  504  502 -0.13257575614E+02 -0.16735630325E+02 -0.12449768663E+03  0.12631515590E+03  0.00000000000E+00 0. -1.
</event>
<event>
 4    1  0.3048956E+006  0.2064315E+02  0.7546771E-02  0.1524421E+00
         21   -1    0    0  504  501  0.00000000000E+00  0.00000000000E+00  0.25942371848E+01  0.25942371848E+01  0.00000000000E+00 0.  1.
         21   -1    0    0  503  502 -0.00000000000E+00 -0.00000000000E+00 -0.33867542762E+03  0.33867542762E+03  0.00000000000E+00 0. -1.
         21    1    1    2  503  501  0.18040591763E+02  0.10033769454E+02 -0.29049191125E+03  0.29122446666E+03  0.00000000000E+00 0. -1.
         21    1    1    2  504  502 -0.18040591763E+02 -0.10033769454E+02 -0.45589279189E+02  0.50045198147E+02  0.00000000000E+00 0.  1.
</event>
<event>
 4    1  0.3048956E+006  0.2394243E+02  0.7546771E-02  0.1480991E+00
         21   -1    0    0  503  501  0.00000000000E+00  0.00000000000E+00  0.33311880924E+01  0.33311880924E+01  0.00000000000E+00 0. -1.
         21   -1    0    0  504  502 -0.00000000000E+00 -0.00000000000E+00 -0.35825610768E+03  0.35825610768E+03  0.00000000000E+00 0.  1.
         21    1    1    2  503  502  0.12314420784E+02  0.20532779477E+02 -0.30779268244E+03  0.30872248923E+03  0.00000000000E+00 0.  1.
         21    1    1    2  504  501 -0.12314420784E+02 -0.20532779477E+02 -0.47132237148E+02  0.52864806543E+02  0.00000000000E+00 0. -1.
</event>
<event>
 4    1  0.3048956E+006  0.2188206E+02  0.7546771E-02  0.1507034E+00
         21   -1    0    0  504  501  0.00000000000E+00  0.00000000000E+00  0.66890474324E+03  0.66890474324E+03  0.00000000000E+00 0.  1.
         21   -1    0    0  501  502 -0.00000000000E+00 -0.00000000000E+00 -0.10005684897E+01  0.10005684897E+01  0.00000000000E+00 0. -1.
         21    1    1    2  503  502 -0.79938837329E+01  0.20369643333E+02  0.15527029766E+03  0.15680462328E+03  0.00000000000E+00 0. -1.
         21    1    1    2  504  503  0.79938837329E+01 -0.20369643333E+02  0.51263387709E+03  0.51310068845E+03  0.00000000000E+00 0.  1.
</event>
<event>
 4    1  0.3048956E+006  0.2392165E+02  0.7546771E-02  0.1481238E+00
         21   -1    0    0  502  501  0.00000000000E+00  0.00000000000E+00  0.98232185608E+02  0.98232185608E+02  0.00000000000E+00 0.  1.
         21   -1    0    0  503  502 -0.00000000000E+00 -0.00000000000E+00 -0.15229022633E+02  0.15229022633E+02  0.00000000000E+00 0.  1.
         21    1    1    2  503  504  0.15342466674E+02 -0.18353579893E+02 -0.30771994812E+01  0.24118754843E+02  0.00000000000E+00 0.  1.
         21    1    1    2  504  501 -0.15342466674E+02  0.18353579893E+02  0.86080362457E+02  0.89342453398E+02  0.00000000000E+00 0.  1.
</event>
<event>
 4    1  0.3048956E+006  0.2047008E+02  0.7546771E-02  0.1526967E+00
         21   -1    0    0  504  501  0.00000000000E+00  0.00000000000E+00  0.14604750160E+03  0.14604750160E+03  0.00000000000E+00 0.  1.
         21   -1    0    0  503  502 -0.00000000000E+00 -0.00000000000E+00 -0.42124422534E+01  0.42124422534E+01  0.00000000000E+00 0. -1.
         21    1    1    2  503  501  0.17137249458E+01  0.20398214217E+02  0.28490701075E+02  0.35081961806E+02  0.00000000000E+00 0. -1.
         21    1    1    2  504  502 -0.17137249458E+01 -0.20398214217E+02  0.11334435827E+03  0.11517798204E+03  0.00000000000E+00 0.  1.
</event>
<event>
 4    1  0.3048956E+006  0.2376932E+02  0.7546771E-02  0.1483057E+00
         21   -1    0    0  502  501  0.00000000000E+00  0.00000000000E+00  0.97661243887E+01  0.97661243887E+01  0.00000000000E+00 0.  1.
         21   -1    0    0  503  502 -0.00000000000E+00 -0.00000000000E+00 -0.19992793426E+03  0.19992793426E+03  0.00000000000E+00 0.  1.
         21    1    1    2  503  504  0.14390238308E+02 -0.18918286006E+02 -0.18346642264E+03  0.18499975335E+03  0.00000000000E+00 0.  1.
         21    1    1    2  504  501 -0.14390238308E+02  0.18918286006E+02 -0.66953872320E+01  0.24694305297E+02  0.00000000000E+00 0.  1.
</event>
<event>
 4    1  0.3048956E+006  0.3267329E+02  0.7546771E-02  0.1397703E+00
         21   -1    0    0  504  501  0.00000000000E+00  0.00000000000E+00  0.12539567884E+04  0.12539567884E+04  0.00000000000E+00 0. -1.
         21   -1    0    0  503  502 -0.00000000000E+00 -0.00000000000E+00 -0.10071274196E+01  0.10071274196E+01  0.00000000000E+00 0. -1.
         21    1    1    2  503  501  0.32597397268E+02 -0.22256408751E+01  0.87326336973E+03  0.87387439412E+03  0.00000000000E+00 0. -1.
         21    1    1    2  504  502 -0.32597397268E+02  0.22256408751E+01  0.37968629123E+03  0.38108952168E+03  0.00000000000E+00 0. -1.
</event>
<event>
 4    1  0.3048956E+006  0.2363612E+02  0.7546771E-02  0.1484661E+00
         21   -1    0    0  504  501  0.00000000000E+00  0.00000000000E+00  0.10393570031E+03  0.10393570031E+03  0.00000000000E+00 0. -1.
         21   -1    0    0  503  502 -0.00000000000E+00 -0.00000000000E+00 -0.54354691787E+02  0.54354691787E+02  0.00000000000E+00 0. -1.
         21    1    1    2  503  501 -0.88016463640E+01  0.21936203236E+02  0.99920535522E+02  0.10267803762E+03  0.00000000000E+00 0. -1.
         21    1    1    2  504  502  0.88016463640E+01 -0.21936203236E+02 -0.50339527002E+02  0.55612354472E+02  0.00000000000E+00 0. -1.
</event>
<event>
 4    1  0.3048956E+006  0.2124768E+02  0.7546771E-02  0.1515758E+00
         21   -1    0    0  503  501  0.00000000000E+00  0.00000000000E+00  0.39299870051E+02  0.39299870051E+02  0.00000000000E+00 0. -1.
         21   -1    0    0  504  502 -0.00000000000E+00 -0.00000000000E+00 -0.42056317489E+02  0.42056317489E+02  0.00000000000E+00 0.  1.
         21    1    1    2  503  502  0.20079572747E+02 -0.69479915104E+01  0.33302096884E+02  0.39503081963E+02  0.00000000000E+00 0. -1.
         21    1    1    2  504  501 -0.20079572747E+02  0.69479915104E+01 -0.36058544322E+02  0.41853105576E+02  0.00000000000E+00 0.  1.
</event>
<event>
 4    1  0.3048956E+006  0.3683623E+02  0.7546771E-02  0.1368094E+00
         21   -1    0    0  504  501  0.00000000000E+00  0.00000000000E+00  0.19818311360E+01  0.19818311360E+01  0.00000000000E+00 0. -1.
         21   -1    0    0  503  502 -0.00000000000E+00 -0.00000000000E+00 -0.75300233111E+03  0.75300233111E+03  0.00000000000E+00 0. -1.
         21    1    1    2  503  501 -0.32333913614E+02  0.17647266223E+02 -0.48922335942E+03  0.49060819742E+03  0.00000000000E+00 0. -1.
         21    1    1    2  504  502  0.32333913614E+02 -0.17647266223E+02 -0.26179714055E+03  0.26437596482E+03  0.00000000000E+00 0. -1.
</event>
<event>
 4    1  0.3048956E+006  0.2003229E+02  0.7546771E-02  0.1533543E+00
         21   -1    0    0  503  501  0.00000000000E+00  0.00000000000E+00  0.42131630807E+02  0.42131630807E+02  0.00000000000E+00 0.  1.
         21   -1    0    0  504  502 -0.00000000000E+00 -0.00000000000E+00 -0.10525540051E+02  0.10525540051E+02  0.00000000000E+00 0.  1.
         21    1    1    2  503  502 -0.19193131615E+02 -0.57372638084E+01  0.76844536607E+01  0.21455612908E+02  0.00000000000E+00 0.  1.
         21    1    1    2  504  501  0.19193131615E+02  0.57372638084E+01  0.23921637095E+02  0.31201557950E+02  0.00000000000E+00 0.  1.
</event>
<event>
 4    1  0.3048956E+006  0.2230646E+02  0.7546771E-02  0.1501396E+00
         21   -1    0    0  503  501  0.00000000000E+00  0.00000000000E+00  0.35685571162E+02  0.35685571162E+02  0.00000000000E+00 0.  1.
         21   -1    0    0  504  502 -0.00000000000E+00 -0.00000000000E+00 -0.30338500022E+02  0.30338500022E+02  0.00000000000E+00 0. -1.
         21    1    1    2  503  502 -0.20603206187E+02 -0.85490272063E+01 -0.21594374100E+02  0.31046657858E+02  0.00000000000E+00 0. -1.
         21    1    1    2  504  501  0.20603206187E+02  0.85490272063E+01  0.26941445241E+02  0.34977413327E+02  0.00000000000E+00 0.  1.
</event>
<event>
 4    1  0.3048956E+006  0.2122372E+02  0.7546771E-02  0.1516095E+00
         21   -1    0    0  504  501  0.00000000000E+00  0.00000000000E+00  0.25589996674E+03  0.25589996674E+03  0.00000000000E+00 0.  1.
         21   -1    0    0  503  502 -0.00000000000E+00 -0.00000000000E+00 -0.58463372193E+01  0.58463372193E+01  0.00000000000E+00 0.  1.
         21    1    1    2  503  501  0.11832068398E+02 -0.17619550814E+02  0.15615368303E+02  0.26349310061E+02  0.00000000000E+00 0.  1.
         21    1    1    2  504  502 -0.11832068398E+02  0.17619550814E+02  0.23443826122E+03  0.23539699390E+03  0.00000000000E+00 0.  1.
</event>
<event>
 4    1  0.3048956E+006  0.2617048E+02  0.7546771E-02  0.1456123E+00
         21   -1    0    0  503  501  0.00000000000E+00  0.00000000000E+00  0.17362696768E+02  0.17362696768E+02  0.00000000000E+00 0.  1.
         21   -1    0    0  501  502 -0.00000000000E+00 -0.00000000000E+00 -0.37904469424E+03  0.37904469424E+03  0.00000000000E+00 0.  1.
         21    1    1    2  503  504 -0.17547511660E+02  0.19415948618E+02  0.67661347414E+01  0.27030997125E+02  0.00000000000E+00 0.  1.
         21    1    1    2  504  502  0.17547511660E+02 -0.19415948618E+02 -0.36844813221E+03  0.36937639388E+03  0.00000000000E+00 0.  1.
</event>
<event>
 4    1  0.3048956E+006  0.2139398E+02  0.7546771E-02  0.1513714E+00
         21   -1    0    0  503  501  0.00000000000E+00  0.00000000000E+00  0.64757374463E+02  0.64757374463E+02  0.00000000000E+00 0.  1.
         21   -1    0    0  504  502 -0.00000000000E+00 -0.00000000000E+00 -0.85095517349E+01  0.85095517349E+01  0.00000000000E+00 0.  1.
         21    1    1    2  503  502  0.13636745610E+02 -0.16484590661E+02  0.13045842862E+02  0.25057864555E+02  0.00000000000E+00 0.  1.
         21    1    1    2  504  501 -0.13636745610E+02  0.16484590661E+02  0.43201979866E+02  0.48209061642E+02  0.00000000000E+00 0.  1.
</event>
<event>
 4    1  0.3048956E+006  0.2211854E+02  0.7546771E-02  0.1503874E+00
         21   -1    0    0  502  501  0.00000000000E+00  0.00000000000E+00  0.29537866701E+03  0.29537866701E+03  0.00000000000E+00 0.  1.
         21   -1    0    0  504  502 -0.00000000000E+00 -0.00000000000E+00 -0.50433018373E+02  0.50433018373E+02  0.00000000000E+00 0. -1.
         21    1    1    2  503  501 -0.16207597768E+01 -0.22059075319E+02  0.29251574982E+03  0.29335080289E+03  0.00000000000E+00 0.  1.
         21    1    1    2  504  503  0.16207597768E+01  0.22059075319E+02 -0.47570101177E+02  0.52460882495E+02  0.00000000000E+00 0. -1.
</event>
<event>
 4    1  0.3048956E+006  0.2014352E+02  0.7546771E-02  0.1531853E+00
         21   -1    0    0  502  501  0.00000000000E+00  0.00000000000E+00  0.81966909434E+01  0.81966909434E+01  0.00000000000E+00 0. -1.
         21   -1    0    0  503  502 -0.00000000000E+00 -0.00000000000E+00 -0.65794492080E+02  0.65794492080E+02  0.00000000000E+00 0. -1.
         21    1    1    2  503  504  0.54066529498E+01 -0.19404370751E+02 -0.47208082290E+02  0.51326060962E+02  0.00000000000E+00 0. -1.
         21    1    1    2  504  501 -0.54066529498E+01  0.19404370751E+02 -0.10389718846E+02  0.22665122062E+02  0.00000000000E+00 0. -1.
</event>
<event>
 4    1  0.3048956E+006  0.2823328E+02  0.7546771E-02  0.1435598E+00
         21   -1    0    0  503  501  0.00000000000E+00  0.00000000000E+00  0.14576610202E+03  0.14576610202E+03  0.00000000000E+00 0. -1.
         21   -1    0    0  504  502 -0.00000000000E+00 -0.00000000000E+00 -0.20102432440E+02  0.20102432440E+02  0.00000000000E+00 0.  1.
         21    1    1    2  503  502  0.14125063756E+02 -0.24445874525E+02 -0.79286187497E+01  0.29325436104E+02  0.00000000000E+00 0.  1.
         21    1    1    2  504  501 -0.14125063756E+02  0.24445874525E+02  0.13359228833E+03  0.13654309836E+03  0.00000000000E+00 0. -1.
</event>
<event>
 4    1  0.3048956E+006  0.2649212E+02  0.7546771E-02  0.1452778E+00
         21   -1    0    0  504  501  0.00000000000E+00  0.00000000000E+00  0.90870949793E+03  0.90870949793E+03  0.00000000000E+00 0.  1.
         21   -1    0    0  503  502 -0.00000000000E+00 -0.00000000000E+00 -0.11162390850E+01  0.11162390850E+01  0.00000000000E+00 0.  1.
         21    1    1    2  503  501  0.57434011973E+01  0.25862051236E+02  0.20129431827E+03  0.20303013304E+03  0.00000000000E+00 0.  1.
         21    1    1    2  504  502 -0.57434011973E+01 -0.25862051236E+02  0.70629894057E+03  0.70679560397E+03  0.00000000000E+00 0.  1.
</event>
<event>
 4    1  0.3048956E+006  0.2938892E+02  0.7546771E-02  0.1424982E+00
         21   -1    0    0  504  501  0.00000000000E+00  0.00000000000E+00  0.98623736412E+02  0.98623736412E+02  0.00000000000E+00 0.  1.
         21   -1    0    0  503  502 -0.00000000000E+00 -0.00000000000E+00 -0.57685954814E+03  0.57685954814E+03  0.00000000000E+00 0.  1.
         21    1    1    2  503  501  0.26629856522E+01 -0.29268021296E+02  0.96050213250E+02  0.10044576660E+03  0.00000000000E+00 0.  1.
         21    1    1    2  504  502 -0.26629856522E+01  0.29268021296E+02 -0.57428602498E+03  0.57503751795E+03  0.00000000000E+00 0.  1.
</event>
<event>
 4    1  0.3048956E+006  0.2180092E+02  0.7546771E-02  0.1508130E+00
         21   -1    0    0  503  501  0.00000000000E+00  0.00000000000E+00  0.18583271988E+03  0.18583271988E+03  0.00000000000E+00 0. -1.
         21   -1    0    0  504  502 -0.00000000000E+00 -0.00000000000E+00 -0.35266779244E+01  0.35266779244E+01  0.00000000000E+00 0. -1.
         21    1    1    2  503  502  0.21754897352E+02 -0.14158539951E+01  0.41521220932E+02  0.46896609568E+02  0.00000000000E+00 0. -1.
         21    1    1    2  504  501 -0.21754897352E+02  0.14158539951E+01  0.14078482102E+03  0.14246278823E+03  0.00000000000E+00 0. -1.
</event>
<event>
 4    1  0.3048956E+006  0.2486984E+02  0.7546771E-02  0.1470265E+00
         21   -1    0    0  503  501  0.00000000000E+00  0.00000000000E+00  0.10549479650E+04  0.10549479650E+04  0.00000000000E+00 0. -1.
         21   -1    0    0  504  502 -0.00000000000E+00 -0.00000000000E+00 -0.91492427271E+00  0.91492427271E+00  0.00000000000E+00 0. -1.
         21    1    1    2  503  502 -0.14701963843E+01 -0.24826347322E+02  0.21061456803E+03  0.21207782832E+03  0.00000000000E+00 0. -1.
         21    1    1    2  504  501  0.14701963843E+01  0.24826347322E+02  0.84341847266E+03  0.84378506092E+03  0.00000000000E+00 0. -1.
</event>
<event>
 4    1  0.3048956E+006  0.2370616E+02  0.7546771E-02  0.1483816E+00
         21   -1    0    0  503  501  0.00000000000E+00  0.00000000000E+00  0.14060802393E+02  0.14060802393E+02  0.00000000000E+00 0.  1.
         21   -1    0    0  504  502 -0.00000000000E+00 -0.00000000000E+00 -0.40352996111E+02  0.40352996111E+02  0.00000000000E+00 0. -1.
         21    1    1    2  503  502  0.19272444667E+02 -0.13804156651E+02 -0.10488550865E+02  0.25922800071E+02  0.00000000000E+00 0. -1.
         21    1    1    2  504  501 -0.19272444667E+02  0.13804156651E+02 -0.15803642853E+02  0.28490998433E+02  0.00000000000E+00 0.  1.
</event>
<event>
 4    1  0.3048956E+006  0.2330896E+02  0.7546771E-02  0.1488654E+00
         21   -1    0    0  502  501  0.00000000000E+00  0.00000000000E+00  0.71212697382E+02  0.71212697382E+02  0.00000000000E+00 0.  1.
         21   -1    0    0  503  502 -0.00000000000E+00 -0.00000000000E+00 -0.74459797671E+02  0.74459797671E+02  0.00000000000E+00 0.  1.
         21    1    1    2  503  504 -0.23264696068E+02  0.14358678838E+01 -0.70627470834E+02  0.74374373518E+02  0.00000000000E+00 0.  1.
         21    1    1    2  504  501  0.23264696068E+02 -0.14358678838E+01  0.67380370546E+02  0.71298121536E+02  0.00000000000E+00 0.  1.
</event>
<event>
 4    1  0.3048956E+006  0.2170456E+02  0.7546771E-02  0.1509439E+00
         21   -1    0    0  503  501  0.00000000000E+00  0.00000000000E+00  0.57607430236E+00  0.57607430236E+00  0.00000000000E+00 0.  1.
         21   -1    0    0  504  502 -0.00000000000E+00 -0.00000000000E+00 -0.86709337692E+03  0.86709337692E+03  0.00000000000E+00 0.  1.
         21    1    1    2  503  502 -0.19125204022E+02  0.10262284838E+02 -0.32977263160E+03  0.33048612145E+03  0.00000000000E+00 0.  1.
         21    1    1    2  504  501  0.19125204022E+02 -0.10262284838E+02 -0.53674467102E+03  0.53718332977E+03  0.00000000000E+00 0.  1.
</event>
<event>
 4    1  0.3048956E+006  0.2968435E+02  0.7546771E-02  0.1422360E+00
         21   -1    0    0  502  501  0.00000000000E+00  0.00000000000E+00  0.97064196790E+01  0.97064196790E+01  0.00000000000E+00 0. -1.
         21   -1    0    0  503  502 -0.00000000000E+00 -0.00000000000E+00 -0.10731481668E+03  0.10731481668E+03  0.00000000000E+00 0. -1.
         21    1    1    2  503  504  0.55121143951E+01 -0.29168082670E+02 -0.71770377225E+02  0.77666900922E+02  0.00000000000E+00 0. -1.
         21    1    1    2  504  501 -0.55121143951E+01  0.29168082670E+02 -0.25838019776E+02  0.39354335438E+02  0.00000000000E+00 0. -1.
</event>
<event>
 4    1  0.3048956E+006  0.2335491E+02  0.7546771E-02  0.1488089E+00
         21   -1    0    0  503  501  0.00000000000E+00  0.00000000000E+00  0.22113062964E+02  0.22113062964E+02  0.00000000000E+00 0.  1.
         21   -1    0    0  504  502 -0.00000000000E+00 -0.00000000000E+00 -0.13982734326E+03  0.13982734326E+03  0.00000000000E+00 0. -1.
         21    1    1    2  503  502 -0.22634312036E+02 -0.57567184677E+01  0.14624965395E+02  0.27556151793E+02  0.00000000000E+00 0.  1.
         21    1    1    2  504  501  0.22634312036E+02  0.57567184677E+01 -0.13233924569E+03  0.13438425443E+03  0.00000000000E+00 0. -1.
</event>
<event>
 4    1  0.3048956E+006  0.2404599E+02  0.7546771E-02  0.1479765E+00
         21   -1    0    0  502  501  0.00000000000E+00  0.00000000000E+00  0.45975091371E+02  0.45975091371E+02  0.00000000000E+00 0.  1.
         21   -1    0    0  503  502 -0.00000000000E+00 -0.00000000000E+00 -0.11639627983E+03  0.11639627983E+03  0.00000000000E+00 0.  1.
         21    1    1    2  503  504  0.11647115664E+02 -0.21036979456E+02 -0.11188488706E+03  0.11443966865E+03  0.00000000000E+00 0.  1.
         21    1    1    2  504  501 -0.11647115664E+02  0.21036979456E+02  0.41463698601E+02  0.47931702553E+02  0.00000000000E+00 0.  1.
</event>
<event>
 4    1  0.3048956E+006  0.4188884E+02  0.7546771E-02  0.1337759E+00
         21   -1    0    0  503  501  0.00000000000E+00  0.00000000000E+00  0.32473782387E+03  0.32473782387E+03  0.00000000000E+00 0.  1.
         21   -1    0    0  501  502 -0.00000000000E+00 -0.00000000000E+00 -0.66166486750E+01  0.66166486750E+01  0.00000000000E+00 0.  1.
         21    1    1    2  503  504 -0.40259850936E+00  0.41886907271E+02  0.23000627986E+03  0.23378957176E+03  0.00000000000E+00 0.  1.
         21    1    1    2  504  502  0.40259850936E+00 -0.41886907271E+02  0.88114895333E+02  0.97564900789E+02  0.00000000000E+00 0.  1.
</event>
<event>
 4    1  0.3048956E+006  0.2686557E+02  0.7546771E-02  0.1448963E+00
         21   -1    0    0  503  501  0.00000000000E+00  0.00000000000E+00  0.39899236406E+02  0.39899236406E+02  0.00000000000E+00 0. -1.
         21   -1    0    0  504  502 -0.00000000000E+00 -0.00000000000E+00 -0.48984958149E+02  0.48984958149E+02  0.00000000000E+00 0. -1.
         21    1    1    2  503  502  0.23792488078E+02  0.12477028112E+02  0.30751899179E+02  0.40834275095E+02  0.00000000000E+00 0. -1.
         21    1    1    2  504  501 -0.23792488078E+02 -0.12477028112E+02 -0.39837620922E+02  0.48049919460E+02  0.00000000000E+00 0. -1.
</event>
<event>
 4    1  0.3048956E+006  0.4337614E+02  0.7546771E-02  0.1329762E+00
         21   -1    0    0  503  501  0.00000000000E+00  0.00000000000E+00  0.75329147714E+02  0.75329147714E+02  0.00000000000E+00 0.  1.
         21   -1    0    0  501  502 -0.00000000000E+00 -0.00000000000E+00 -0.98522043318E+02  0.98522043318E+02  0.00000000000E+00 0.  1.
         21    1    1    2  503  504 -0.11659187543E+02 -0.41779817518E+02  0.63506662144E+02  0.76906345270E+02  0.00000000000E+00 0.  1.
         21    1    1    2  504  502  0.11659187543E+02  0.41779817518E+02 -0.86699557748E+02  0.96944845762E+02  0.00000000000E+00 0.  1.
</event>
<event>
 4    1  0.3048956E+006  0.2073542E+02  0.7546771E-02  0.1523076E+00
         21   -1    0    0  502  501  0.00000000000E+00  0.00000000000E+00  0.59889164909E+02  0.59889164909E+02  0.00000000000E+00 0.  1.
         21   -1    0    0  504  502 -0.00000000000E+00 -0.00000000000E+00 -0.22449709396E+02  0.22449709396E+02  0.00000000000E+00 0.  1.
         21    1    1    2  503  501 -0.19565628213E+02 -0.68661298348E+01  0.52674125558E+02  0.56608489200E+02  0.00000000000E+00 0.  1.
         21    1    1    2  504  503  0.19565628213E+02  0.68661298348E+01 -0.15234670045E+02  0.25730385105E+02  0.00000000000E+00 0.  1.
</event>
<event>
 4    1  0.3048956E+006  0.2330660E+02  0.7546771E-02  0.1488684E+00
         21   -1    0    0  503  501  0.00000000000E+00  0.00000000000E+00  0.74019341967E+03  0.74019341967E+03  0.00000000000E+00 0.  1.
         21   -1    0    0  501  502 -0.00000000000E+00 -0.00000000000E+00 -0.30376831594E+02  0.30376831594E+02  0.00000000000E+00 0. -1.
         21    1    1    2  503  504  0.13164910704E+02  0.19232334965E+02  0.73551100960E+03  0.73588018238E+03  0.00000000000E+00 0.  1.
         21    1    1    2  504  502 -0.13164910704E+02 -0.19232334965E+02 -0.25694421520E+02  0.34690068885E+02  0.00000000000E+00 0. -1.
</event>
<event>
 4    1  0.3048956E+006  0.3140816E+02  0.7546771E-02  0.1407742E+00
         21   -1    0    0  502  501  0.00000000000E+00  0.00000000000E+00  0.64077318643E+02  0.64077318643E+02  0.00000000000E+00 0. -1.
         21   -1    0    0  503  502 -0.00000000000E+00 -0.00000000000E+00 -0.31066681992E+02  0.31066681992E+02  0.00000000000E+00 0.  1.
         21    1    1    2  503  504 -0.85052524961E+01  0.30234634257E+02 -0.17282591506E+02  0.35849133850E+02  0.00000000000E+00 0.  1.
         21    1    1    2  504  501  0.85052524961E+01 -0.30234634257E+02  0.50293228156E+02  0.59294866785E+02  0.00000000000E+00 0. -1.
</event>
<event>
 4    1  0.3048956E+006  0.5432345E+02  0.7546771E-02  0.1280442E+00
         21   -1    0    0  504  501  0.00000000000E+00  0.00000000000E+00  0.16447013771E+02  0.16447013771E+02  0.00000000000E+00 0.  1.
         21   -1    0    0  503  502 -0.00000000000E+00 -0.00000000000E+00 -0.34006030611E+03  0.34006030611E+03  0.00000000000E+00 0.  1.
         21    1    1    2  503  501  0.54170963239E+02  0.40674850886E+01 -0.39294728733E+02  0.67045606861E+02  0.00000000000E+00 0.  1.
         21    1    1    2  504  502 -0.54170963239E+02 -0.40674850886E+01 -0.28431856360E+03  0.28946171302E+03  0.00000000000E+00 0.  1.
</event>
<event>
 4    1  0.3048956E+006  0.3103727E+02  0.7546771E-02  0.1410792E+00
         21   -1    0    0  504  501  0.00000000000E+00  0.00000000000E+00  0.20481616108E+03  0.20481616108E+03  0.00000000000E+00 0. -1.
         21   -1    0    0  503  502 -0.00000000000E+00 -0.00000000000E+00 -0.47038451605E+01  0.47038451605E+01  0.00000000000E+00 0. -1.
         21    1    1    2  503  501  0.15999897456E+02 -0.26595396989E+02  0.10118390915E+03  0.10583711698E+03  0.00000000000E+00 0. -1.
         21    1    1    2  504  502 -0.15999897456E+02  0.26595396989E+02  0.98928406766E+02  0.10368288926E+03  0.00000000000E+00 0. -1.
</event>
<event>
 4    1  0.3048956E+006  0.2496029E+02  0.7546771E-02  0.1469248E+00
         21   -1    0    0  504  501  0.00000000000E+00  0.00000000000E+00  0.14362004852E+03  0.14362004852E+03  0.00000000000E+00 0.  1.
         21   -1    0    0  503  502 -0.00000000000E+00 -0.00000000000E+00 -0.44569803278E+01  0.44569803278E+01  0.00000000000E+00 0.  1.
         21    1    1    2  503  501  0.24544958486E+02 -0.45344125209E+01  0.81681248337E+02  0.85409848460E+02  0.00000000000E+00 0.  1.
         21    1    1    2  504  502 -0.24544958486E+02  0.45344125209E+01  0.57481819856E+02  0.62667180389E+02  0.00000000000E+00 0.  1.
</event>
<event>
 4    1  0.3048956E+006  0.5343032E+02  0.7546771E-02  0.1283948E+00
         21   -1    0    0  502  501  0.00000000000E+00  0.00000000000E+00  0.71038043910E+03  0.71038043910E+03  0.00000000000E+00 0.  1.
         21   -1    0    0  503  502 -0.00000000000E+00 -0.00000000000E+00 -0.45717422048E+01  0.45717422048E+01  0.00000000000E+00 0.  1.
         21    1    1    2  503  504  0.71447891031E+01  0.52950462493E+02  0.22857066562E+03  0.23473250451E+03  0.00000000000E+00 0.  1.
         21    1    1    2  504  501 -0.71447891031E+01 -0.52950462493E+02  0.47723803127E+03  0.48021967680E+03  0.00000000000E+00 0.  1.
</event>
<event>
 4    1  0.3048956E+006  0.2083484E+02  0.7546771E-02  0.1521636E+00
         21   -1    0    0  504  501  0.00000000000E+00  0.00000000000E+00  0.54586436092E+02  0.54586436092E+02  0.00000000000E+00 0.  1.
         21   -1    0    0  503  502 -0.00000000000E+00 -0.00000000000E+00 -0.79663889272E+01  0.79663889272E+01  0.00000000000E+00 0.  1.
         21    1    1    2  503  501  0.13569872716E+02 -0.15809783792E+02  0.24622762362E+02  0.32254784690E+02  0.00000000000E+00 0.  1.
         21    1    1    2  504  502 -0.13569872716E+02  0.15809783792E+02  0.21997284802E+02  0.30298040329E+02  0.00000000000E+00 0.  1.
</event>
<event>
 4    1  0.3048956E+006  0.2126779E+02  0.7546771E-02  0.1515476E+00
         21   -1    0    0  503  501  0.00000000000E+00  0.00000000000E+00  0.28965953661E+02  0.28965953661E+02  0.00000000000E+00 0.  1.
         21   -1    0    0  501  502 -0.00000000000E+00 -0.00000000000E+00 -0.19119147574E+02  0.19119147574E+02  0.00000000000E+00 0.  1.
         21    1    1    2  503  504  0.13338824258E+02 -0.16564858890E+02  0.15215514647E+02  0.26150156187E+02  0.00000000000E+00 0.  1.
         21    1    1    2  504  502 -0.13338824258E+02  0.16564858890E+02 -0.53687085594E+01  0.21934945048E+02  0.00000000000E+00 0.  1.
</event>
<event>
 4    1  0.3048956E+006  0.2368879E+02  0.7546771E-02  0.1484025E+00
         21   -1    0    0  504  501  0.00000000000E+00  0.00000000000E+00  0.34429214886E+03  0.34429214886E+03  0.00000000000E+00 0. -1.
         21   -1    0    0  503  502 -0.00000000000E+00 -0.00000000000E+00 -0.30232454810E+02  0.30232454810E+02  0.00000000000E+00 0. -1.
         21    1    1    2  503  501 -0.19221760231E+02 -0.13844948012E+02  0.33917437698E+03  0.34000061273E+03  0.00000000000E+00 0. -1.
         21    1    1    2  504  502  0.19221760231E+02  0.13844948012E+02 -0.25114682934E+02  0.34523990944E+02  0.00000000000E+00 0. -1.
</event>
<event>
 4    1  0.3048956E+006  0.5392719E+02  0.7546771E-02  0.1281988E+00
         21   -1    0    0  502  501  0.00000000000E+00  0.00000000000E+00  0.16807281842E+02  0.16807281842E+02  0.00000000000E+00 0.  1.
         21   -1    0    0  504  502 -0.00000000000E+00 -0.00000000000E+00 -0.26412299454E+03  0.26412299454E+03  0.00000000000E+00 0.  1.
         21    1    1    2  503  501 -0.37341556315E+02 -0.38906935269E+02 -0.41165989803E+02  0.67843792321E+02  0.00000000000E+00 0.  1.
         21    1    1    2  504  503  0.37341556315E+02  0.38906935269E+02 -0.20614972289E+03  0.21308648406E+03  0.00000000000E+00 0.  1.
</event>
<event>
 4    1  0.3048956E+006  0.8238509E+02  0.7546771E-02  0.1198416E+00
         21   -1    0    0  504  501  0.00000000000E+00  0.00000000000E+00  0.40910557280E+02  0.40910557280E+02  0.00000000000E+00 0. -1.
         21   -1    0    0  503  502 -0.00000000000E+00 -0.00000000000E+00 -0.22011043501E+03  0.22011043501E+03  0.00000000000E+00 0. -1.
         21    1    1    2  503  501 -0.25414296247E+02 -0.78367191936E+02 -0.24834562001E+02  0.86046840125E+02  0.00000000000E+00 0. -1.
         21    1    1    2  504  502  0.25414296247E+02  0.78367191936E+02 -0.15436531573E+03  0.17497415217E+03  0.00000000000E+00 0. -1.
</event>
<event>
 4    1  0.3048956E+006  0.2469630E+02  0.7546771E-02  0.1472230E+00
         21   -1    0    0  502  501  0.00000000000E+00  0.00000000000E+00  0.10708574987E+03  0.10708574987E+03  0.00000000000E+00 0. -1.
         21   -1    0    0  504  502 -0.00000000000E+00 -0.00000000000E+00 -0.14400542263E+02  0.14400542263E+02  0.00000000000E+00 0.  1.
         21    1    1    2  503  501 -0.20103352345E+02 -0.14344417436E+02  0.93569918663E+02  0.96774153397E+02  0.00000000000E+00 0. -1.
         21    1    1    2  504  503  0.20103352345E+02  0.14344417436E+02 -0.88471105825E+00  0.24712138733E+02  0.00000000000E+00 0.  1.
</event>
<event>
 4    1  0.3048956E+006  0.2622516E+02  0.7546771E-02  0.1455551E+00
         21   -1    0    0  503  501  0.00000000000E+00  0.00000000000E+00  0.94004682444E+02  0.94004682444E+02  0.00000000000E+00 0.  1.
         21   -1    0    0  504  502 -0.00000000000E+00 -0.00000000000E+00 -0.16955900174E+02  0.16955900174E+02  0.00000000000E+00 0.  1.
         21    1    1    2  503  502 -0.24653057016E+02 -0.89434698280E+01 -0.33077058156E+01  0.26432930041E+02  0.00000000000E+00 0.  1.
         21    1    1    2  504  501  0.24653057016E+02  0.89434698280E+01  0.80356488085E+02  0.84527652577E+02  0.00000000000E+00 0.  1.
</event>
<event>
 4    1  0.3048956E+006  0.2246899E+02  0.7546771E-02  0.1499276E+00
         21   -1    0    0  504  501  0.00000000000E+00  0.00000000000E+00  0.32897815942E+02  0.32897815942E+02  0.00000000000E+00 0.  1.
         21   -1    0    0  503  502 -0.00000000000E+00 -0.00000000000E+00 -0.29173647361E+02  0.29173647361E+02  0.00000000000E+00 0. -1.
         21    1    1    2  503  501 -0.12816480608E+02  0.18455172989E+02  0.23228813672E+02  0.32317694377E+02  0.00000000000E+00 0.  1.
         21    1    1    2  504  502  0.12816480608E+02 -0.18455172989E+02 -0.19504645091E+02  0.29753768927E+02  0.00000000000E+00 0. -1.
</event>
<event>
 4    1  0.3048956E+006  0.2446644E+02  0.7546771E-02  0.1474862E+00
         21   -1    0    0  503  501  0.00000000000E+00  0.00000000000E+00  0.40738795019E+01  0.40738795019E+01  0.00000000000E+00 0. -1.
         21   -1    0    0  504  502 -0.00000000000E+00 -0.00000000000E+00 -0.15912560674E+03  0.15912560674E+03  0.00000000000E+00 0. -1.
         21    1    1    2  503  502 -0.11127513597E+02 -0.21789562722E+02 -0.54942803080E+02  0.60144145291E+02  0.00000000000E+00 0. -1.
         21    1    1    2  504  501  0.11127513597E+02  0.21789562722E+02 -0.10010892416E+03  0.10305534095E+03  0.00000000000E+00 0. -1.
</event>
<event>
 4    1  0.3048956E+006  0.2949147E+02  0.7546771E-02  0.1424068E+00
         21   -1    0    0  503  501  0.00000000000E+00  0.00000000000E+00  0.64838755096E+02  0.64838755096E+02  0.00000000000E+00 0. -1.
         21   -1    0    0  501  502 -0.00000000000E+00 -0.00000000000E+00 -0.15836655575E+02  0.15836655575E+02  0.00000000000E+00 0.  1.
         21    1    1    2  503  504  0.28212797230E+02 -0.85898228038E+01  0.40278085100E+02  0.49920648260E+02  0.00000000000E+00 0. -1.
         21    1    1    2  504  502 -0.28212797230E+02  0.85898228038E+01  0.87240144207E+01  0.30754762411E+02  0.00000000000E+00 0.  1.
</event>
<event>
 4    1  0.3048956E+006  0.2186355E+02  0.7546771E-02  0.1507284E+00
         21   -1    0    0  503  501  0.00000000000E+00  0.00000000000E+00  0.11785691975E+02  0.11785691975E+02  0.00000000000E+00 0.  1.
         21   -1    0    0  504  502 -0.00000000000E+00 -0.00000000000E+00 -0.10960224699E+03  0.10960224699E+03  0.00000000000E+00 0. -1.
         21    1    1    2  503  502  0.13148566259E+02 -0.17467975219E+02 -0.97080497872E+02  0.99511999377E+02  0.00000000000E+00 0. -1.
         21    1    1    2  504  501 -0.13148566259E+02  0.17467975219E+02 -0.73605714740E+00  0.21875939592E+02  0.00000000000E+00 0.  1.
</event>
<event>
 4    1  0.3048956E+006  0.2756688E+02  0.7546771E-02  0.1441995E+00
         21   -1    0    0  503  501  0.00000000000E+00  0.00000000000E+00  0.26981499905E+03  0.26981499905E+03  0.00000000000E+00 0. -1.
         21   -1    0    0  504  502 -0.00000000000E+00 -0.00000000000E+00 -0.36459475674E+01  0.36459475674E+01  0.00000000000E+00 0. -1.
         21    1    1    2  503  502  0.12187451044E+02  0.24726477105E+02  0.67868271728E+02  0.73253224778E+02  0.00000000000E+00 0. -1.
         21    1    1    2  504  501 -0.12187451044E+02 -0.24726477105E+02  0.19830077975E+03  0.20020772184E+03  0.00000000000E+00 0. -1.
</event>
<event>
 4    1  0.3048956E+006  0.2964424E+02  0.7546771E-02  0.1422714E+00
         21   -1    0    0  502  501  0.00000000000E+00  0.00000000000E+00  0.20347943056E+02  0.20347943056E+02  0.00000000000E+00 0.  1.
         21   -1    0    0  504  502 -0.00000000000E+00 -0.00000000000E+00 -0.56311813464E+02  0.56311813464E+02  0.00000000000E+00 0. -1.
         21    1    1    2  503  501  0.15983707893E+01 -0.29601113092E+02  0.52237130166E+00  0.29648837368E+02  0.00000000000E+00 0.  1.
         21    1    1    2  504  503 -0.15983707893E+01  0.29601113092E+02 -0.36486241709E+02  0.47010919152E+02  0.00000000000E+00 0. -1.
</event>
<event>
 4    1  0.3048956E+006  0.2085548E+02  0.7546771E-02  0.1521338E+00
         21   -1    0    0  503  501  0.00000000000E+00  0.00000000000E+00  0.19065853686E+02  0.19065853686E+02  0.00000000000E+00 0. -1.
         21   -1    0    0  504  502 -0.00000000000E+00 -0.00000000000E+00 -0.79711089201E+02  0.79711089201E+02  0.00000000000E+00 0. -1.
         21    1    1    2  503  502 -0.19432859278E+02 -0.75706595230E+01 -0.72049384773E+02  0.75007098007E+02  0.00000000000E+00 0. -1.
         21    1    1    2  504  501  0.19432859278E+02  0.75706595230E+01  0.11404149258E+02  0.23769844880E+02  0.00000000000E+00 0. -1.
</event>
<event>
 4    1  0.3048956E+006  0.2433810E+02  0.7546771E-02  0.1476346E+00
         21   -1    0    0  504  501  0.00000000000E+00  0.00000000000E+00  0.67403751900E+03  0.67403751900E+03  0.00000000000E+00 0.  1.
         21   -1    0    0  503  502 -0.00000000000E+00 -0.00000000000E+00 -0.32268445494E+01  0.32268445494E+01  0.00000000000E+00 0.  1.
         21    1    1    2  503  501 -0.15189230300E+01 -0.24290660040E+02  0.46541953939E+02  0.52521393439E+02  0.00000000000E+00 0.  1.
         21    1    1    2  504  502  0.15189230300E+01  0.24290660040E+02  0.62426872052E+03  0.62474297011E+03  0.00000000000E+00 0.  1.
</event>
<event>
 4    1  0.3048956E+006  0.3606646E+02  0.7546771E-02  0.1373217E+00
         21   -1    0    0  502  501  0.00000000000E+00  0.00000000000E+00  0.15796661848E+03  0.15796661848E+03  0.00000000000E+00 0. -1.
         21   -1    0    0  504  502 -0.00000000000E+00 -0.00000000000E+00 -0.28397922485E+02  0.28397922485E+02  0.00000000000E+00 0. -1.
         21    1    1    2  503  501 -0.11423640029E+02 -0.34209502349E+02  0.14330270609E+03  0.14777163183E+03  0.00000000000E+00 0. -1.
         21    1    1    2  504  503  0.11423640029E+02  0.34209502349E+02 -0.13734010088E+02  0.38592909136E+02  0.00000000000E+00 0. -1.
</event>
<event>
 4    1  0.3048956E+006  0.2448513E+02  0.7546771E-02  0.1474646E+00
         21   -1    0    0  502  501  0.00000000000E+00  0.00000000000E+00  0.19937860995E+03  0.19937860995E+03  0.00000000000E+00 0. -1.
         21   -1    0    0  503  502 -0.00000000000E+00 -0.00000000000E+00 -0.16290711543E+02  0.16290711543E+02  0.00000000000E+00 0.  1.
         21    1    1    2  503  504  0.14606091258E+02  0.19651557473E+02 -0.58313660276E+01  0.25169951185E+02  0.00000000000E+00 0.  1.
         21    1    1    2  504  501 -0.14606091258E+02 -0.19651557473E+02  0.18891926443E+03  0.19049937031E+03  0.00000000000E+00 0. -1.
</event>
<event>
 4    1  0.3048956E+006  0.2388387E+02  0.7546771E-02  0.1481688E+00
         21   -1    0    0  504  501  0.00000000000E+00  0.00000000000E+00  0.67477550476E+02  0.67477550476E+02  0.00000000000E+00 0. -1.
         21   -1    0    0  501  502 -0.00000000000E+00 -0.00000000000E+00 -0.37273597911E+02  0.37273597911E+02  0.00000000000E+00 0. -1.
         21    1    1    2  503  502 -0.21971545680E+02  0.93643260238E+01 -0.30952713469E+02  0.39096162120E+02  0.00000000000E+00 0. -1.
         21    1    1    2  504  503  0.21971545680E+02 -0.93643260238E+01  0.61156666033E+02  0.65654986267E+02  0.00000000000E+00 0. -1.
</event>
<event>
 4    1  0.3048956E+006  0.2512351E+02  0.7546771E-02  0.1467426E+00
         21   -1    0    0  503  501  0.00000000000E+00  0.00000000000E+00  0.56917918536E+02  0.56917918536E+02  0.00000000000E+00 0.  1.
         21   -1    0    0  504  502 -0.00000000000E+00 -0.00000000000E+00 -0.35252802948E+02  0.35252802948E+02  0.00000000000E+00 0.  1.
         21    1    1    2  503  502  0.20915184837E+02 -0.13919268504E+02  0.48986933859E+02  0.55053707244E+02  0.00000000000E+00 0.  1.
         21    1    1    2  504  501 -0.20915184837E+02  0.13919268504E+02 -0.27321818271E+02  0.37117014240E+02  0.00000000000E+00 0.  1.
</event>
<event>
 4    1  0.3048956E+006  0.2249043E+02  0.7546771E-02  0.1498998E+00
         21   -1    0    0  504  501  0.00000000000E+00  0.00000000000E+00  0.60828287382E+01  0.60828287382E+01  0.00000000000E+00 0. -1.
         21   -1    0    0  503  502 -0.00000000000E+00 -0.00000000000E+00 -0.11402068197E+03  0.11402068197E+03  0.00000000000E+00 0.  1.
         21    1    1    2  503  501 -0.21450124917E+02 -0.67610475729E+01 -0.22724718967E+02  0.31972370499E+02  0.00000000000E+00 0. -1.
         21    1    1    2  504  502  0.21450124917E+02  0.67610475729E+01 -0.85213134260E+02  0.88131140204E+02  0.00000000000E+00 0.  1.
</event>
<event>
 4    1  0.3048956E+006  0.2100464E+02  0.7546771E-02  0.1519198E+00
         21   -1    0    0  503  501  0.00000000000E+00  0.00000000000E+00  0.14230633050E+03  0.14230633050E+03  0.00000000000E+00 0.  1.
         21   -1    0    0  501  502 -0.00000000000E+00 -0.00000000000E+00 -0.71382392139E+01  0.71382392139E+01  0.00000000000E+00 0.  1.
         21    1    1    2  503  504  0.19479312973E+02 -0.78582066009E+01  0.12378367506E+03  0.12555314912E+03  0.00000000000E+00 0.  1.
         21    1    1    2  504  502 -0.19479312973E+02  0.78582066009E+01  0.11384416231E+02  0.23891420590E+02  0.00000000000E+00 0.  1.
</event>
<event>
 4    1  0.3048956E+006  0.2699905E+02  0.7546771E-02  0.1447618E+00
         21   -1    0    0  504  501  0.00000000000E+00  0.00000000000E+00  0.36074847864E+01  0.36074847864E+01  0.00000000000E+00 0. -1.
         21   -1    0    0  503  502 -0.00000000000E+00 -0.00000000000E+00 -0.22161886491E+03  0.22161886491E+03  0.00000000000E+00 0. -1.
         21    1    1    2  503  501 -0.18588450996E+02 -0.19581064640E+02 -0.14245563480E+03  0.14499157386E+03  0.00000000000E+00 0. -1.
         21    1    1    2  504  502  0.18588450996E+02  0.19581064640E+02 -0.75555745323E+02  0.80234775841E+02  0.00000000000E+00 0. -1.
</event>
<event>
 4    1  0.3048956E+006  0.2542789E+02  0.7546771E-02  0.1464073E+00
         21   -1    0    0  504  501  0.00000000000E+00  0.00000000000E+00  0.57285232510E+01  0.57285232510E+01  0.00000000000E+00 0.  1.
         21   -1    0    0  503  502 -0.00000000000E+00 -0.00000000000E+00 -0.13457388831E+03  0.13457388831E+03  0.00000000000E+00 0.  1.
         21    1    1    2  503  501 -0.17990195328E+02  0.17970267762E+02 -0.92595147908E+02  0.96023117360E+02  0.00000000000E+00 0.  1.
         21    1    1    2  504  502  0.17990195328E+02 -0.17970267762E+02 -0.36250217146E+02  0.44279294196E+02  0.00000000000E+00 0.  1.
</event>
<event>
 4    1  0.3048956E+006  0.2025960E+02  0.7546771E-02  0.1530104E+00
         21   -1    0    0  503  501  0.00000000000E+00  0.00000000000E+00  0.24092873437E+03  0.24092873437E+03  0.00000000000E+00 0.  1.
         21   -1    0    0  501  502 -0.00000000000E+00 -0.00000000000E+00 -0.20473439087E+03  0.20473439087E+03  0.00000000000E+00 0. -1.
         21    1    1    2  503  504  0.18689143065E+02 -0.78209602457E+01  0.23999969219E+03  0.24085328260E+03  0.00000000000E+00 0.  1.
         21    1    1    2  504  502 -0.18689143065E+02  0.78209602457E+01 -0.20380534869E+03  0.20480984264E+03  0.00000000000E+00 0. -1.
</event>
<event>
 4    1  0.3048956E+006  0.2172230E+02  0.7546771E-02  0.1509197E+00
         21   -1    0    0  502  501  0.00000000000E+00  0.00000000000E+00  0.14296252845E+03  0.14296252845E+03  0.00000000000E+00 0. -1.
         21   -1    0    0  504  502 -0.00000000000E+00 -0.00000000000E+00 -0.42598289980E+02  0.42598289980E+02  0.00000000000E+00 0.  1.
         21    1    1    2  503  501  0.96381108536E+01 -0.19467023618E+02  0.13929569366E+03  0.14097924833E+03  0.00000000000E+00 0. -1.
         21    1    1    2  504  503 -0.96381108536E+01  0.19467023618E+02 -0.38931455186E+02  0.44581570096E+02  0.00000000000E+00 0.  1.
</event>
<event>
 4    1  0.3048956E+006  0.2058020E+02  0.7546771E-02  0.1525344E+00
         21   -1    0    0  504  501  0.00000000000E+00  0.00000000000E+00  0.23870118964E+02  0.23870118964E+02  0.00000000000E+00 0. -1.
         21   -1    0    0  503  502 -0.00000000000E+00 -0.00000000000E+00 -0.26167584831E+02  0.26167584831E+02  0.00000000000E+00 0. -1.
         21    1    1    2  503  501 -0.19549854656E+02 -0.64302195334E+01 -0.15343930160E+02  0.25670620037E+02  0.00000000000E+00 0. -1.
         21    1    1    2  504  502  0.19549854656E+02  0.64302195334E+01  0.13046464293E+02  0.24367083758E+02  0.00000000000E+00 0. -1.
</event>
<event>
 4    1  0.3048956E+006  0.2191720E+02  0.7546771E-02  0.1506562E+00
         21   -1    0    0  503  501  0.00000000000E+00  0.00000000000E+00  0.50102835384E+01  0.50102835384E+01  0.00000000000E+00 0.  1.
         21   -1    0    0  504  502 -0.00000000000E+00 -0.00000000000E+00 -0.95886705720E+02  0.95886705720E+02  0.00000000000E+00 0.  1.
         21    1    1    2  503  502 -0.21815698950E+02 -0.21069113295E+01 -0.45981843297E+02  0.50938136097E+02  0.00000000000E+00 0.  1.
         21    1    1    2  504  501  0.21815698950E+02  0.21069113295E+01 -0.44894578885E+02  0.49958853162E+02  0.00000000000E+00 0.  1.
</event>
<event>
 4    1  0.3048956E+006  0.2395046E+02  0.7546771E-02  0.1480896E+00
         21   -1    0    0  504  501  0.00000000000E+00  0.00000000000E+00  0.79839293714E+01  0.79839293714E+01  0.00000000000E+00 0. -1.
         21   -1    0    0  503  502 -0.00000000000E+00 -0.00000000000E+00 -0.72432522694E+02  0.72432522694E+02  0.00000000000E+00 0. -1.
         21    1    1    2  503  501  0.20870874812E+02  0.11748664483E+02 -0.35838172157E+02  0.43104513872E+02  0.00000000000E+00 0. -1.
         21    1    1    2  504  502 -0.20870874812E+02 -0.11748664483E+02 -0.28610421165E+02  0.37311938194E+02  0.00000000000E+00 0. -1.
</event>
<event>
 4    1  0.3048956E+006  0.2447556E+02  0.7546771E-02  0.1474757E+00
         21   -1    0    0  503  501  0.00000000000E+00  0.00000000000E+00  0.26429228370E+01  0.26429228370E+01  0.00000000000E+00 0.  1.
         21   -1    0    0  504  502 -0.00000000000E+00 -0.00000000000E+00 -0.23530911056E+03  0.23530911056E+03  0.00000000000E+00 0.  1.
         21    1    1    2  503  502  0.16321154141E+02 -0.18239324927E+02 -0.13913905006E+03  0.14127536338E+03  0.00000000000E+00 0.  1.
         21    1    1    2  504  501 -0.16321154141E+02  0.18239324927E+02 -0.93527137655E+02  0.96676670010E+02  0.00000000000E+00 0.  1.
</event>
<event>
 4    1  0.3048956E+006  0.2458293E+02  0.7546771E-02  0.1473524E+00
         21   -1    0    0  504  501  0.00000000000E+00  0.00000000000E+00  0.47074664211E+02  0.47074664211E+02  0.00000000000E+00 0. -1.
         21   -1    0    0  503  502 -0.00000000000E+00 -0.00000000000E+00 -0.17541275136E+02  0.17541275136E+02  0.00000000000E+00 0. -1.
         21    1    1    2  503  501 -0.32307588581E+01 -0.24369705137E+02 -0.19635781627E+01  0.24661224026E+02  0.00000000000E+00 0. -1.
         21    1    1    2  504  502  0.32307588581E+01  0.24369705137E+02  0.31496967238E+02  0.39954715322E+02  0.00000000000E+00 0. -1.
</event>
<event>
 4    1  0.3048956E+006  0.4853617E+02  0.7546771E-02  0.1304647E+00
         21   -1    0    0  503  501  0.00000000000E+00  0.00000000000E+00  0.40574769020E+02  0.40574769020E+02  0.00000000000E+00 0.  1.
         21   -1    0    0  501  502 -0.00000000000E+00 -0.00000000000E+00 -0.69043382067E+03  0.69043382067E+03  0.00000000000E+00 0. -1.
         21    1    1    2  503  504 -0.88110916126E+01  0.47729701669E+02  0.24869417430E+02  0.54536663632E+02  0.00000000000E+00 0.  1.
         21    1    1    2  504  502  0.88110916126E+01 -0.47729701669E+02 -0.67472846908E+03  0.67647192605E+03  0.00000000000E+00 0. -1.
</event>
<event>
 4    1  0.3048956E+006  0.2116031E+02  0.7546771E-02  0.1516988E+00
         21   -1    0    0  504  501  0.00000000000E+00  0.00000000000E+00  0.20863133760E+03  0.20863133760E+03  0.00000000000E+00 0.  1.
         21   -1    0    0  501  502 -0.00000000000E+00 -0.00000000000E+00 -0.24404035579E+02  0.24404035579E+02  0.00000000000E+00 0. -1.
         21    1    1    2  503  502 -0.16524121172E+02 -0.13217870528E+02 -0.19162672688E+02  0.28547621728E+02  0.00000000000E+00 0. -1.
         21    1    1    2  504  503  0.16524121172E+02  0.13217870528E+02  0.20338997471E+03  0.20448775145E+03  0.00000000000E+00 0.  1.
</event>
<event>
 4    1  0.3048956E+006  0.3188440E+02  0.7546771E-02  0.1403898E+00
         21   -1    0    0  503  501  0.00000000000E+00  0.00000000000E+00  0.66744061464E+02  0.66744061464E+02  0.00000000000E+00 0.  1.
         21   -1    0    0  504  502 -0.00000000000E+00 -0.00000000000E+00 -0.86744914852E+02  0.86744914852E+02  0.00000000000E+00 0.  1.
         21    1    1    2  503  502 -0.13321012021E+02 -0.28968353936E+02  0.59681285912E+02  0.67664398166E+02  0.00000000000E+00 0.  1.
         21    1    1    2  504  501  0.13321012021E+02  0.28968353936E+02 -0.79682139301E+02  0.85824578150E+02  0.00000000000E+00 0.  1.
</event>
<event>
 4    1  0.3048956E+006  0.2188134E+02  0.7546771E-02  0.1507044E+00
         21   -1    0    0  502  501  0.00000000000E+00  0.00000000000E+00  0.69520830435E+03  0.69520830435E+03  0.00000000000E+00 0. -1.
         21   -1    0    0  504  502 -0.00000000000E+00 -0.00000000000E+00 -0.13838167417E+01  0.13838167417E+01  0.00000000000E+00 0. -1.
         21    1    1    2  503  501  0.19059181832E+02  0.10748981592E+02  0.59376431312E+03  0.59416736072E+03  0.00000000000E+00 0. -1.
         21    1    1    2  504  503 -0.19059181832E+02 -0.10748981592E+02  0.10006017449E+03  0.10242476037E+03  0.00000000000E+00 0. -1.
</event>
<event>
 4    1  0.3048956E+006  0.3344874E+02  0.7546771E-02  0.1391810E+00
         21   -1    0    0  503  501  0.00000000000E+00  0.00000000000E+00  0.26927114647E+03  0.26927114647E+03  0.00000000000E+00 0. -1.
         21   -1    0    0  504  502 -0.00000000000E+00 -0.00000000000E+00 -0.45529808828E+01  0.45529808828E+01  0.00000000000E+00 0. -1.
         21    1    1    2  503  502  0.33362909969E+02 -0.23946520777E+01  0.17283828899E+03  0.17604514268E+03  0.00000000000E+00 0. -1.
         21    1    1    2  504  501 -0.33362909969E+02  0.23946520777E+01  0.91879876603E+02  0.97778984679E+02  0.00000000000E+00 0. -1.
</event>
<event>
 4    1  0.3048956E+006  0.2711730E+02  0.7546771E-02  0.1446433E+00
         21   -1    0    0  504  501  0.00000000000E+00  0.00000000000E+00  0.68317559544E+02  0.68317559544E+02  0.00000000000E+00 0. -1.
         21   -1    0    0  503  502 -0.00000000000E+00 -0.00000000000E+00 -0.20707312827E+02  0.20707312827E+02  0.00000000000E+00 0.  1.
         21    1    1    2  503  501 -0.57756355454E+01 -0.26495098145E+02 -0.70403956378E+01  0.28016340989E+02  0.00000000000E+00 0.  1.
         21    1    1    2  504  502  0.57756355454E+01  0.26495098145E+02  0.54650642355E+02  0.61008531383E+02  0.00000000000E+00 0. -1.
</event>
<event>
 4    1  0.3048956E+006  0.2122442E+02  0.7546771E-02  0.1516085E+00
         21   -1    0    0  504  501  0.00000000000E+00  0.00000000000E+00  0.13896046752E+02  0.13896046752E+02  0.00000000000E+00 0. -1.
         21   -1    0    0  503  502 -0.00000000000E+00 -0.00000000000E+00 -0.78127793111E+02  0.78127793111E+02  0.00000000000E+00 0. -1.
         21    1    1    2  503  501  0.12617890403E+02 -0.17066480094E+02  0.30785867065E+01  0.21446528790E+02  0.00000000000E+00 0. -1.
         21    1    1    2  504  502 -0.12617890403E+02  0.17066480094E+02 -0.67310333065E+02  0.70577311074E+02  0.00000000000E+00 0. -1.
</event>
<event>
 4    1  0.3048956E+006  0.2219997E+02  0.7546771E-02  0.1502796E+00
         21   -1    0    0  502  501  0.00000000000E+00  0.00000000000E+00  0.18345169694E+02  0.18345169694E+02  0.00000000000E+00 0. -1.
         21   -1    0    0  503  502 -0.00000000000E+00 -0.00000000000E+00 -0.74424396792E+02  0.74424396792E+02  0.00000000000E+00 0. -1.
         21    1    1    2  503  504 -0.10542267268E+02  0.19537126077E+02 -0.65119389914E+02  0.68799517712E+02  0.00000000000E+00 0. -1.
         21    1    1    2  504  501  0.10542267268E+02 -0.19537126077E+02  0.90401628165E+01  0.23970048775E+02  0.00000000000E+00 0. -1.
</event>
<event>
 4    1  0.3048956E+006  0.2463767E+02  0.7546771E-02  0.1472898E+00
         21   -1    0    0  503  501  0.00000000000E+00  0.00000000000E+00  0.17926160705E+03  0.17926160705E+03  0.00000000000E+00 0.  1.
         21   -1    0    0  504  502 -0.00000000000E+00 -0.00000000000E+00 -0.52387304494E+01  0.52387304494E+01  0.00000000000E+00 0.  1.
         21    1    1    2  503  502  0.17017960979E+02 -0.17815835313E+02  0.14186909576E+03  0.14399255299E+03  0.00000000000E+00 0.  1.
         21    1    1    2  504  501 -0.17017960979E+02  0.17815835313E+02  0.32153780841E+02  0.40507784513E+02  0.00000000000E+00 0.  1.
</event>
<event>
 4    1  0.3048956E+006  0.2281455E+02  0.7546771E-02  0.1494840E+00
         21   -1    0    0  504  501  0.00000000000E+00  0.00000000000E+00  0.30096734677E+01  0.30096734677E+01  0.00000000000E+00 0. -1.
         21   -1    0    0  503  502 -0.00000000000E+00 -0.00000000000E+00 -0.18616035180E+03  0.18616035180E+03  0.00000000000E+00 0. -1.
         21    1    1    2  503  501  0.95776395569E+01  0.20706818528E+02 -0.66372906124E+02  0.70184515246E+02  0.00000000000E+00 0. -1.
         21    1    1    2  504  502 -0.95776395569E+01 -0.20706818528E+02 -0.11677777221E+03  0.11898551002E+03  0.00000000000E+00 0. -1.
</event>
<event>
 4    1  0.3048956E+006  0.2806871E+02  0.7546771E-02  0.1437158E+00
         21   -1    0    0  504  501  0.00000000000E+00  0.00000000000E+00  0.38867911291E+02  0.38867911291E+02  0.00000000000E+00 0. -1.
         21   -1    0    0  503  502 -0.00000000000E+00 -0.00000000000E+00 -0.26165447926E+02  0.26165447926E+02  0.00000000000E+00 0. -1.
         21    1    1    2  503  501 -0.25357388679E+02 -0.12035585030E+02  0.21786017171E+02  0.35531436951E+02  0.00000000000E+00 0. -1.
         21    1    1    2  504  502  0.25357388679E+02  0.12035585030E+02 -0.90835538056E+01  0.29501922266E+02  0.00000000000E+00 0. -1.
</event>
<event>
 4    1  0.3048956E+006  0.2412421E+02  0.7546771E-02  0.1478844E+00
         21   -1    0    0  504  501  0.00000000000E+00  0.00000000000E+00  0.20422943720E+02  0.20422943720E+02  0.00000000000E+00 0. -1.
         21   -1    0    0  501  502 -0.00000000000E+00 -0.00000000000E+00 -0.18411113623E+03  0.18411113623E+03  0.00000000000E+00 0. -1.
         21    1    1    2  503  502 -0.98420637183E+00 -0.24104125355E+02 -0.17586430522E+03  0.17751121478E+03  0.00000000000E+00 0. -1.
         21    1    1    2  504  503  0.98420637183E+00  0.24104125355E+02  0.12176112711E+02  0.27022865172E+02  0.00000000000E+00 0. -1.
</event>
<event>
 4    1  0.3048956E+006  0.2104683E+02  0.7546771E-02  0.1518597E+00
         21   -1    0    0  504  501  0.00000000000E+00  0.00000000000E+00  0.37137141649E+01  0.37137141649E+01  0.00000000000E+00 0. -1.
         21   -1    0    0  503  502 -0.00000000000E+00 -0.00000000000E+00 -0.12559732644E+03  0.12559732644E+03  0.00000000000E+00 0. -1.
         21    1    1    2  503  501 -0.14245880102E+02  0.15492711027E+02 -0.46440523368E+02  0.50987169028E+02  0.00000000000E+00 0. -1.
         21    1    1    2  504  502  0.14245880102E+02 -0.15492711027E+02 -0.75443088903E+02  0.78323871572E+02  0.00000000000E+00 0. -1.
</event>
<event>
 4    1  0.3048956E+006  0.3208542E+02  0.7546771E-02  0.1402299E+00
         21   -1    0    0  503  501  0.00000000000E+00  0.00000000000E+00  0.15273818249E+02  0.15273818249E+02  0.00000000000E+00 0.  1.
         21   -1    0    0  504  502 -0.00000000000E+00 -0.00000000000E+00 -0.10089508475E+03  0.10089508475E+03  0.00000000000E+00 0. -1.
         21    1    1    2  503  502 -0.26034739556E+02  0.18752781215E+02 -0.93443629868E+01  0.33418431841E+02  0.00000000000E+00 0.  1.
         21    1    1    2  504  501  0.26034739556E+02 -0.18752781215E+02 -0.76276903514E+02  0.82750471157E+02  0.00000000000E+00 0. -1.
</event>
<event>
 4    1  0.3048956E+006  0.2432943E+02  0.7546771E-02  0.1476447E+00
         21   -1    0    0  503  501  0.00000000000E+00  0.00000000000E+00  0.41348529891E+01  0.41348529891E+01  0.00000000000E+00 0. -1.
         21   -1    0    0  504  502 -0.00000000000E+00 -0.00000000000E+00 -0.54981338315E+03  0.54981338315E+03  0.00000000000E+00 0. -1.
         21    1    1    2  503  502 -0.11760674665E+02  0.21298063732E+02 -0.51104208702E+03  0.51162089060E+03  0.00000000000E+00 0. -1.
         21    1    1    2  504  501  0.11760674665E+02 -0.21298063732E+02 -0.34636443139E+02  0.42327345542E+02  0.00000000000E+00 0. -1.
</event>
<event>
 4    1  0.3048956E+006  0.2721467E+02  0.7546771E-02  0.1445464E+00
         21   -1    0    0  504  501  0.00000000000E+00  0.00000000000E+00  0.19788240794E+03  0.19788240794E+03  0.00000000000E+00 0.  1.
         21   -1    0    0  503  502 -0.00000000000E+00 -0.00000000000E+00 -0.27297859326E+03  0.27297859326E+03  0.00000000000E+00 0. -1.
         21    1    1    2  503  501 -0.13679809720E+02 -0.23526608693E+02 -0.27135902367E+03  0.27272029305E+03  0.00000000000E+00 0. -1.
         21    1    1    2  504  502  0.13679809720E+02  0.23526608693E+02  0.19626283835E+03  0.19814070815E+03  0.00000000000E+00 0.  1.
</event>
<event>
 4    1  0.3048956E+006  0.2498570E+02  0.7546771E-02  0.1468963E+00
         21   -1    0    0  503  501  0.00000000000E+00  0.00000000000E+00  0.33591487799E+03  0.33591487799E+03  0.00000000000E+00 0. -1.
         21   -1    0    0  504  502 -0.00000000000E+00 -0.00000000000E+00 -0.68792411421E+01  0.68792411421E+01  0.00000000000E+00 0. -1.
         21    1    1    2  503  502 -0.19489417475E+02 -0.15634829416E+02  0.18091673924E+02  0.30847916457E+02  0.00000000000E+00 0. -1.
         21    1    1    2  504  501  0.19489417475E+02  0.15634829416E+02  0.31094396293E+03  0.31194620268E+03  0.00000000000E+00 0. -1.
</event>
<event>
 4    1  0.3048956E+006  0.3300749E+02  0.7546771E-02  0.1395139E+00
         21   -1    0    0  504  501  0.00000000000E+00  0.00000000000E+00  0.30879538795E+03  0.30879538795E+03  0.00000000000E+00 0.  1.
         21   -1    0    0  503  502 -0.00000000000E+00 -0.00000000000E+00 -0.35756954508E+01  0.35756954508E+01  0.00000000000E+00 0.  1.
         21    1    1    2  503  501 -0.27297551018E+02 -0.18556356952E+02  0.13461097359E+03  0.13859873335E+03  0.00000000000E+00 0.  1.
         21    1    1    2  504  502  0.27297551018E+02  0.18556356952E+02  0.17060871890E+03  0.17377235005E+03  0.00000000000E+00 0.  1.
</event>
<event>
 4    1  0.3048956E+006  0.2323354E+02  0.7546771E-02  0.1489586E+00
         21   -1    0    0  503  501  0.00000000000E+00  0.00000000000E+00  0.63932498029E+02  0.63932498029E+02  0.00000000000E+00 0. -1.
         21   -1    0    0  504  502 -0.00000000000E+00 -0.00000000000E+00 -0.29619960214E+02  0.29619960214E+02  0.00000000000E+00 0. -1.
         21    1    1    2  503  502 -0.54546934637E+01 -0.22584147204E+02 -0.22395173669E+02  0.32269818552E+02  0.00000000000E+00 0. -1.
         21    1    1    2  504  501  0.54546934637E+01  0.22584147204E+02  0.56707711484E+02  0.61282639691E+02  0.00000000000E+00 0. -1.
</event>
<event>
 4    1  0.3048956E+006  0.2480380E+02  0.7546771E-02  0.1471010E+00
         21   -1    0    0  502  501  0.00000000000E+00  0.00000000000E+00  0.68106856958E+02  0.68106856958E+02  0.00000000000E+00 0.  1.
         21   -1    0    0  503  502 -0.00000000000E+00 -0.00000000000E+00 -0.28704869238E+03  0.28704869238E+03  0.00000000000E+00 0.  1.
         21    1    1    2  503  504  0.21045624142E+02  0.13126700881E+02 -0.28423221350E+03  0.28531242483E+03  0.00000000000E+00 0.  1.
         21    1    1    2  504  501 -0.21045624142E+02 -0.13126700881E+02  0.65290378078E+02  0.69843124508E+02  0.00000000000E+00 0.  1.
</event>
<event>
 4    1  0.3048956E+006  0.2062979E+02  0.7546771E-02  0.1524617E+00
         21   -1    0    0  504  501  0.00000000000E+00  0.00000000000E+00  0.14888811363E+02  0.14888811363E+02  0.00000000000E+00 0. -1.
         21   -1    0    0  503  502 -0.00000000000E+00 -0.00000000000E+00 -0.32472761845E+02  0.32472761845E+02  0.00000000000E+00 0. -1.
         21    1    1    2  503  501 -0.20469552644E+02  0.25662586169E+01 -0.16986388492E+02  0.26723129733E+02  0.00000000000E+00 0. -1.
         21    1    1    2  504  502  0.20469552644E+02 -0.25662586169E+01 -0.59756199021E+00  0.20638443475E+02  0.00000000000E+00 0. -1.
</event>
<event>
 4    1  0.3048956E+006  0.3050521E+02  0.7546771E-02  0.1415256E+00
         21   -1    0    0  502  501  0.00000000000E+00  0.00000000000E+00  0.25112113682E+02  0.25112113682E+02  0.00000000000E+00 0. -1.
         21   -1    0    0  504  502 -0.00000000000E+00 -0.00000000000E+00 -0.51797925429E+02  0.51797925429E+02  0.00000000000E+00 0. -1.
         21    1    1    2  503  501 -0.28053383604E+02 -0.11982307891E+02  0.71718338220E+01  0.31336930839E+02  0.00000000000E+00 0. -1.
         21    1    1    2  504  503  0.28053383604E+02  0.11982307891E+02 -0.33857645569E+02  0.45573108272E+02  0.00000000000E+00 0. -1.
</event>
<event>
 4    1  0.3048956E+006  0.2084595E+02  0.7546771E-02  0.1521476E+00
         21   -1    0    0  503  501  0.00000000000E+00  0.00000000000E+00  0.43861896089E+01  0.43861896089E+01  0.00000000000E+00 0. -1.
         21   -1    0    0  504  502 -0.00000000000E+00 -0.00000000000E+00 -0.11019345511E+03  0.11019345511E+03  0.00000000000E+00 0. -1.
         21    1    1    2  503  502 -0.79080362136E+01  0.19287730494E+02 -0.34704190008E+02  0.40483754624E+02  0.00000000000E+00 0. -1.
         21    1    1    2  504  501  0.79080362136E+01 -0.19287730494E+02 -0.71103075488E+02  0.74095890090E+02  0.00000000000E+00 0. -1.
</event>
<event>
 4    1  0.3048956E+006  0.3833390E+02  0.7546771E-02  0.1358536E+00
         21   -1    0    0  503  501  0.00000000000E+00  0.00000000000E+00  0.14841100628E+03  0.14841100628E+03  0.00000000000E+00 0.  1.
         21   -1    0    0  504  502 -0.00000000000E+00 -0.00000000000E+00 -0.10883741655E+02  0.10883741655E+02  0.00000000000E+00 0.  1.
         21    1    1    2  503  502  0.10796239172E+02 -0.36782184659E+02  0.44836149123E+02  0.58989559726E+02  0.00000000000E+00 0.  1.
         21    1    1    2  504  501 -0.10796239172E+02  0.36782184659E+02  0.92691115501E+02  0.10030518821E+03  0.00000000000E+00 0.  1.
</event>
<event>
 4    1  0.3048956E+006  0.2402605E+02  0.7546771E-02  0.1480001E+00
         21   -1    0    0  502  501  0.00000000000E+00  0.00000000000E+00  0.38710343563E+02  0.38710343563E+02  0.00000000000E+00 0.  1.
         21   -1    0    0  504  502 -0.00000000000E+00 -0.00000000000E+00 -0.16465831487E+02  0.16465831487E+02  0.00000000000E+00 0.  1.
         21    1    1    2  503  501  0.51105115746E+01 -0.23476240626E+02  0.19596919897E+02  0.31004684677E+02  0.00000000000E+00 0.  1.
         21    1    1    2  504  503 -0.51105115746E+01  0.23476240626E+02  0.26475921789E+01  0.24171490373E+02  0.00000000000E+00 0.  1.
</event>
<event>
 4    1  0.3048956E+006  0.3288858E+02  0.7546771E-02  0.1396047E+00
         21   -1    0    0  503  501  0.00000000000E+00  0.00000000000E+00  0.15990364550E+01  0.15990364550E+01  0.00000000000E+00 0.  1.
         21   -1    0    0  501  502 -0.00000000000E+00 -0.00000000000E+00 -0.68469639226E+03  0.68469639226E+03  0.00000000000E+00 0.  1.
         21    1    1    2  503  504 -0.27195093935E+02  0.18495556804E+02 -0.30387658741E+03  0.30565117230E+03  0.00000000000E+00 0.  1.
         21    1    1    2  504  502  0.27195093935E+02 -0.18495556804E+02 -0.37922076840E+03  0.38064425641E+03  0.00000000000E+00 0.  1.
</event>
<event>
 4    1  0.3048956E+006  0.3683963E+02  0.7546771E-02  0.1368072E+00
         21   -1    0    0  502  501  0.00000000000E+00  0.00000000000E+00  0.15473902764E+03  0.15473902764E+03  0.00000000000E+00 0.  1.
         21   -1    0    0  503  502 -0.00000000000E+00 -0.00000000000E+00 -0.21557461797E+02  0.21557461797E+02  0.00000000000E+00 0. -1.
         21    1    1    2  503  504  0.35126584577E+02 -0.11103227219E+02 -0.12977384529E+01  0.36862483962E+02  0.00000000000E+00 0. -1.
         21    1    1    2  504  501 -0.35126584577E+02  0.11103227219E+02  0.13447930430E+03  0.13943400547E+03  0.00000000000E+00 0.  1.
</event>
<event>
 4    1  0.3048956E+006  0.2315339E+02  0.7546771E-02  0.1490581E+00
         21   -1    0    0  503  501  0.00000000000E+00  0.00000000000E+00  0.43095877280E+03  0.43095877280E+03  0.00000000000E+00 0. -1.
         21   -1    0    0  501  502 -0.00000000000E+00 -0.00000000000E+00 -0.39649926383E+01  0.39649926383E+01  0.00000000000E+00 0. -1.
         21    1    1    2  503  504 -0.18766807015E+02  0.13560468373E+02  0.39364587232E+03  0.39432620018E+03  0.00000000000E+00 0. -1.
         21    1    1    2  504  502  0.18766807015E+02 -0.13560468373E+02  0.33347907839E+02  0.40597565263E+02  0.00000000000E+00 0. -1.
</event>
<event>
 4    1  0.3048956E+006  0.2159029E+02  0.7546771E-02  0.1511001E+00
         21   -1    0    0  504  501  0.00000000000E+00  0.00000000000E+00  0.68938583629E+02  0.68938583629E+02  0.00000000000E+00 0.  1.
         21   -1    0    0  503  502 -0.00000000000E+00 -0.00000000000E+00 -0.26346983821E+02  0.26346983821E+02  0.00000000000E+00 0.  1.
         21    1    1    2  503  501  0.21457748281E+02  0.23886343882E+01 -0.19781023439E+02  0.29281895838E+02  0.00000000000E+00 0.  1.
         21    1    1    2  504  502 -0.21457748281E+02 -0.23886343882E+01  0.62372623248E+02  0.66003671613E+02  0.00000000000E+00 0.  1.
</event>
<event>
 4    1  0.3048956E+006  0.2677840E+02  0.7546771E-02  0.1449847E+00
         21   -1    0    0  504  501  0.00000000000E+00  0.00000000000E+00  0.53756417562E+02  0.53756417562E+02  0.00000000000E+00 0. -1.
         21   -1    0    0  503  502 -0.00000000000E+00 -0.00000000000E+00 -0.60581788586E+02  0.60581788586E+02  0.00000000000E+00 0. -1.
         21    1    1    2  503  501 -0.24743337002E+02  0.10239636983E+02  0.47071559880E+02  0.54155467324E+02  0.00000000000E+00 0. -1.
         21    1    1    2  504  502  0.24743337002E+02 -0.10239636983E+02 -0.53896930904E+02  0.60182738825E+02  0.00000000000E+00 0. -1.
</event>
<event>
 4    1  0.3048956E+006  0.2846311E+02  0.7546771E-02  0.1433440E+00
         21   -1    0    0  504  501  0.00000000000E+00  0.00000000000E+00  0.94894515250E+03  0.94894515250E+03  0.00000000000E+00 0.  1.
         21   -1    0    0  501  502 -0.00000000000E+00 -0.00000000000E+00 -0.39658937640E+01  0.39658937640E+01  0.00000000000E+00 0.  1.
         21    1    1    2  503  502 -0.23022650703E+02 -0.16736379791E+02  0.50421447148E+02  0.57900528378E+02  0.00000000000E+00 0.  1.
         21    1    1    2  504  503  0.23022650703E+02  0.16736379791E+02  0.89455781159E+03  0.89501051789E+03  0.00000000000E+00 0.  1.
</event>
<event>
 4    1  0.3048956E+006  0.2135206E+02  0.7546771E-02  0.1514297E+00
         21   -1    0    0  502  501  0.00000000000E+00  0.00000000000E+00  0.66302179268E+02  0.66302179268E+02  0.00000000000E+00 0. -1.
         21   -1    0    0  504  502 -0.00000000000E+00 -0.00000000000E+00 -0.74053857601E+01  0.74053857601E+01  0.00000000000E+00 0.  1.
         21    1    1    2  503  501 -0.20518675245E+02 -0.59071395455E+01  0.39299660802E+02  0.44725537119E+02  0.00000000000E+00 0. -1.
         21    1    1    2  504  503  0.20518675245E+02  0.59071395455E+01  0.19597132707E+02  0.28982027910E+02  0.00000000000E+00 0.  1.
</event>
<event>
 4    1  0.3048956E+006  0.3342843E+02  0.7546771E-02  0.1391962E+00
         21   -1    0    0  503  501  0.00000000000E+00  0.00000000000E+00  0.30522460351E+03  0.30522460351E+03  0.00000000000E+00 0.  1.
         21   -1    0    0  501  502 -0.00000000000E+00 -0.00000000000E+00 -0.28900740145E+02  0.28900740145E+02  0.00000000000E+00 0.  1.
         21    1    1    2  503  504  0.14406181069E+02  0.30164912028E+02  0.29428477722E+03  0.29617729500E+03  0.00000000000E+00 0.  1.
         21    1    1    2  504  502 -0.14406181069E+02 -0.30164912028E+02 -0.17960913851E+02  0.37948048659E+02  0.00000000000E+00 0.  1.
</event>
<event>
 4    1  0.3048956E+006  0.2194635E+02  0.7546771E-02  0.1506170E+00
         21   -1    0    0  504  501  0.00000000000E+00  0.00000000000E+00  0.10527407910E+02  0.10527407910E+02  0.00000000000E+00 0. -1.
         21   -1    0    0  503  502 -0.00000000000E+00 -0.00000000000E+00 -0.56698085444E+02  0.56698085444E+02  0.00000000000E+00 0.  1.
         21    1    1    2  503  501  0.17534913287E+02 -0.13197311825E+02 -0.37854771440E+02  0.43756438888E+02  0.00000000000E+00 0.  1.
         21    1    1    2  504  502 -0.17534913287E+02  0.13197311825E+02 -0.83159060940E+01  0.23469054467E+02  0.00000000000E+00 0. -1.
</event>
<event>
 4    1  0.3048956E+006  0.2382928E+02  0.7546771E-02  0.1482339E+00
         21   -1    0    0  504  501  0.00000000000E+00  0.00000000000E+00  0.10093861833E+02  0.10093861833E+02  0.00000000000E+00 0.  1.
         21   -1    0    0  503  502 -0.00000000000E+00 -0.00000000000E+00 -0.39546099719E+03  0.39546099719E+03  0.00000000000E+00 0. -1.
         21    1    1    2  503  501 -0.13287030976E+02 -0.19781030275E+02 -0.38048516531E+03  0.38123063278E+03  0.00000000000E+00 0. -1.
         21    1    1    2  504  502  0.13287030976E+02  0.19781030275E+02 -0.48819700541E+01  0.24324226247E+02  0.00000000000E+00 0.  1.
</event>
<event>
 4    1  0.3048956E+006  0.2255812E+02  0.7546771E-02  0.1498123E+00
         21   -1    0    0  504  501  0.00000000000E+00  0.00000000000E+00  0.49273642211E+02  0.49273642211E+02  0.00000000000E+00 0.  1.
         21   -1    0    0  503  502 -0.00000000000E+00 -0.00000000000E+00 -0.14426684286E+02  0.14426684286E+02  0.00000000000E+00 0. -1.
         21    1    1    2  503  501  0.22464695781E+01 -0.22445982610E+02  0.44564593044E+00  0.22562521162E+02  0.00000000000E+00 0. -1.
         21    1    1    2  504  502 -0.22464695781E+01  0.22445982610E+02  0.34401311994E+02  0.41137805335E+02  0.00000000000E+00 0.  1.
</event>
<event>
 4    1  0.3048956E+006  0.2811708E+02  0.7546771E-02  0.1436698E+00
         21   -1    0    0  503  501  0.00000000000E+00  0.00000000000E+00  0.10195653647E+03  0.10195653647E+03  0.00000000000E+00 0. -1.
         21   -1    0    0  504  502 -0.00000000000E+00 -0.00000000000E+00 -0.18686776431E+02  0.18686776431E+02  0.00000000000E+00 0. -1.
         21    1    1    2  503  502 -0.26766089671E+02 -0.86108324933E+01  0.87774232012E+02  0.92167704744E+02  0.00000000000E+00 0. -1.
         21    1    1    2  504  501  0.26766089671E+02  0.86108324933E+01 -0.45044719685E+01  0.28475608162E+02  0.00000000000E+00 0. -1.
</event>
<event>
 4    1  0.3048956E+006  0.2091521E+02  0.7546771E-02  0.1520479E+00
         21   -1    0    0  504  501  0.00000000000E+00  0.00000000000E+00  0.11925270911E+04  0.11925270911E+04  0.00000000000E+00 0. -1.
         21   -1    0    0  503  502 -0.00000000000E+00 -0.00000000000E+00 -0.75072618875E+00  0.75072618875E+00  0.00000000000E+00 0. -1.
         21    1    1    2  503  501  0.17039610057E+02  0.12128381742E+02  0.16922826705E+03  0.17051584185E+03  0.00000000000E+00 0. -1.
         21    1    1    2  504  502 -0.17039610057E+02 -0.12128381742E+02  0.10225480978E+04  0.10227619754E+04  0.00000000000E+00 0. -1.
</event>
<event>
 4    1  0.3048956E+006  0.2734066E+02  0.7546771E-02  0.1444216E+00
         21   -1    0    0  502  501  0.00000000000E+00  0.00000000000E+00  0.62740438002E+02  0.62740438002E+02  0.00000000000E+00 0. -1.
         21   -1    0    0  503  502 -0.00000000000E+00 -0.00000000000E+00 -0.20686146122E+02  0.20686146122E+02  0.00000000000E+00 0. -1.
         21    1    1    2  503  504 -0.23809161033E+02  0.13440066623E+02 -0.61359292474E+01  0.28020727465E+02  0.00000000000E+00 0. -1.
         21    1    1    2  504  501  0.23809161033E+02 -0.13440066623E+02  0.48190221127E+02  0.55405856660E+02  0.00000000000E+00 0. -1.
</event>
<event>
 4    1  0.3048956E+006  0.4515320E+02  0.7546771E-02  0.1320675E+00
         21   -1    0    0  503  501  0.00000000000E+00  0.00000000000E+00  0.70994241476E+02  0.70994241476E+02  0.00000000000E+00 0. -1.
         21   -1    0    0  504  502 -0.00000000000E+00 -0.00000000000E+00 -0.73377998715E+02  0.73377998715E+02  0.00000000000E+00 0. -1.
         21    1    1    2  503  502 -0.38981124742E+02 -0.22787788608E+02  0.55123914615E+02  0.71256279431E+02  0.00000000000E+00 0. -1.
         21    1    1    2  504  501  0.38981124742E+02  0.22787788608E+02 -0.57507671854E+02  0.73115960760E+02  0.00000000000E+00 0. -1.
</event>
<event>
 4    1  0.3048956E+006  0.3217108E+02  0.7546771E-02  0.1401622E+00
         21   -1    0    0  503  501  0.00000000000E+00  0.00000000000E+00  0.39883499688E+00  0.39883499688E+00  0.00000000000E+00 0. -1.
         21   -1    0    0  504  502 -0.00000000000E+00 -0.00000000000E+00 -0.27893224697E+04  0.27893224697E+04  0.00000000000E+00 0. -1.
         21    1    1    2  503  502  0.27018622750E+02 -0.17463465611E+02 -0.10263006677E+04  0.10268047717E+04  0.00000000000E+00 0. -1.
         21    1    1    2  504  501 -0.27018622750E+02  0.17463465611E+02 -0.17626229670E+04  0.17629165330E+04  0.00000000000E+00 0. -1.
</event>
<event>
 4    1  0.3048956E+006  0.2959816E+02  0.7546771E-02  0.1423121E+00
         21   -1    0    0  503  501  0.00000000000E+00  0.00000000000E+00  0.13564408695E+04  0.13564408695E+04  0.00000000000E+00 0. -1.
         21   -1    0    0  504  502 -0.00000000000E+00 -0.00000000000E+00 -0.64946169592E+00  0.64946169592E+00  0.00000000000E+00 0. -1.
         21    1    1    2  503  502 -0.24653410317E+02  0.16378661747E+02  0.72852819830E+03  0.72912919769E+03  0.00000000000E+00 0. -1.
         21    1    1    2  504  501  0.24653410317E+02 -0.16378661747E+02  0.62726320946E+03  0.62796113346E+03  0.00000000000E+00 0. -1.
</event>
<event>
 4    1  0.3048956E+006  0.2513195E+02  0.7546771E-02  0.1467333E+00
         21   -1    0    0  504  501  0.00000000000E+00  0.00000000000E+00  0.86756882932E+01  0.86756882932E+01  0.00000000000E+00 0. -1.
         21   -1    0    0  503  502 -0.00000000000E+00 -0.00000000000E+00 -0.91915299810E+02  0.91915299810E+02  0.00000000000E+00 0. -1.
         21    1    1    2  503  501 -0.69052388778E+01 -0.24164692158E+02 -0.18685079221E+02  0.31316878142E+02  0.00000000000E+00 0. -1.
         21    1    1    2  504  502  0.69052388778E+01  0.24164692158E+02 -0.64554532296E+02  0.69274109962E+02  0.00000000000E+00 0. -1.
</event>
<event>
 4    1  0.3048956E+006  0.3461555E+02  0.7546771E-02  0.1383286E+00
         21   -1    0    0  504  501  0.00000000000E+00  0.00000000000E+00  0.23978324063E+03  0.23978324063E+03  0.00000000000E+00 0. -1.
         21   -1    0    0  503  502 -0.00000000000E+00 -0.00000000000E+00 -0.65195858852E+01  0.65195858852E+01  0.00000000000E+00 0.  1.
         21    1    1    2  503  501 -0.21930067424E+02 -0.26782608276E+02  0.57120857044E+02  0.66790929569E+02  0.00000000000E+00 0.  1.
         21    1    1    2  504  502  0.21930067424E+02  0.26782608276E+02  0.17614279770E+03  0.17951189695E+03  0.00000000000E+00 0. -1.
</event>
<event>
 4    1  0.3048956E+006  0.2306414E+02  0.7546771E-02  0.1491694E+00
         21   -1    0    0  504  501  0.00000000000E+00  0.00000000000E+00  0.13900967469E+02  0.13900967469E+02  0.00000000000E+00 0. -1.
         21   -1    0    0  503  502 -0.00000000000E+00 -0.00000000000E+00 -0.15557729347E+03  0.15557729347E+03  0.00000000000E+00 0.  1.
         21    1    1    2  503  501  0.73162726770E+01 -0.21872964317E+02  0.27449482462E+01  0.23226905837E+02  0.00000000000E+00 0. -1.
         21    1    1    2  504  502 -0.73162726770E+01  0.21872964317E+02 -0.14442127425E+03  0.14625135510E+03  0.00000000000E+00 0.  1.
</event>
<event>
 4    1  0.3048956E+006  0.2396013E+02  0.7546771E-02  0.1480781E+00
         21   -1    0    0  503  501  0.00000000000E+00  0.00000000000E+00  0.51865485201E+01  0.51865485201E+01  0.00000000000E+00 0. -1.
         21   -1    0    0  504  502 -0.00000000000E+00 -0.00000000000E+00 -0.11128894561E+03  0.11128894561E+03  0.00000000000E+00 0. -1.
         21    1    1    2  503  502 -0.22196819151E+02 -0.90215777383E+01 -0.48770955916E+02  0.54338695110E+02  0.00000000000E+00 0. -1.
         21    1    1    2  504  501  0.22196819151E+02  0.90215777383E+01 -0.57331441169E+02  0.62136799015E+02  0.00000000000E+00 0. -1.
</event>
<event>
 4    1  0.3048956E+006  0.2348502E+02  0.7546771E-02  0.1486496E+00
         21   -1    0    0  503  501  0.00000000000E+00  0.00000000000E+00  0.19477800734E+02  0.19477800734E+02  0.00000000000E+00 0.  1.
         21   -1    0    0  504  502 -0.00000000000E+00 -0.00000000000E+00 -0.15343815783E+03  0.15343815783E+03  0.00000000000E+00 0. -1.
         21    1    1    2  503  502  0.46125497443E+01 -0.23027605410E+02 -0.14505380698E+03  0.14694268660E+03  0.00000000000E+00 0. -1.
         21    1    1    2  504  501 -0.46125497443E+01  0.23027605410E+02  0.11093449885E+02  0.25973271962E+02  0.00000000000E+00 0.  1.
</event>
<event>
 4    1  0.3048956E+006  0.2623353E+02  0.7546771E-02  0.1455463E+00
         21   -1    0    0  502  501  0.00000000000E+00  0.00000000000E+00  0.15450151850E+04  0.15450151850E+04  0.00000000000E+00 0.  1.
         21   -1    0    0  503  502 -0.00000000000E+00 -0.00000000000E+00 -0.81040945106E+00  0.81040945106E+00  0.00000000000E+00 0.  1.
         21    1    1    2  503  504  0.93424074476E+01 -0.24513615002E+02  0.25340773666E+03  0.25476200442E+03  0.00000000000E+00 0.  1.
         21    1    1    2  504  501 -0.93424074476E+01  0.24513615002E+02  0.12907970389E+04  0.12910635900E+04  0.00000000000E+00 0.  1.
</event>
<event>
 4    1  0.3048956E+006  0.2716621E+02  0.7546771E-02  0.1445946E+00
         21   -1    0    0  502  501  0.00000000000E+00  0.00000000000E+00  0.13361604838E+02  0.13361604838E+02  0.00000000000E+00 0. -1.
         21   -1    0    0  504  502 -0.00000000000E+00 -0.00000000000E+00 -0.56541682460E+02  0.56541682460E+02  0.00000000000E+00 0. -1.
         21    1    1    2  503  501 -0.24569816238E+02 -0.11589950434E+02 -0.26907253846E+02  0.38236149526E+02  0.00000000000E+00 0. -1.
         21    1    1    2  504  503  0.24569816238E+02  0.11589950434E+02 -0.16272823776E+02  0.31667137772E+02  0.00000000000E+00 0. -1.
</event>
<event>
 4    1  0.3048956E+006  0.2097352E+02  0.7546771E-02  0.1519643E+00
         21   -1    0    0  502  501  0.00000000000E+00  0.00000000000E+00  0.30550656991E+02  0.30550656991E+02  0.00000000000E+00 0.  1.
         21   -1    0    0  504  502 -0.00000000000E+00 -0.00000000000E+00 -0.34109061541E+02  0.34109061541E+02  0.00000000000E+00 0.  1.
         21    1    1    2  503  501  0.14334142932E+02  0.15310810067E+02  0.22797106330E+02  0.30977356497E+02  0.00000000000E+00 0.  1.
         21    1    1    2  504  503 -0.14334142932E+02 -0.15310810067E+02 -0.26355510880E+02  0.33682362035E+02  0.00000000000E+00 0.  1.
</event>
<event>
 4    1  0.3048956E+006  0.6856210E+02  0.7546771E-02  0.1233223E+00
         21   -1    0    0  504  501  0.00000000000E+00  0.00000000000E+00  0.32180693631E+03  0.32180693631E+03  0.00000000000E+00 0.  1.
         21   -1    0    0  503  502 -0.00000000000E+00 -0.00000000000E+00 -0.18856433398E+02  0.18856433398E+02  0.00000000000E+00 0. -1.
         21    1    1    2  503  501 -0.23445745145E+02 -0.64428704904E+02  0.70619484194E+02  0.98426990856E+02  0.00000000000E+00 0. -1.
         21    1    1    2  504  502  0.23445745145E+02  0.64428704904E+02  0.23233101872E+03  0.24223637886E+03  0.00000000000E+00 0.  1.
</event>
<event>
 4    1  0.3048956E+006  0.2786031E+02  0.7546771E-02  0.1439152E+00
         21   -1    0    0  502  501  0.00000000000E+00  0.00000000000E+00  0.18252246095E+02  0.18252246095E+02  0.00000000000E+00 0. -1.
         21   -1    0    0  503  502 -0.00000000000E+00 -0.00000000000E+00 -0.76163765460E+02  0.76163765460E+02  0.00000000000E+00 0. -1.
         21    1    1    2  503  504  0.82367914514E+01 -0.26614888715E+02 -0.60328633796E+02  0.66451042809E+02  0.00000000000E+00 0. -1.
         21    1    1    2  504  501 -0.82367914514E+01  0.26614888715E+02  0.24171144317E+01  0.27964968745E+02  0.00000000000E+00 0. -1.
</event>
<event>
 4    1  0.3048956E+006  0.5184074E+02  0.7546771E-02  0.1290383E+00
         21   -1    0    0  502  501  0.00000000000E+00  0.00000000000E+00  0.89417141365E+01  0.89417141365E+01  0.00000000000E+00 0. -1.
         21   -1    0    0  503  502 -0.00000000000E+00 -0.00000000000E+00 -0.31797157916E+03  0.31797157916E+03  0.00000000000E+00 0. -1.
         21    1    1    2  503  504  0.51683950212E+02 -0.40288210842E+01 -0.19277189406E+03  0.19962080364E+03  0.00000000000E+00 0. -1.
         21    1    1    2  504  501 -0.51683950212E+02  0.40288210842E+01 -0.11625797096E+03  0.12729248965E+03  0.00000000000E+00 0. -1.
</event>
<event>
 4    1  0.3048956E+006  0.2006175E+02  0.7546771E-02  0.1533094E+00
         21   -1    0    0  504  501  0.00000000000E+00  0.00000000000E+00  0.10391012523E+03  0.10391012523E+03  0.00000000000E+00 0.  1.
         21   -1    0    0  501  502 -0.00000000000E+00 -0.00000000000E+00 -0.30242872253E+02  0.30242872253E+02  0.00000000000E+00 0. -1.
         21    1    1    2  503  502  0.59928306181E+01  0.19145753928E+02 -0.25800424778E+02  0.32682347391E+02  0.00000000000E+00 0. -1.
         21    1    1    2  504  503 -0.59928306181E+01 -0.19145753928E+02  0.99467677755E+02  0.10147065009E+03  0.00000000000E+00 0.  1.
</event>
<event>
 4    1  0.3048956E+006  0.2833327E+02  0.7546771E-02  0.1434656E+00
         21   -1    0    0  504  501  0.00000000000E+00  0.00000000000E+00  0.44294005372E+01  0.44294005372E+01  0.00000000000E+00 0. -1.
         21   -1    0    0  503  502 -0.00000000000E+00 -0.00000000000E+00 -0.20580072450E+03  0.20580072450E+03  0.00000000000E+00 0.  1.
         21    1    1    2  503  501 -0.26235748224E+02  0.10698574983E+02 -0.64370902606E+02  0.70330555904E+02  0.00000000000E+00 0. -1.
         21    1    1    2  504  502  0.26235748224E+02 -0.10698574983E+02 -0.13700042136E+03  0.13989956913E+03  0.00000000000E+00 0.  1.
</event>
<event>
 4    1  0.3048956E+006  0.2144846E+02  0.7546771E-02  0.1512957E+00
         21   -1    0    0  502  501  0.00000000000E+00  0.00000000000E+00  0.55789373738E+02  0.55789373738E+02  0.00000000000E+00 0. -1.
         21   -1    0    0  503  502 -0.00000000000E+00 -0.00000000000E+00 -0.54859933205E+02  0.54859933205E+02  0.00000000000E+00 0. -1.
         21    1    1    2  503  504 -0.17711875908E+02  0.12096520719E+02 -0.50532813581E+02  0.54896280476E+02  0.00000000000E+00 0. -1.
         21    1    1    2  504  501  0.17711875908E+02 -0.12096520719E+02  0.51462254114E+02  0.55753026467E+02  0.00000000000E+00 0. -1.
</event>
<event>
 4    1  0.3048956E+006  0.2569872E+02  0.7546771E-02  0.1461137E+00
         21   -1    0    0  503  501  0.00000000000E+00  0.00000000000E+00  0.17522236047E+03  0.17522236047E+03  0.00000000000E+00 0. -1.
         21   -1    0    0  504  502 -0.00000000000E+00 -0.00000000000E+00 -0.79612758291E+01  0.79612758291E+01  0.00000000000E+00 0. -1.
         21    1    1    2  503  502  0.25474589004E+02  0.33866349158E+01  0.17166454946E+02  0.30904872697E+02  0.00000000000E+00 0. -1.
         21    1    1    2  504  501 -0.25474589004E+02 -0.33866349158E+01  0.15009462969E+03  0.15227876360E+03  0.00000000000E+00 0. -1.
</event>
<event>
 4    1  0.3048956E+006  0.3144157E+02  0.7546771E-02  0.1407470E+00
         21   -1    0    0  504  501  0.00000000000E+00  0.00000000000E+00  0.55740908942E+02  0.55740908942E+02  0.00000000000E+00 0.  1.
         21   -1    0    0  503  502 -0.00000000000E+00 -0.00000000000E+00 -0.30525515634E+02  0.30525515634E+02  0.00000000000E+00 0.  1.
         21    1    1    2  503  501  0.18359657494E+02  0.25524410273E+02  0.40528122223E+02  0.51294261219E+02  0.00000000000E+00 0.  1.
         21    1    1    2  504  502 -0.18359657494E+02 -0.25524410273E+02 -0.15312728914E+02  0.34972163357E+02  0.00000000000E+00 0.  1.
</event>
<event>
 4    1  0.3048956E+006  0.2022399E+02  0.7546771E-02  0.1530639E+00
         21   -1    0    0  502  501  0.00000000000E+00  0.00000000000E+00  0.33270708107E+03  0.33270708107E+03  0.00000000000E+00 0.  1.
         21   -1    0    0  503  502 -0.00000000000E+00 -0.00000000000E+00 -0.70991469821E+01  0.70991469821E+01  0.00000000000E+00 0. -1.
         21    1    1    2  503  504 -0.11104035729E+02 -0.16902958109E+02  0.83104631773E+01  0.21864889676E+02  0.00000000000E+00 0. -1.
         21    1    1    2  504  501  0.11104035729E+02  0.16902958109E+02  0.31729747091E+03  0.31794133838E+03  0.00000000000E+00 0.  1.
</event>
<event>
 4    1  0.3048956E+006  0.5436031E+02  0.7546771E-02  0.1280299E+00
         21   -1    0    0  503  501  0.00000000000E+00  0.00000000000E+00  0.63914262510E+03  0.63914262510E+03  0.00000000000E+00 0.  1.
         21   -1    0    0  504  502 -0.00000000000E+00 -0.00000000000E+00 -0.53797383530E+01  0.53797383530E+01  0.00000000000E+00 0.  1.
         21    1    1    2  503  502  0.41083033419E+02  0.35598146294E+02  0.43771046702E+03  0.44107311932E+03  0.00000000000E+00 0.  1.
         21    1    1    2  504  501 -0.41083033419E+02 -0.35598146294E+02  0.19605241973E+03  0.20344924413E+03  0.00000000000E+00 0.  1.
</event>
<event>
 4    1  0.3048956E+006  0.2820252E+02  0.7546771E-02  0.1435889E+00
         21   -1    0    0  502  501  0.00000000000E+00  0.00000000000E+00  0.13795213712E+03  0.13795213712E+03  0.00000000000E+00 0. -1.
         21   -1    0    0  503  502 -0.00000000000E+00 -0.00000000000E+00 -0.34965247725E+02  0.34965247725E+02  0.00000000000E+00 0. -1.
         21    1    1    2  503  504 -0.38763486474E+01  0.27934852525E+02 -0.27515976959E+02  0.39401916862E+02  0.00000000000E+00 0. -1.
         21    1    1    2  504  501  0.38763486474E+01 -0.27934852525E+02  0.13050286636E+03  0.13351546799E+03  0.00000000000E+00 0. -1.
</event>
<event>
 4    1  0.3048956E+006  0.2692494E+02  0.7546771E-02  0.1448364E+00
         21   -1    0    0  503  501  0.00000000000E+00  0.00000000000E+00  0.28818133299E+02  0.28818133299E+02  0.00000000000E+00 0. -1.
         21   -1    0    0  504  502 -0.00000000000E+00 -0.00000000000E+00 -0.14161336956E+03  0.14161336956E+03  0.00000000000E+00 0. -1.
         21    1    1    2  503  502  0.15802901955E+02 -0.21799558715E+02  0.20879516569E+02  0.34072080689E+02  0.00000000000E+00 0. -1.
         21    1    1    2  504  501 -0.15802901955E+02  0.21799558715E+02 -0.13367475283E+03  0.13635942217E+03  0.00000000000E+00 0. -1.
</event>
<event>
 4    1  0.3048956E+006  0.2451909E+02  0.7546771E-02  0.1474256E+00
         21   -1    0    0  503  501  0.00000000000E+00  0.00000000000E+00  0.40099035382E+02  0.40099035382E+02  0.00000000000E+00 0. -1.
         21   -1    0    0  504  502 -0.00000000000E+00 -0.00000000000E+00 -0.82171558620E+02  0.82171558620E+02  0.00000000000E+00 0.  1.
         21    1    1    2  503  502  0.88862946953E+01  0.22852126658E+02  0.34241204770E+02  0.42114677136E+02  0.00000000000E+00 0. -1.
         21    1    1    2  504  501 -0.88862946953E+01 -0.22852126658E+02 -0.76313728007E+02  0.80155916865E+02  0.00000000000E+00 0.  1.
</event>
<event>
 4    1  0.3048956E+006  0.3601643E+02  0.7546771E-02  0.1373555E+00
         21   -1    0    0  504  501  0.00000000000E+00  0.00000000000E+00  0.15463046028E+03  0.15463046028E+03  0.00000000000E+00 0.  1.
         21   -1    0    0  503  502 -0.00000000000E+00 -0.00000000000E+00 -0.19285080921E+02  0.19285080921E+02  0.00000000000E+00 0.  1.
         21    1    1    2  503  501  0.33555441146E+02 -0.13084942989E+02  0.13303604155E+03  0.13782514907E+03  0.00000000000E+00 0.  1.
         21    1    1    2  504  502 -0.33555441146E+02  0.13084942989E+02  0.23093378113E+01  0.36090392138E+02  0.00000000000E+00 0.  1.
</event>
<event>
 4    1  0.3048956E+006  0.2298273E+02  0.7546771E-02  0.1492715E+00
         21   -1    0    0  503  501  0.00000000000E+00  0.00000000000E+00  0.76776930145E+01  0.76776930145E+01  0.00000000000E+00 0. -1.
         21   -1    0    0  501  502 -0.00000000000E+00 -0.00000000000E+00 -0.18061306614E+03  0.18061306614E+03  0.00000000000E+00 0. -1.
         21    1    1    2  503  504  0.22763793719E+02 -0.31647249397E+01 -0.12392008312E+02  0.26110680927E+02  0.00000000000E+00 0. -1.
         21    1    1    2  504  502 -0.22763793719E+02  0.31647249397E+01 -0.16054336481E+03  0.16218007822E+03  0.00000000000E+00 0. -1.
</event>
<event>
 4    1  0.3048956E+006  0.6277901E+02  0.7546771E-02  0.1250672E+00
         21   -1    0    0  504  501  0.00000000000E+00  0.00000000000E+00  0.27783492289E+03  0.27783492289E+03  0.00000000000E+00 0.  1.
         21   -1    0    0  503  502 -0.00000000000E+00 -0.00000000000E+00 -0.17316792543E+02  0.17316792543E+02  0.00000000000E+00 0.  1.
         21    1    1    2  503  501  0.54676145127E+02  0.30850018144E+02  0.19301417731E+03  0.20296718235E+03  0.00000000000E+00 0.  1.
         21    1    1    2  504  502 -0.54676145127E+02 -0.30850018144E+02  0.67503953037E+02  0.92184533090E+02  0.00000000000E+00 0.  1.
</event>
<event>
 4    1  0.3048956E+006  0.2172838E+02  0.7546771E-02  0.1509114E+00
         21   -1    0    0  504  501  0.00000000000E+00  0.00000000000E+00  0.76133091217E+01  0.76133091217E+01  0.00000000000E+00 0.  1.
         21   -1    0    0  503  502 -0.00000000000E+00 -0.00000000000E+00 -0.27397289720E+03  0.27397289720E+03  0.00000000000E+00 0.  1.
         21    1    1    2  503  501 -0.20644497006E+02 -0.67769699556E+01 -0.25701799665E+03  0.25793482351E+03  0.00000000000E+00 0.  1.
         21    1    1    2  504  502  0.20644497006E+02  0.67769699556E+01 -0.93415914290E+01  0.23651382810E+02  0.00000000000E+00 0.  1.
</event>
<event>
 4    1  0.3048956E+006  0.4639403E+02  0.7546771E-02  0.1314612E+00
         21   -1    0    0  504  501  0.00000000000E+00  0.00000000000E+00  0.48273017464E+02  0.48273017464E+02  0.00000000000E+00 0. -1.
         21   -1    0    0  503  502 -0.00000000000E+00 -0.00000000000E+00 -0.60595318314E+02  0.60595318314E+02  0.00000000000E+00 0.  1.
         21    1    1    2  503  501 -0.19169623724E+02 -0.42248446474E+02 -0.34138655472E+02  0.57600811631E+02  0.00000000000E+00 0.  1.
         21    1    1    2  504  502  0.19169623724E+02  0.42248446474E+02  0.21816354622E+02  0.51267524147E+02  0.00000000000E+00 0. -1.
</event>
<event>
 4    1  0.3048956E+006  0.2035171E+02  0.7546771E-02  0.1528725E+00
         21   -1    0    0  503  501  0.00000000000E+00  0.00000000000E+00  0.23319990723E+03  0.23319990723E+03  0.00000000000E+00 0. -1.
         21   -1    0    0  504  502 -0.00000000000E+00 -0.00000000000E+00 -0.43531302937E+01  0.43531302937E+01  0.00000000000E+00 0.  1.
         21    1    1    2  503  502 -0.68196976167E+01 -0.19175085800E+02  0.20581101799E+03  0.20681481407E+03  0.00000000000E+00 0. -1.
         21    1    1    2  504  501  0.68196976167E+01  0.19175085800E+02  0.23035758940E+02  0.30738223451E+02  0.00000000000E+00 0.  1.
</event>
<event>
 4    1  0.3048956E+006  0.2153944E+02  0.7546771E-02  0.1511701E+00
         21   -1    0    0  503  501  0.00000000000E+00  0.00000000000E+00  0.23745034967E+01  0.23745034967E+01  0.00000000000E+00 0. -1.
         21   -1    0    0  504  502 -0.00000000000E+00 -0.00000000000E+00 -0.20480387710E+03  0.20480387710E+03  0.00000000000E+00 0. -1.
         21    1    1    2  503  502  0.13714805598E+02  0.16608776041E+02 -0.12342714744E+03  0.12529249003E+03  0.00000000000E+00 0. -1.
         21    1    1    2  504  501 -0.13714805598E+02 -0.16608776041E+02 -0.79002226164E+02  0.81885890562E+02  0.00000000000E+00 0. -1.
</event>
<event>
 4    1  0.3048956E+006  0.2220681E+02  0.7546771E-02  0.1502706E+00
         21   -1    0    0  503  501  0.00000000000E+00  0.00000000000E+00  0.62467850381E+02  0.62467850381E+02  0.00000000000E+00 0.  1.
         21   -1    0    0  504  502 -0.00000000000E+00 -0.00000000000E+00 -0.12704539640E+02  0.12704539640E+02  0.00000000000E+00 0.  1.
         21    1    1    2  503  502 -0.20570606339E+02 -0.83661673760E+01  0.17540676176E+01  0.22275981570E+02  0.00000000000E+00 0.  1.
         21    1    1    2  504  501  0.20570606339E+02  0.83661673760E+01  0.48009243124E+02  0.52896408451E+02  0.00000000000E+00 0.  1.
</event>
<event>
 4    1  0.3048956E+006  0.2617923E+02  0.7546771E-02  0.1456032E+00
         21   -1    0    0  502  501  0.00000000000E+00  0.00000000000E+00  0.59338122802E+02  0.59338122802E+02  0.00000000000E+00 0. -1.
         21   -1    0    0  504  502 -0.00000000000E+00 -0.00000000000E+00 -0.11554324925E+02  0.11554324925E+02  0.00000000000E+00 0.  1.
         21    1    1    2  503  501 -0.16628632907E+02 -0.20219808563E+02  0.24581981468E+02  0.35911361762E+02  0.00000000000E+00 0. -1.
         21    1    1    2  504  503  0.16628632907E+02  0.20219808563E+02  0.23201816408E+02  0.34981085965E+02  0.00000000000E+00 0.  1.
</event>
<event>
 4    1  0.3048956E+006  0.2195833E+02  0.7546771E-02  0.1506010E+00
         21   -1    0    0  502  501  0.00000000000E+00  0.00000000000E+00  0.41071526009E+02  0.41071526009E+02  0.00000000000E+00 0.  1.
         21   -1    0    0  504  502 -0.00000000000E+00 -0.00000000000E+00 -0.67083184686E+02  0.67083184686E+02  0.00000000000E+00 0. -1.
         21    1    1    2  503  501  0.15717056739E+02 -0.15334350690E+02  0.36112296033E+02  0.42264241486E+02  0.00000000000E+00 0.  1.
         21    1    1    2  504  503 -0.15717056739E+02  0.15334350690E+02 -0.62123954711E+02  0.65890469209E+02  0.00000000000E+00 0. -1.
</event>
<event>
 4    1  0.3048956E+006  0.2446450E+02  0.7546771E-02  0.1474884E+00
         21   -1    0    0  503  501  0.00000000000E+00  0.00000000000E+00  0.19899489958E+02  0.19899489958E+02  0.00000000000E+00 0.  1.
         21   -1    0    0  504  502 -0.00000000000E+00 -0.00000000000E+00 -0.26080652026E+03  0.26080652026E+03  0.00000000000E+00 0.  1.
         21    1    1    2  503  502 -0.23517515093E+02  0.67407729405E+01 -0.25246579502E+03  0.25364835736E+03  0.00000000000E+00 0.  1.
         21    1    1    2  504  501  0.23517515093E+02 -0.67407729405E+01  0.11558764723E+02  0.27057652853E+02  0.00000000000E+00 0.  1.
</event>
<event>
 4    1  0.3048956E+006  0.3497209E+02  0.7546771E-02  0.1380760E+00
         21   -1    0    0  504  501  0.00000000000E+00  0.00000000000E+00  0.31849946098E+02  0.31849946098E+02  0.00000000000E+00 0.  1.
         21   -1    0    0  503  502 -0.00000000000E+00 -0.00000000000E+00 -0.16034003802E+03  0.16034003802E+03  0.00000000000E+00 0.  1.
         21    1    1    2  503  501 -0.92459011702E+00 -0.34959863749E+02 -0.14804666773E+03  0.15212121077E+03  0.00000000000E+00 0.  1.
         21    1    1    2  504  502  0.92459011702E+00  0.34959863749E+02  0.19556575808E+02  0.40068773348E+02  0.00000000000E+00 0.  1.
</event>
<event>
 4    1  0.3048956E+006  0.2122447E+02  0.7546771E-02  0.1516084E+00
         21   -1    0    0  503  501  0.00000000000E+00  0.00000000000E+00  0.23342657191E+03  0.23342657191E+03  0.00000000000E+00 0.  1.
         21   -1    0    0  504  502 -0.00000000000E+00 -0.00000000000E+00 -0.19400434966E+02  0.19400434966E+02  0.00000000000E+00 0. -1.
         21    1    1    2  503  502  0.12168546000E+02  0.17389788281E+02  0.22697444996E+03  0.22796464459E+03  0.00000000000E+00 0.  1.
         21    1    1    2  504  501 -0.12168546000E+02 -0.17389788281E+02 -0.12948313020E+02  0.24862362283E+02  0.00000000000E+00 0. -1.
</event>
<event>
 4    1  0.3048956E+006  0.2847278E+02  0.7546771E-02  0.1433349E+00
         21   -1    0    0  504  501  0.00000000000E+00  0.00000000000E+00  0.50483478343E+02  0.50483478343E+02  0.00000000000E+00 0.  1.
         21   -1    0    0  503  502 -0.00000000000E+00 -0.00000000000E+00 -0.18656308977E+02  0.18656308977E+02  0.00000000000E+00 0.  1.
         21    1    1    2  503  501 -0.13028564414E+01 -0.28442958854E+02  0.30141239040E+01  0.28631875352E+02  0.00000000000E+00 0.  1.
         21    1    1    2  504  502  0.13028564414E+01  0.28442958854E+02  0.28813045461E+02  0.40507911968E+02  0.00000000000E+00 0.  1.
</event>
<event>
 4    1  0.3048956E+006  0.2539668E+02  0.7546771E-02  0.1464414E+00
         21   -1    0    0  504  501  0.00000000000E+00  0.00000000000E+00  0.17414441326E+03  0.17414441326E+03  0.00000000000E+00 0. -1.
         21   -1    0    0  503  502 -0.00000000000E+00 -0.00000000000E+00 -0.11352482281E+02  0.11352482281E+02  0.00000000000E+00 0.  1.
         21    1    1    2  503  501 -0.62438533210E+00  0.25389000339E+02  0.15752587967E+03  0.15956000113E+03  0.00000000000E+00 0. -1.
         21    1    1    2  504  502  0.62438533210E+00 -0.25389000339E+02  0.52660513108E+01  0.25936894411E+02  0.00000000000E+00 0.  1.
</event>
<event>
 4    1  0.3048956E+006  0.4256306E+02  0.7546771E-02  0.1334087E+00
         21   -1    0    0  502  501  0.00000000000E+00  0.00000000000E+00  0.33858662935E+02  0.33858662935E+02  0.00000000000E+00 0. -1.
         21   -1    0    0  504  502 -0.00000000000E+00 -0.00000000000E+00 -0.70746949925E+02  0.70746949925E+02  0.00000000000E+00 0. -1.
         21    1    1    2  503  501 -0.16050021059E+01  0.42532788817E+02  0.73761956714E+01  0.43197481626E+02  0.00000000000E+00 0. -1.
         21    1    1    2  504  503  0.16050021059E+01 -0.42532788817E+02 -0.44264482661E+02  0.61408131233E+02  0.00000000000E+00 0. -1.
</event>
<event>
 4    1  0.3048956E+006  0.2253573E+02  0.7546771E-02  0.1498412E+00
         21   -1    0    0  503  501  0.00000000000E+00  0.00000000000E+00  0.57383341608E+03  0.57383341608E+03  0.00000000000E+00 0. -1.
         21   -1    0    0  504  502 -0.00000000000E+00 -0.00000000000E+00 -0.15602764981E+01  0.15602764981E+01  0.00000000000E+00 0. -1.
         21    1    1    2  503  502  0.17844496979E+02 -0.13763464038E+02  0.47539965770E+03  0.47593349699E+03  0.00000000000E+00 0. -1.
         21    1    1    2  504  501 -0.17844496979E+02  0.13763464038E+02  0.96873481881E+02  0.99460195589E+02  0.00000000000E+00 0. -1.
</event>
<event>
 4    1  0.3048956E+006  0.2983943E+02  0.7546771E-02  0.1420997E+00
         21   -1    0    0  502  501  0.00000000000E+00  0.00000000000E+00  0.94713892286E+03  0.94713892286E+03  0.00000000000E+00 0. -1.
         21   -1    0    0  503  502 -0.00000000000E+00 -0.00000000000E+00 -0.10328906966E+02  0.10328906966E+02  0.00000000000E+00 0. -1.
         21    1    1    2  503  504  0.26408398825E+02 -0.13892004155E+02  0.11976713264E+02  0.32153273061E+02  0.00000000000E+00 0. -1.
         21    1    1    2  504  501 -0.26408398825E+02  0.13892004155E+02  0.92483330263E+03  0.92531455677E+03  0.00000000000E+00 0. -1.
</event>
<event>
 4    1  0.3048956E+006  0.2040319E+02  0.7546771E-02  0.1527959E+00
         21   -1    0    0  504  501  0.00000000000E+00  0.00000000000E+00  0.11021382349E+01  0.11021382349E+01  0.00000000000E+00 0. -1.
         21   -1    0    0  503  502 -0.00000000000E+00 -0.00000000000E+00 -0.38171804507E+03  0.38171804507E+03  0.00000000000E+00 0. -1.
         21    1    1    2  503  501 -0.48610210898E+01 -0.19815671346E+02 -0.17069807014E+03  0.17191312198E+03  0.00000000000E+00 0. -1.
         21    1    1    2  504  502  0.48610210898E+01  0.19815671346E+02 -0.20991783669E+03  0.21090706133E+03  0.00000000000E+00 0. -1.
</event>
<event>
 4    1  0.3048956E+006  0.4789534E+02  0.7546771E-02  0.1307565E+00
         21   -1    0    0  504  501  0.00000000000E+00  0.00000000000E+00  0.20510289619E+03  0.20510289619E+03  0.00000000000E+00 0. -1.
         21   -1    0    0  501  502 -0.00000000000E+00 -0.00000000000E+00 -0.43883295553E+02  0.43883295553E+02  0.00000000000E+00 0. -1.
         21    1    1    2  503  502 -0.23359220308E+02 -0.41812799637E+02 -0.26853914665E+02  0.54909890910E+02  0.00000000000E+00 0. -1.
         21    1    1    2  504  503  0.23359220308E+02  0.41812799637E+02  0.18807351530E+03  0.19407630083E+03  0.00000000000E+00 0. -1.
</event>
<event>
 4    1  0.3048956E+006  0.2244628E+02  0.7546771E-02  0.1499571E+00
         21   -1    0    0  502  501  0.00000000000E+00  0.00000000000E+00  0.43178972593E+02  0.43178972593E+02  0.00000000000E+00 0.  1.
         21   -1    0    0  504  502 -0.00000000000E+00 -0.00000000000E+00 -0.13024966971E+02  0.13024966971E+02  0.00000000000E+00 0.  1.
         21    1    1    2  503  501 -0.19170906843E+02 -0.11675265588E+02  0.24145742302E+02  0.32967444048E+02  0.00000000000E+00 0.  1.
         21    1    1    2  504  503  0.19170906843E+02  0.11675265588E+02  0.60082633209E+01  0.23236495516E+02  0.00000000000E+00 0.  1.
</event>
<event>
 4    1  0.3048956E+006  0.2876810E+02  0.7546771E-02  0.1430612E+00
         21   -1    0    0  504  501  0.00000000000E+00  0.00000000000E+00  0.14220109939E+01  0.14220109939E+01  0.00000000000E+00 0. -1.
         21   -1    0    0  503  502 -0.00000000000E+00 -0.00000000000E+00 -0.11027558174E+04  0.11027558174E+04  0.00000000000E+00 0. -1.
         21    1    1    2  503  501 -0.13545484064E+02 -0.25379586304E+02 -0.93005912625E+03  0.93050393974E+03  0.00000000000E+00 0. -1.
         21    1    1    2  504  502  0.13545484064E+02  0.25379586304E+02 -0.17127468012E+03  0.17367388862E+03  0.00000000000E+00 0. -1.
</event>
<event>
 4    1  0.3048956E+006  0.2279461E+02  0.7546771E-02  0.1495094E+00
         21   -1    0    0  503  501  0.00000000000E+00  0.00000000000E+00  0.17754459756E+03  0.17754459756E+03  0.00000000000E+00 0. -1.
         21   -1    0    0  504  502 -0.00000000000E+00 -0.00000000000E+00 -0.61782185168E+01  0.61782185168E+01  0.00000000000E+00 0. -1.
         21    1    1    2  503  502 -0.86134354045E+01  0.21104569110E+02  0.15232614298E+03  0.15402223197E+03  0.00000000000E+00 0. -1.
         21    1    1    2  504  501  0.86134354045E+01 -0.21104569110E+02  0.19040236065E+02  0.29700584106E+02  0.00000000000E+00 0. -1.
</event>
<event>
 4    1  0.3048956E+006  0.3088368E+02  0.7546771E-02  0.1412069E+00
         21   -1    0    0  502  501  0.00000000000E+00  0.00000000000E+00  0.32666353667E+02  0.32666353667E+02  0.00000000000E+00 0. -1.
         21   -1    0    0  504  502 -0.00000000000E+00 -0.00000000000E+00 -0.62634852994E+02  0.62634852994E+02  0.00000000000E+00 0.  1.
         21    1    1    2  503  501  0.36605770464E+01  0.30665973333E+02  0.19831132910E+02  0.36702528214E+02  0.00000000000E+00 0. -1.
         21    1    1    2  504  503 -0.36605770464E+01 -0.30665973333E+02 -0.49799632237E+02  0.58598678447E+02  0.00000000000E+00 0.  1.
</event>
<event>
 4    1  0.3048956E+006  0.2202204E+02  0.7546771E-02  0.1505158E+00
         21   -1    0    0  503  501  0.00000000000E+00  0.00000000000E+00  0.15165224560E+01  0.15165224560E+01  0.00000000000E+00 0. -1.
         21   -1    0    0  504  502 -0.00000000000E+00 -0.00000000000E+00 -0.40456965062E+03  0.40456965062E+03  0.00000000000E+00 0. -1.
         21    1    1    2  503  502  0.21644496284E+02 -0.40603120025E+01 -0.29447339853E+03  0.29529570399E+03  0.00000000000E+00 0. -1.
         21    1    1    2  504  501 -0.21644496284E+02  0.40603120025E+01 -0.10857972963E+03  0.11079046908E+03  0.00000000000E+00 0. -1.
</event>
<event>
 4    1  0.3048956E+006  0.2544460E+02  0.7546771E-02  0.1463891E+00
         21   -1    0    0  504  501  0.00000000000E+00  0.00000000000E+00  0.42383204869E+02  0.42383204869E+02  0.00000000000E+00 0.  1.
         21   -1    0    0  503  502 -0.00000000000E+00 -0.00000000000E+00 -0.37923291868E+02  0.37923291868E+02  0.00000000000E+00 0. -1.
         21    1    1    2  503  501  0.15876775299E+02  0.19883549857E+02 -0.28799912836E+02  0.38429969141E+02  0.00000000000E+00 0. -1.
         21    1    1    2  504  502 -0.15876775299E+02 -0.19883549857E+02  0.33259825837E+02  0.41876527596E+02  0.00000000000E+00 0.  1.
</event>
<event>
 4    1  0.3048956E+006  0.2126048E+02  0.7546771E-02  0.1515578E+00
         21   -1    0    0  502  501  0.00000000000E+00  0.00000000000E+00  0.94392167847E+02  0.94392167847E+02  0.00000000000E+00 0.  1.
         21   -1    0    0  504  502 -0.00000000000E+00 -0.00000000000E+00 -0.16400179283E+02  0.16400179283E+02  0.00000000000E+00 0.  1.
         21    1    1    2  503  501 -0.21246854145E+02 -0.76111991442E+00  0.85608318954E+02  0.88208799951E+02  0.00000000000E+00 0.  1.
         21    1    1    2  504  503  0.21246854145E+02  0.76111991442E+00 -0.76163303901E+01  0.22583547179E+02  0.00000000000E+00 0.  1.
</event>
<event>
 4    1  0.3048956E+006  0.2176312E+02  0.7546771E-02  0.1508642E+00
         21   -1    0    0  504  501  0.00000000000E+00  0.00000000000E+00  0.22951981497E+03  0.22951981497E+03  0.00000000000E+00 0.  1.
         21   -1    0    0  503  502 -0.00000000000E+00 -0.00000000000E+00 -0.21820467446E+03  0.21820467446E+03  0.00000000000E+00 0. -1.
         21    1    1    2  503  501  0.21380801518E+02 -0.40613917890E+01  0.22845875591E+03  0.22949299930E+03  0.00000000000E+00 0.  1.
         21    1    1    2  504  502 -0.21380801518E+02  0.40613917890E+01 -0.21714361539E+03  0.21823149013E+03  0.00000000000E+00 0. -1.
</event>
<event>
 4    1  0.3048956E+006  0.2748722E+02  0.7546771E-02  0.1442774E+00
         21   -1    0    0  504  501  0.00000000000E+00  0.00000000000E+00  0.53837308644E+02  0.53837308644E+02  0.00000000000E+00 0. -1.
         21   -1    0    0  503  502 -0.00000000000E+00 -0.00000000000E+00 -0.24272438031E+02  0.24272438031E+02  0.00000000000E+00 0.  1.
         21    1    1    2  503  501  0.63049456170E+01  0.26754339540E+02 -0.10582727704E+02  0.29454051489E+02  0.00000000000E+00 0.  1.
         21    1    1    2  504  502 -0.63049456170E+01 -0.26754339540E+02  0.40147598317E+02  0.48655695187E+02  0.00000000000E+00 0. -1.
</event>
<event>
 4    1  0.3048956E+006  0.3250402E+02  0.7546771E-02  0.1399014E+00
         21   -1    0    0  504  501  0.00000000000E+00  0.00000000000E+00  0.63742484111E+03  0.63742484111E+03  0.00000000000E+00 0.  1.
         21   -1    0    0  503  502 -0.00000000000E+00 -0.00000000000E+00 -0.86020661820E+01  0.86020661820E+01  0.00000000000E+00 0.  1.
         21    1    1    2  503  501 -0.13119657208E+02  0.29738622821E+02  0.24181060135E+02  0.40512155729E+02  0.00000000000E+00 0.  1.
         21    1    1    2  504  502  0.13119657208E+02 -0.29738622821E+02  0.60464171479E+03  0.60551475156E+03  0.00000000000E+00 0.  1.
</event>
<event>
 4    1  0.3048956E+006  0.2498685E+02  0.7546771E-02  0.1468951E+00
         21   -1    0    0  503  501  0.00000000000E+00  0.00000000000E+00  0.58141342409E+02  0.58141342409E+02  0.00000000000E+00 0. -1.
         21   -1    0    0  504  502 -0.00000000000E+00 -0.00000000000E+00 -0.46459122011E+02  0.46459122011E+02  0.00000000000E+00 0.  1.
         21    1    1    2  503  502 -0.20757947324E+01 -0.24900473868E+02 -0.40018302689E+02  0.47178459839E+02  0.00000000000E+00 0.  1.
         21    1    1    2  504  501  0.20757947324E+01  0.24900473868E+02  0.51700523088E+02  0.57422004582E+02  0.00000000000E+00 0. -1.
</event>
<event>
 4    1  0.3048956E+006  0.2109987E+02  0.7546771E-02  0.1517844E+00
         21   -1    0    0  504  501  0.00000000000E+00  0.00000000000E+00  0.21237800271E+02  0.21237800271E+02  0.00000000000E+00 0.  1.
         21   -1    0    0  503  502 -0.00000000000E+00 -0.00000000000E+00 -0.28436787748E+02  0.28436787748E+02  0.00000000000E+00 0.  1.
         21    1    1    2  503  501  0.13802225814E+02  0.15959415821E+02 -0.16332745832E+02  0.26682634374E+02  0.00000000000E+00 0.  1.
         21    1    1    2  504  502 -0.13802225814E+02 -0.15959415821E+02  0.91337583546E+01  0.22991953645E+02  0.00000000000E+00 0.  1.
</event>
<event>
 4    1  0.3048956E+006  0.2082951E+02  0.7546771E-02  0.1521713E+00
         21   -1    0    0  504  501  0.00000000000E+00  0.00000000000E+00  0.25326503416E+03  0.25326503416E+03  0.00000000000E+00 0. -1.
         21   -1    0    0  503  502 -0.00000000000E+00 -0.00000000000E+00 -0.33995975611E+02  0.33995975611E+02  0.00000000000E+00 0. -1.
         21    1    1    2  503  501 -0.17534908879E+02  0.11242582058E+02 -0.30330335744E+02  0.36793993356E+02  0.00000000000E+00 0. -1.
         21    1    1    2  504  502  0.17534908879E+02 -0.11242582058E+02  0.24959939429E+03  0.25046701641E+03  0.00000000000E+00 0. -1.
</event>
<event>
 4    1  0.3048956E+006  0.2275762E+02  0.7546771E-02  0.1495564E+00
         21   -1    0    0  504  501  0.00000000000E+00  0.00000000000E+00  0.12024926934E+01  0.12024926934E+01  0.00000000000E+00 0.  1.
         21   -1    0    0  503  502 -0.00000000000E+00 -0.00000000000E+00 -0.62102424026E+03  0.62102424026E+03  0.00000000000E+00 0.  1.
         21    1    1    2  503  501 -0.18728325031E+02 -0.12929008048E+02 -0.13767824619E+03  0.13954643988E+03  0.00000000000E+00 0.  1.
         21    1    1    2  504  502  0.18728325031E+02  0.12929008048E+02 -0.48214350137E+03  0.48268029308E+03  0.00000000000E+00 0.  1.
</event>
<event>
 4    1  0.3048956E+006  0.3287430E+02  0.7546771E-02  0.1396157E+00
         21   -1    0    0  503  501  0.00000000000E+00  0.00000000000E+00  0.33226219107E+02  0.33226219107E+02  0.00000000000E+00 0.  1.
         21   -1    0    0  501  502 -0.00000000000E+00 -0.00000000000E+00 -0.11914020148E+03  0.11914020148E+03  0.00000000000E+00 0.  1.
         21    1    1    2  503  504  0.27881925624E+02 -0.17416022291E+02  0.21999773415E+02  0.39556410849E+02  0.00000000000E+00 0.  1.
         21    1    1    2  504  502 -0.27881925624E+02  0.17416022291E+02 -0.10791375578E+03  0.11281000974E+03  0.00000000000E+00 0.  1.
</event>
<event>
 4    1  0.3048956E+006  0.2118644E+02  0.7546771E-02  0.1516620E+00
         21   -1    0    0  504  501  0.00000000000E+00  0.00000000000E+00  0.10747609794E+03  0.10747609794E+03  0.00000000000E+00 0.  1.
         21   -1    0    0  503  502 -0.00000000000E+00 -0.00000000000E+00 -0.42108840417E+01  0.42108840417E+01  0.00000000000E+00 0.  1.
         21    1    1    2  503  501  0.16602587573E+02 -0.13161277469E+02  0.46580413882E+02  0.51172259049E+02  0.00000000000E+00 0.  1.
         21    1    1    2  504  502 -0.16602587573E+02  0.13161277469E+02  0.56684800015E+02  0.60514722932E+02  0.00000000000E+00 0.  1.
</event>
<event>
 4    1  0.3048956E+006  0.2190636E+02  0.7546771E-02  0.1506707E+00
         21   -1    0    0  504  501  0.00000000000E+00  0.00000000000E+00  0.11498230764E+02  0.11498230764E+02  0.00000000000E+00 0.  1.
         21   -1    0    0  503  502 -0.00000000000E+00 -0.00000000000E+00 -0.44913876262E+02  0.44913876262E+02  0.00000000000E+00 0. -1.
         21    1    1    2  503  501 -0.16145416517E+02  0.14805878839E+02 -0.92049034968E+01  0.23761708085E+02  0.00000000000E+00 0.  1.
         21    1    1    2  504  502  0.16145416517E+02 -0.14805878839E+02 -0.24210742002E+02  0.32650398941E+02  0.00000000000E+00 0. -1.
</event>
<event>
 4    1  0.3048956E+006  0.2999391E+02  0.7546771E-02  0.1419649E+00
         21   -1    0    0  502  501  0.00000000000E+00  0.00000000000E+00  0.10853826171E+02  0.10853826171E+02  0.00000000000E+00 0.  1.
         21   -1    0    0  504  502 -0.00000000000E+00 -0.00000000000E+00 -0.22860846274E+03  0.22860846274E+03  0.00000000000E+00 0.  1.
         21    1    1    2  503  501 -0.20545298820E+02 -0.21852356124E+02 -0.13284864331E+02  0.32804304475E+02  0.00000000000E+00 0.  1.
         21    1    1    2  504  503  0.20545298820E+02  0.21852356124E+02 -0.20446977224E+03  0.20665798443E+03  0.00000000000E+00 0.  1.
</event>
<event>
 4    1  0.3048956E+006  0.2192363E+02  0.7546771E-02  0.1506475E+00
         21   -1    0    0  504  501  0.00000000000E+00  0.00000000000E+00  0.38773365868E+02  0.38773365868E+02  0.00000000000E+00 0.  1.
         21   -1    0    0  503  502 -0.00000000000E+00 -0.00000000000E+00 -0.12587439278E+02  0.12587439278E+02  0.00000000000E+00 0. -1.
         21    1    1    2  503  501 -0.21745532384E+02 -0.27888097726E+01  0.99283054774E+01  0.24066925194E+02  0.00000000000E+00 0. -1.
         21    1    1    2  504  502  0.21745532384E+02  0.27888097726E+01  0.16257621112E+02  0.27293879952E+02  0.00000000000E+00 0.  1.
</event>
<event>
 4    1  0.3048956E+006  0.2948070E+02  0.7546771E-02  0.1424164E+00
         21   -1    0    0  504  501  0.00000000000E+00  0.00000000000E+00  0.77355121317E+03  0.77355121317E+03  0.00000000000E+00 0.  1.
         21   -1    0    0  503  502 -0.00000000000E+00 -0.00000000000E+00 -0.18607867283E+03  0.18607867283E+03  0.00000000000E+00 0. -1.
         21    1    1    2  503  501  0.29257379186E+02  0.36217976598E+01 -0.18462792902E+03  0.18696679873E+03  0.00000000000E+00 0. -1.
         21    1    1    2  504  502 -0.29257379186E+02 -0.36217976598E+01  0.77210046935E+03  0.77266308727E+03  0.00000000000E+00 0.  1.
</event>
<event>
 4    1  0.3048956E+006  0.2501143E+02  0.7546771E-02  0.1468676E+00
         21   -1    0    0  503  501  0.00000000000E+00  0.00000000000E+00  0.50536584022E+02  0.50536584022E+02  0.00000000000E+00 0. -1.
         21   -1    0    0  504  502 -0.00000000000E+00 -0.00000000000E+00 -0.90838832037E+02  0.90838832037E+02  0.00000000000E+00 0.  1.
         21    1    1    2  503  502  0.15849959385E+02 -0.19348143239E+02 -0.85846218261E+02  0.89415574980E+02  0.00000000000E+00 0.  1.
         21    1    1    2  504  501 -0.15849959385E+02  0.19348143239E+02  0.45543970246E+02  0.51959841080E+02  0.00000000000E+00 0. -1.
</event>
<event>
 4    1  0.3048956E+006  0.2057769E+02  0.7546771E-02  0.1525381E+00
         21   -1    0    0  502  501  0.00000000000E+00  0.00000000000E+00  0.27770198890E+02  0.27770198890E+02  0.00000000000E+00 0.  1.
         21   -1    0    0  503  502 -0.00000000000E+00 -0.00000000000E+00 -0.27296412606E+02  0.27296412606E+02  0.00000000000E+00 0. -1.
         21    1    1    2  503  504  0.12386499331E+02 -0.16432168449E+02 -0.18055456393E+02  0.27375920645E+02  0.00000000000E+00 0. -1.
         21    1    1    2  504  501 -0.12386499331E+02  0.16432168449E+02  0.18529242677E+02  0.27690690851E+02  0.00000000000E+00 0.  1.
</event>
<event>
 4    1  0.3048956E+006  0.2579606E+02  0.7546771E-02  0.1460092E+00
         21   -1    0    0  504  501  0.00000000000E+00  0.00000000000E+00  0.48501822342E+02  0.48501822342E+02  0.00000000000E+00 0.  1.
         21   -1    0    0  503  502 -0.00000000000E+00 -0.00000000000E+00 -0.13722854531E+02  0.13722854531E+02  0.00000000000E+00 0.  1.
         21    1    1    2  503  501  0.25514454284E+02  0.38012384085E+01  0.17851321839E+02  0.31370471502E+02  0.00000000000E+00 0.  1.
         21    1    1    2  504  502 -0.25514454284E+02 -0.38012384085E+01  0.16927645972E+02  0.30854205370E+02  0.00000000000E+00 0.  1.
</event>
<event>
 4    1  0.3048956E+006  0.2217291E+02  0.7546771E-02  0.1503154E+00
         21   -1    0    0  502  501  0.00000000000E+00  0.00000000000E+00  0.31145333963E+01  0.31145333963E+01  0.00000000000E+00 0. -1.
         21   -1    0    0  503  502 -0.00000000000E+00 -0.00000000000E+00 -0.19568449222E+03  0.19568449222E+03  0.00000000000E+00 0. -1.
         21    1    1    2  503  504 -0.16194261548E+02 -0.15145421685E+02 -0.13999024594E+03  0.14173534091E+03  0.00000000000E+00 0. -1.
         21    1    1    2  504  501  0.16194261548E+02  0.15145421685E+02 -0.52579712884E+02  0.57063684704E+02  0.00000000000E+00 0. -1.
</event>
<event>
 4    1  0.3048956E+006  0.2871575E+02  0.7546771E-02  0.1431095E+00
         21   -1    0    0  504  501  0.00000000000E+00  0.00000000000E+00  0.17787353541E+03  0.17787353541E+03  0.00000000000E+00 0. -1.
         21   -1    0    0  503  502 -0.00000000000E+00 -0.00000000000E+00 -0.20527263116E+02  0.20527263116E+02  0.00000000000E+00 0.  1.
         21    1    1    2  503  501 -0.27127105763E+02 -0.94188443502E+01 -0.86097694898E+01  0.29978702884E+02  0.00000000000E+00 0.  1.
         21    1    1    2  504  502  0.27127105763E+02  0.94188443502E+01  0.16595604178E+03  0.16842209564E+03  0.00000000000E+00 0. -1.
</event>
<event>
 4    1  0.3048956E+006  0.2583858E+02  0.7546771E-02  0.1459637E+00
         21   -1    0    0  504  501  0.00000000000E+00  0.00000000000E+00  0.36092927944E+03  0.36092927944E+03  0.00000000000E+00 0. -1.
         21   -1    0    0  503  502 -0.00000000000E+00 -0.00000000000E+00 -0.10730201025E+02  0.10730201025E+02  0.00000000000E+00 0. -1.
         21    1    1    2  503  501  0.24458928027E+02  0.83302539777E+01  0.60443232013E+01  0.26536128854E+02  0.00000000000E+00 0. -1.
         21    1    1    2  504  502 -0.24458928027E+02 -0.83302539777E+01  0.34415475522E+03  0.34512335162E+03  0.00000000000E+00 0. -1.
</event>
<event>
 4    1  0.3048956E+006  0.2101218E+02  0.7546771E-02  0.1519091E+00
         21   -1    0    0  503  501  0.00000000000E+00  0.00000000000E+00  0.52966114629E+03  0.52966114629E+03  0.00000000000E+00 0. -1.
         21   -1    0    0  501  502 -0.00000000000E+00 -0.00000000000E+00 -0.53881401311E+01  0.53881401311E+01  0.00000000000E+00 0. -1.
         21    1    1    2  503  504 -0.13675969475E+02  0.15952413593E+02  0.50809842020E+03  0.50853270913E+03  0.00000000000E+00 0. -1.
         21    1    1    2  504  502  0.13675969475E+02 -0.15952413593E+02  0.16174585959E+02  0.26516577295E+02  0.00000000000E+00 0. -1.
</event>
<event>
 4    1  0.3048956E+006  0.2735871E+02  0.7546771E-02  0.1444038E+00
         21   -1    0    0  502  501  0.00000000000E+00  0.00000000000E+00  0.11062130970E+02  0.11062130970E+02  0.00000000000E+00 0. -1.
         21   -1    0    0  503  502 -0.00000000000E+00 -0.00000000000E+00 -0.45662268761E+03  0.45662268761E+03  0.00000000000E+00 0. -1.
         21    1    1    2  503  504  0.26058842334E+02 -0.83328203352E+01 -0.43860277874E+03  0.43945522716E+03  0.00000000000E+00 0. -1.
         21    1    1    2  504  501 -0.26058842334E+02  0.83328203352E+01 -0.69577778987E+01  0.28229591421E+02  0.00000000000E+00 0. -1.
</event>
<event>
 4    1  0.3048956E+006  0.2745019E+02  0.7546771E-02  0.1443138E+00
         21   -1    0    0  503  501  0.00000000000E+00  0.00000000000E+00  0.56087305668E+01  0.56087305668E+01  0.00000000000E+00 0.  1.
         21   -1    0    0  504  502 -0.00000000000E+00 -0.00000000000E+00 -0.18517340465E+03  0.18517340465E+03  0.00000000000E+00 0.  1.
         21    1    1    2  503  502 -0.16116737738E+02  0.22220789668E+02 -0.13975881953E+03  0.14242907134E+03  0.00000000000E+00 0.  1.
         21    1    1    2  504  501  0.16116737738E+02 -0.22220789668E+02 -0.39805854554E+02  0.48353063869E+02  0.00000000000E+00 0.  1.
</event>
<event>
 4    1  0.3048956E+006  0.3174149E+02  0.7546771E-02  0.1405043E+00
         21   -1    0    0  504  501  0.00000000000E+00  0.00000000000E+00  0.66169605954E+02  0.66169605954E+02  0.00000000000E+00 0.  1.
         21   -1    0    0  501  502 -0.00000000000E+00 -0.00000000000E+00 -0.80383935246E+03  0.80383935246E+03  0.00000000000E+00 0. -1.
         21    1    1    2  503  502  0.16276901583E+02 -0.27250406319E+02 -0.79969971886E+03  0.80032940875E+03  0.00000000000E+00 0. -1.
         21    1    1    2  504  503 -0.16276901583E+02  0.27250406319E+02  0.62029972358E+02  0.69679549658E+02  0.00000000000E+00 0.  1.
</event>
<event>
 4    1  0.3048956E+006  0.3181491E+02  0.7546771E-02  0.1404454E+00
         21   -1    0    0  504  501  0.00000000000E+00  0.00000000000E+00  0.18527193960E+02  0.18527193960E+02  0.00000000000E+00 0. -1.
         21   -1    0    0  501  502 -0.00000000000E+00 -0.00000000000E+00 -0.95614127485E+02  0.95614127485E+02  0.00000000000E+00 0.  1.
         21    1    1    2  503  502 -0.10346025571E+02  0.30085679986E+02 -0.75906837578E+02  0.82304534361E+02  0.00000000000E+00 0.  1.
         21    1    1    2  504  503  0.10346025571E+02 -0.30085679986E+02 -0.11800959466E+01  0.31836787083E+02  0.00000000000E+00 0. -1.
</event>
<event>
 4    1  0.3048956E+006  0.3615698E+02  0.7546771E-02  0.1372607E+00
         21   -1    0    0  504  501  0.00000000000E+00  0.00000000000E+00  0.21339855613E+03  0.21339855613E+03  0.00000000000E+00 0.  1.
         21   -1    0    0  503  502 -0.00000000000E+00 -0.00000000000E+00 -0.18637124550E+02  0.18637124550E+02  0.00000000000E+00 0. -1.
         21    1    1    2  503  501 -0.35721410785E+02  0.55953713916E+01  0.19243673174E+03  0.19580404259E+03  0.00000000000E+00 0.  1.
         21    1    1    2  504  502  0.35721410785E+02 -0.55953713916E+01  0.23246998361E+01  0.36231638092E+02  0.00000000000E+00 0. -1.
</event>
<event>
 4    1  0.3048956E+006  0.2725986E+02  0.7546771E-02  0.1445015E+00
         21   -1    0    0  504  501  0.00000000000E+00  0.00000000000E+00  0.31714723124E+02  0.31714723124E+02  0.00000000000E+00 0. -1.
         21   -1    0    0  503  502 -0.00000000000E+00 -0.00000000000E+00 -0.90776952932E+02  0.90776952932E+02  0.00000000000E+00 0. -1.
         21    1    1    2  503  501 -0.27220151037E+02 -0.14708708892E+01 -0.82283889197E+02  0.86681823383E+02  0.00000000000E+00 0. -1.
         21    1    1    2  504  502  0.27220151037E+02  0.14708708892E+01  0.23221659389E+02  0.35809852673E+02  0.00000000000E+00 0. -1.
</event>
<event>
 4    1  0.3048956E+006  0.4876412E+02  0.7546771E-02  0.1303622E+00
         21   -1    0    0  504  501  0.00000000000E+00  0.00000000000E+00  0.15115393323E+03  0.15115393323E+03  0.00000000000E+00 0. -1.
         21   -1    0    0  501  502 -0.00000000000E+00 -0.00000000000E+00 -0.45188042983E+02  0.45188042983E+02  0.00000000000E+00 0. -1.
         21    1    1    2  503  502 -0.42800281154E+02  0.23368246497E+02 -0.26278012185E+02  0.55393798710E+02  0.00000000000E+00 0. -1.
         21    1    1    2  504  503  0.42800281154E+02 -0.23368246497E+02  0.13224390244E+03  0.14094817751E+03  0.00000000000E+00 0. -1.
</event>
<event>
 4    1  0.3048956E+006  0.2007838E+02  0.7546771E-02  0.1532841E+00
         21   -1    0    0  504  501  0.00000000000E+00  0.00000000000E+00  0.80053653117E+01  0.80053653117E+01  0.00000000000E+00 0.  1.
         21   -1    0    0  501  502 -0.00000000000E+00 -0.00000000000E+00 -0.50462362166E+02  0.50462362166E+02  0.00000000000E+00 0. -1.
         21    1    1    2  503  502 -0.25719037549E+01 -0.19912974364E+02 -0.22552332805E+02  0.30195180938E+02  0.00000000000E+00 0.  1.
         21    1    1    2  504  503  0.25719037549E+01  0.19912974364E+02 -0.19904664049E+02  0.28272546540E+02  0.00000000000E+00 0. -1.
</event>
<event>
 4    1  0.3048956E+006  0.2253370E+02  0.7546771E-02  0.1498438E+00
         21   -1    0    0  503  501  0.00000000000E+00  0.00000000000E+00  0.19629081865E+02  0.19629081865E+02  0.00000000000E+00 0. -1.
         21   -1    0    0  504  502 -0.00000000000E+00 -0.00000000000E+00 -0.87931596867E+02  0.87931596867E+02  0.00000000000E+00 0.  1.
         21    1    1    2  503  502 -0.62750919133E+01  0.21642334311E+02  0.11031123647E+02  0.25088903959E+02  0.00000000000E+00 0. -1.
         21    1    1    2  504  501  0.62750919133E+01 -0.21642334311E+02 -0.79333638649E+02  0.82471774773E+02  0.00000000000E+00 0.  1.
</event>
<event>
 4    1  0.3048956E+006  0.2283006E+02  0.7546771E-02  0.1494643E+00
         21   -1    0    0  504  501  0.00000000000E+00  0.00000000000E+00  0.88426973044E+02  0.88426973044E+02  0.00000000000E+00 0.  1.
         21   -1    0    0  503  502 -0.00000000000E+00 -0.00000000000E+00 -0.85614303017E+02  0.85614303017E+02  0.00000000000E+00 0.  1.
         21    1    1    2  503  501 -0.79321613265E+01 -0.21407769193E+02 -0.82565347800E+02  0.85663576989E+02  0.00000000000E+00 0.  1.
         21    1    1    2  504  502  0.79321613265E+01  0.21407769193E+02  0.85378017828E+02  0.88377699073E+02  0.00000000000E+00 0.  1.
</event>
<event>
 4    1  0.3048956E+006  0.3350264E+02  0.7546771E-02  0.1391407E+00
         21   -1    0    0  502  501  0.00000000000E+00  0.00000000000E+00  0.39485145470E+02  0.39485145470E+02  0.00000000000E+00 0.  1.
         21   -1    0    0  504  502 -0.00000000000E+00 -0.00000000000E+00 -0.36953719450E+02  0.36953719450E+02  0.00000000000E+00 0.  1.
         21    1    1    2  503  501 -0.15680217436E+02  0.29606714653E+02  0.19625067273E+02  0.38827439226E+02  0.00000000000E+00 0.  1.
         21    1    1    2  504  503  0.15680217436E+02 -0.29606714653E+02 -0.17093641253E+02  0.37611425694E+02  0.00000000000E+00 0.  1.
</event>
<event>
 4    1  0.3048956E+006  0.2012495E+02  0.7546771E-02  0.1532134E+00
         21   -1    0    0  504  501  0.00000000000E+00  0.00000000000E+00  0.11334964766E+02  0.11334964766E+02  0.00000000000E+00 0.  1.
         21   -1    0    0  503  502 -0.00000000000E+00 -0.00000000000E+00 -0.37245043162E+02  0.37245043162E+02  0.00000000000E+00 0.  1.
         21    1    1    2  503  501  0.10700264443E+02 -0.17044584512E+02 -0.17851848514E+02  0.26901710275E+02  0.00000000000E+00 0.  1.
         21    1    1    2  504  502 -0.10700264443E+02  0.17044584512E+02 -0.80582298816E+01  0.21678297654E+02  0.00000000000E+00 0.  1.
</event>
<event>
 4    1  0.3048956E+006  0.2401340E+02  0.7546771E-02  0.1480150E+00
         21   -1    0    0  504  501  0.00000000000E+00  0.00000000000E+00  0.55147760123E+03  0.55147760123E+03  0.00000000000E+00 0.  1.
         21   -1    0    0  503  502 -0.00000000000E+00 -0.00000000000E+00 -0.10773296204E+01  0.10773296204E+01  0.00000000000E+00 0.  1.
         21    1    1    2  503  501 -0.15576667608E+02  0.18275961998E+02  0.22781137199E+03  0.22907349163E+03  0.00000000000E+00 0.  1.
         21    1    1    2  504  502  0.15576667608E+02 -0.18275961998E+02  0.32258889962E+03  0.32348143922E+03  0.00000000000E+00 0.  1.
</event>
<event>
 4    1  0.3048956E+006  0.2057596E+02  0.7546771E-02  0.1525406E+00
         21   -1    0    0  502  501  0.00000000000E+00  0.00000000000E+00  0.22632946589E+02  0.22632946589E+02  0.00000000000E+00 0. -1.
         21   -1    0    0  504  502 -0.00000000000E+00 -0.00000000000E+00 -0.16342593470E+03  0.16342593470E+03  0.00000000000E+00 0. -1.
         21    1    1    2  503  501 -0.44807025250E+01  0.20082168395E+02  0.17147068005E+02  0.26784176742E+02  0.00000000000E+00 0. -1.
         21    1    1    2  504  503  0.44807025250E+01 -0.20082168395E+02 -0.15794005612E+03  0.15927470455E+03  0.00000000000E+00 0. -1.
</event>
<event>
 4    1  0.3048956E+006  0.2462525E+02  0.7546771E-02  0.1473040E+00
         21   -1    0    0  504  501  0.00000000000E+00  0.00000000000E+00  0.53725685020E+02  0.53725685020E+02  0.00000000000E+00 0.  1.
         21   -1    0    0  503  502 -0.00000000000E+00 -0.00000000000E+00 -0.62920927072E+02  0.62920927072E+02  0.00000000000E+00 0.  1.
         21    1    1    2  503  501  0.22925006763E+02  0.89914857603E+01 -0.57431449518E+02  0.62488192045E+02  0.00000000000E+00 0.  1.
         21    1    1    2  504  502 -0.22925006763E+02 -0.89914857603E+01  0.48236207466E+02  0.54158420047E+02  0.00000000000E+00 0.  1.
</event>
<event>
 4    1  0.3048956E+006  0.2124174E+02  0.7546771E-02  0.1515841E+00
         21   -1    0    0  503  501  0.00000000000E+00  0.00000000000E+00  0.39632197653E+03  0.39632197653E+03  0.00000000000E+00 0. -1.
         21   -1    0    0  504  502 -0.00000000000E+00 -0.00000000000E+00 -0.14229283445E+01  0.14229283445E+01  0.00000000000E+00 0. -1.
         21    1    1    2  503  502 -0.13270957195E+02 -0.16585930972E+02  0.28636385892E+03  0.28715060701E+03  0.00000000000E+00 0. -1.
         21    1    1    2  504  501  0.13270957195E+02  0.16585930972E+02  0.10853518926E+03  0.11059429786E+03  0.00000000000E+00 0. -1.
</event>
<event>
 4    1  0.3048956E+006  0.3454165E+02  0.7546771E-02  0.1383814E+00
         21   -1    0    0  502  501  0.00000000000E+00  0.00000000000E+00  0.43560982343E+01  0.43560982343E+01  0.00000000000E+00 0. -1.
         21   -1    0    0  503  502 -0.00000000000E+00 -0.00000000000E+00 -0.33722418450E+03  0.33722418450E+03  0.00000000000E+00 0. -1.
         21    1    1    2  503  504 -0.17558368422E+02  0.29746084346E+02 -0.24044494554E+03  0.24291335425E+03  0.00000000000E+00 0. -1.
         21    1    1    2  504  501  0.17558368422E+02 -0.29746084346E+02 -0.92423140718E+02  0.98666928480E+02  0.00000000000E+00 0. -1.
</event>
<event>
 4    1  0.3048956E+006  0.2236849E+02  0.7546771E-02  0.1500584E+00
         21   -1    0    0  502  501  0.00000000000E+00  0.00000000000E+00  0.36745961774E+01  0.36745961774E+01  0.00000000000E+00 0. -1.
         21   -1    0    0  503  502 -0.00000000000E+00 -0.00000000000E+00 -0.38002296022E+03  0.38002296022E+03  0.00000000000E+00 0. -1.
         21    1    1    2  503  504 -0.59740275048E+01 -0.21555981334E+02 -0.34185621085E+03  0.34258724178E+03  0.00000000000E+00 0. -1.
         21    1    1    2  504  501  0.59740275048E+01  0.21555981334E+02 -0.34492153200E+02  0.41110314622E+02  0.00000000000E+00 0. -1.
</event>
<event>
 4    1  0.3048956E+006  0.2456658E+02  0.7546771E-02  0.1473711E+00
         21   -1    0    0  502  501  0.00000000000E+00  0.00000000000E+00  0.78565973182E+02  0.78565973182E+02  0.00000000000E+00 0. -1.
         21   -1    0    0  503  502 -0.00000000000E+00 -0.00000000000E+00 -0.79531170744E+01  0.79531170744E+01  0.00000000000E+00 0. -1.
         21    1    1    2  503  504 -0.10521881312E+02  0.22199250061E+02  0.43298657728E+02  0.49782431144E+02  0.00000000000E+00 0. -1.
         21    1    1    2  504  501  0.10521881312E+02 -0.22199250061E+02  0.27314198380E+02  0.36736659113E+02  0.00000000000E+00 0. -1.
</event>
<event>
 4    1  0.3048956E+006  0.2280466E+02  0.7546771E-02  0.1494966E+00
         21   -1    0    0  504  501  0.00000000000E+00  0.00000000000E+00  0.71894878117E+00  0.71894878117E+00  0.00000000000E+00 0. -1.
         21   -1    0    0  501  502 -0.00000000000E+00 -0.00000000000E+00 -0.75091342984E+03  0.75091342984E+03  0.00000000000E+00 0. -1.
         21    1    1    2  503  502  0.65159333059E+01  0.21853949563E+02 -0.44709804404E+03  0.44767925290E+03  0.00000000000E+00 0. -1.
         21    1    1    2  504  503 -0.65159333059E+01 -0.21853949563E+02 -0.30309643703E+03  0.30395312572E+03  0.00000000000E+00 0. -1.
</event>
<event>
 4    1  0.3048956E+006  0.5438230E+02  0.7546771E-02  0.1280214E+00
         21   -1    0    0  504  501  0.00000000000E+00  0.00000000000E+00  0.11654235528E+02  0.11654235528E+02  0.00000000000E+00 0.  1.
         21   -1    0    0  503  502 -0.00000000000E+00 -0.00000000000E+00 -0.38965507832E+03  0.38965507832E+03  0.00000000000E+00 0. -1.
         21    1    1    2  503  501  0.53405633603E+02  0.10260271442E+02 -0.70504541424E+02  0.89041143479E+02  0.00000000000E+00 0.  1.
         21    1    1    2  504  502 -0.53405633603E+02 -0.10260271442E+02 -0.30749630136E+03  0.31226817036E+03  0.00000000000E+00 0. -1.
</event>
<event>
 4    1  0.3048956E+006  0.2032093E+02  0.7546771E-02  0.1529185E+00
         21   -1    0    0  503  501  0.00000000000E+00  0.00000000000E+00  0.16655482835E+02  0.16655482835E+02  0.00000000000E+00 0.  1.
         21   -1    0    0  504  502 -0.00000000000E+00 -0.00000000000E+00 -0.10649778331E+04  0.10649778331E+04  0.00000000000E+00 0. -1.
         21    1    1    2  503  502  0.25557981029E+01  0.20159569910E+02 -0.10586455607E+04  0.10588405751E+04  0.00000000000E+00 0. -1.
         21    1    1    2  504  501 -0.25557981029E+01 -0.20159569910E+02  0.10323210383E+02  0.22792740851E+02  0.00000000000E+00 0.  1.
</event>
<event>
 4    1  0.3048956E+006  0.5421766E+02  0.7546771E-02  0.1280853E+00
         21   -1    0    0  504  501  0.00000000000E+00  0.00000000000E+00  0.71919113259E+03  0.71919113259E+03  0.00000000000E+00 0. -1.
         21   -1    0    0  501  502 -0.00000000000E+00 -0.00000000000E+00 -0.43124199693E+02  0.43124199693E+02  0.00000000000E+00 0. -1.
         21    1    1    2  503  502 -0.22739761246E+02  0.49218474562E+02 -0.24611584559E+02  0.59542296515E+02  0.00000000000E+00 0. -1.
         21    1    1    2  504  503  0.22739761246E+02 -0.49218474562E+02  0.70067851746E+03  0.70277303577E+03  0.00000000000E+00 0. -1.
</event>
<event>
 4    1  0.3048956E+006  0.4871972E+02  0.7546771E-02  0.1303821E+00
         21   -1    0    0  502  501  0.00000000000E+00  0.00000000000E+00  0.12533200195E+03  0.12533200195E+03  0.00000000000E+00 0.  1.
         21   -1    0    0  504  502 -0.00000000000E+00 -0.00000000000E+00 -0.46256366212E+02  0.46256366212E+02  0.00000000000E+00 0. -1.
         21    1    1    2  503  501 -0.53908802627E+01  0.48420551550E+02  0.10546959217E+03  0.11617851039E+03  0.00000000000E+00 0.  1.
         21    1    1    2  504  503  0.53908802627E+01 -0.48420551550E+02 -0.26393956435E+02  0.55409857775E+02  0.00000000000E+00 0. -1.
</event>
<event>
 4    1  0.3048956E+006  0.2006904E+02  0.7546771E-02  0.1532983E+00
         21   -1    0    0  504  501  0.00000000000E+00  0.00000000000E+00  0.11065824333E+02  0.11065824333E+02  0.00000000000E+00 0. -1.
         21   -1    0    0  503  502 -0.00000000000E+00 -0.00000000000E+00 -0.31981399398E+03  0.31981399398E+03  0.00000000000E+00 0. -1.
         21    1    1    2  503  501  0.12495537365E+02 -0.15704393417E+02  0.13673762222E+01  0.20115569700E+02  0.00000000000E+00 0. -1.
         21    1    1    2  504  502 -0.12495537365E+02  0.15704393417E+02 -0.31011554587E+03  0.31076424862E+03  0.00000000000E+00 0. -1.
</event>
<event>
 4    1  0.3048956E+006  0.3323803E+02  0.7546771E-02  0.1393392E+00
         21   -1    0    0  504  501  0.00000000000E+00  0.00000000000E+00  0.14969539385E+02  0.14969539385E+02  0.00000000000E+00 0. -1.
         21   -1    0    0  501  502 -0.00000000000E+00 -0.00000000000E+00 -0.16577129686E+03  0.16577129686E+03  0.00000000000E+00 0.  1.
         21    1    1    2  503  502  0.17392125284E+02  0.28324562935E+02 -0.14271333405E+03  0.14653280384E+03  0.00000000000E+00 0.  1.
         21    1    1    2  504  503 -0.17392125284E+02 -0.28324562935E+02 -0.80884234297E+01  0.34208032404E+02  0.00000000000E+00 0. -1.
</event>
<event>
 4    1  0.3048956E+006  0.2297635E+02  0.7546771E-02  0.1492795E+00
         21   -1    0    0  502  501  0.00000000000E+00  0.00000000000E+00  0.48593961093E+03  0.48593961093E+03  0.00000000000E+00 0.  1.
         21   -1    0    0  504  502 -0.00000000000E+00 -0.00000000000E+00 -0.66524988379E+01  0.66524988379E+01  0.00000000000E+00 0.  1.
         21    1    1    2  503  501  0.94184603212E+00  0.22957037947E+02  0.46493333162E+03  0.46550071484E+03  0.00000000000E+00 0.  1.
         21    1    1    2  504  503 -0.94184603212E+00 -0.22957037947E+02  0.14353780470E+02  0.27091394926E+02  0.00000000000E+00 0.  1.
</event>
<event>
 4    1  0.3048956E+006  0.4355277E+02  0.7546771E-02  0.1328837E+00
         21   -1    0    0  504  501  0.00000000000E+00  0.00000000000E+00  0.49525688648E+02  0.49525688648E+02  0.00000000000E+00 0. -1.
         21   -1    0    0  503  502 -0.00000000000E+00 -0.00000000000E+00 -0.60140408133E+02  0.60140408133E+02  0.00000000000E+00 0. -1.
         21    1    1    2  503  501  0.26841839558E+02 -0.34298099139E+02  0.27736255488E+02  0.51634715299E+02  0.00000000000E+00 0. -1.
         21    1    1    2  504  502 -0.26841839558E+02  0.34298099139E+02 -0.38350974973E+02  0.58031381483E+02  0.00000000000E+00 0. -1.
</event>
<event>
 4    1  0.3048956E+006  0.2601515E+02  0.7546771E-02  0.1457760E+00
         21   -1    0    0  503  501  0.00000000000E+00  0.00000000000E+00  0.47537557521E+02  0.47537557521E+02  0.00000000000E+00 0.  1.
         21   -1    0    0  504  502 -0.00000000000E+00 -0.00000000000E+00 -0.18125162803E+03  0.18125162803E+03  0.00000000000E+00 0.  1.
         21    1    1    2  503  502 -0.23354116018E+02 -0.11461820670E+02 -0.17666703918E+03  0.17857220052E+03  0.00000000000E+00 0.  1.
         21    1    1    2  504  501  0.23354116018E+02  0.11461820670E+02  0.42952968668E+02  0.50216985029E+02  0.00000000000E+00 0.  1.
</event>
<event>
 4    1  0.3048956E+006  0.2054759E+02  0.7546771E-02  0.1525823E+00
         21   -1    0    0  503  501  0.00000000000E+00  0.00000000000E+00  0.19038449894E+02  0.19038449894E+02  0.00000000000E+00 0.  1.
         21   -1    0    0  504  502 -0.00000000000E+00 -0.00000000000E+00 -0.27434866069E+02  0.27434866069E+02  0.00000000000E+00 0.  1.
         21    1    1    2  503  502  0.20300850707E+02 -0.31747021564E+01  0.59749071882E+01  0.21398663255E+02  0.00000000000E+00 0.  1.
         21    1    1    2  504  501 -0.20300850707E+02  0.31747021564E+01 -0.14371323362E+02  0.25074652707E+02  0.00000000000E+00 0.  1.
</event>
<event>
 4    1  0.3048956E+006  0.2171978E+02  0.7546771E-02  0.1509232E+00
         21   -1    0    0  504  501  0.00000000000E+00  0.00000000000E+00  0.15140527132E+03  0.15140527132E+03  0.00000000000E+00 0.  1.
         21   -1    0    0  503  502 -0.00000000000E+00 -0.00000000000E+00 -0.36911760639E+03  0.36911760639E+03  0.00000000000E+00 0.  1.
         21    1    1    2  503  501  0.15654535589E+02  0.15056036287E+02 -0.36801681707E+03  0.36865719356E+03  0.00000000000E+00 0.  1.
         21    1    1    2  504  502 -0.15654535589E+02 -0.15056036287E+02  0.15030448200E+03  0.15186568415E+03  0.00000000000E+00 0.  1.
</event>
<event>
 4    1  0.3048956E+006  0.5027385E+02  0.7546771E-02  0.1296989E+00
         21   -1    0    0  504  501  0.00000000000E+00  0.00000000000E+00  0.10868869663E+03  0.10868869663E+03  0.00000000000E+00 0. -1.
         21   -1    0    0  503  502 -0.00000000000E+00 -0.00000000000E+00 -0.81193329039E+03  0.81193329039E+03  0.00000000000E+00 0. -1.
         21    1    1    2  503  501  0.50194092085E+02 -0.28307047505E+01  0.10204905853E+03  0.11376058244E+03  0.00000000000E+00 0. -1.
         21    1    1    2  504  502 -0.50194092085E+02  0.28307047505E+01 -0.80529365230E+03  0.80686140458E+03  0.00000000000E+00 0. -1.
</event>
<event>
 4    1  0.3048956E+006  0.2785462E+02  0.7546771E-02  0.1439207E+00
         21   -1    0    0  503  501  0.00000000000E+00  0.00000000000E+00  0.14017027827E+03  0.14017027827E+03  0.00000000000E+00 0.  1.
         21   -1    0    0  504  502 -0.00000000000E+00 -0.00000000000E+00 -0.56708784695E+01  0.56708784695E+01  0.00000000000E+00 0.  1.
         21    1    1    2  503  502 -0.27850074852E+02 -0.50338311328E+00  0.78526125368E+02  0.83320060184E+02  0.00000000000E+00 0.  1.
         21    1    1    2  504  501  0.27850074852E+02  0.50338311328E+00  0.55973274436E+02  0.62521096559E+02  0.00000000000E+00 0.  1.
</event>
<event>
 4    1  0.3048956E+006  0.2149849E+02  0.7546771E-02  0.1512265E+00
         21   -1    0    0  503  501  0.00000000000E+00  0.00000000000E+00  0.15876467975E+02  0.15876467975E+02  0.00000000000E+00 0.  1.
         21   -1    0    0  504  502 -0.00000000000E+00 -0.00000000000E+00 -0.17102150060E+03  0.17102150060E+03  0.00000000000E+00 0.  1.
         21    1    1    2  503  502 -0.52572931305E+01 -0.20845768349E+02 -0.16269729215E+03  0.16411152934E+03  0.00000000000E+00 0.  1.
         21    1    1    2  504  501  0.52572931305E+01  0.20845768349E+02  0.75522595254E+01  0.22786439236E+02  0.00000000000E+00 0.  1.
</event>
<event>
 4    1  0.3048956E+006  0.2534734E+02  0.7546771E-02  0.1464955E+00
         21   -1    0    0  502  501  0.00000000000E+00  0.00000000000E+00  0.33084969835E+02  0.33084969835E+02  0.00000000000E+00 0.  1.
         21   -1    0    0  503  502 -0.00000000000E+00 -0.00000000000E+00 -0.91977411365E+02  0.91977411365E+02  0.00000000000E+00 0. -1.
         21    1    1    2  503  504  0.14087546095E+02 -0.21071990124E+02 -0.84985344313E+02  0.88684815333E+02  0.00000000000E+00 0. -1.
         21    1    1    2  504  501 -0.14087546095E+02  0.21071990124E+02  0.26092902782E+02  0.36377565866E+02  0.00000000000E+00 0.  1.
</event>
<event>
 4    1  0.3048956E+006  0.3106340E+02  0.7546771E-02  0.1410575E+00
         21   -1    0    0  504  501  0.00000000000E+00  0.00000000000E+00  0.93300446171E+02  0.93300446171E+02  0.00000000000E+00 0. -1.
         21   -1    0    0  501  502 -0.00000000000E+00 -0.00000000000E+00 -0.19480663814E+02  0.19480663814E+02  0.00000000000E+00 0. -1.
         21    1    1    2  503  502 -0.13806345012E+02  0.27826595996E+02 -0.17126100195E+01  0.31110571200E+02  0.00000000000E+00 0. -1.
         21    1    1    2  504  503  0.13806345012E+02 -0.27826595996E+02  0.75532392376E+02  0.81670538785E+02  0.00000000000E+00 0. -1.
</event>
<event>
 4    1  0.3048956E+006  0.2103022E+02  0.7546771E-02  0.1518834E+00
         21   -1    0    0  504  501  0.00000000000E+00  0.00000000000E+00  0.47866507949E+02  0.47866507949E+02  0.00000000000E+00 0.  1.
         21   -1    0    0  501  502 -0.00000000000E+00 -0.00000000000E+00 -0.13420303920E+03  0.13420303920E+03  0.00000000000E+00 0.  1.
         21    1    1    2  503  502 -0.15208399641E+02 -0.14524969634E+02 -0.13101336221E+03  0.13269050923E+03  0.00000000000E+00 0.  1.
         21    1    1    2  504  503  0.15208399641E+02  0.14524969634E+02  0.44676830952E+02  0.49379037925E+02  0.00000000000E+00 0.  1.
</event>
<event>
 4    1  0.3048956E+006  0.2277499E+02  0.7546771E-02  0.1495343E+00
         21   -1    0    0  502  501  0.00000000000E+00  0.00000000000E+00  0.11209468379E+04  0.11209468379E+04  0.00000000000E+00 0.  1.
         21   -1    0    0  503  502 -0.00000000000E+00 -0.00000000000E+00 -0.41783713249E+02  0.41783713249E+02  0.00000000000E+00 0.  1.
         21    1    1    2  503  504  0.14088971764E+02 -0.17894167900E+02 -0.38555583174E+02  0.44779832113E+02  0.00000000000E+00 0.  1.
         21    1    1    2  504  501 -0.14088971764E+02  0.17894167900E+02  0.11177187078E+04  0.11179507190E+04  0.00000000000E+00 0.  1.
</event>
<event>
 4    1  0.3048956E+006  0.2022504E+02  0.7546771E-02  0.1530623E+00
         21   -1    0    0  502  501  0.00000000000E+00  0.00000000000E+00  0.15264813339E+02  0.15264813339E+02  0.00000000000E+00 0. -1.
         21   -1    0    0  504  502 -0.00000000000E+00 -0.00000000000E+00 -0.30034232084E+02  0.30034232084E+02  0.00000000000E+00 0. -1.
         21    1    1    2  503  501  0.12268561834E+02 -0.16079011539E+02  0.51185323495E-01  0.20225104239E+02  0.00000000000E+00 0. -1.
         21    1    1    2  504  503 -0.12268561834E+02  0.16079011539E+02 -0.14820604069E+02  0.25073941184E+02  0.00000000000E+00 0. -1.
</event>
<event>
 4    1  0.3048956E+006  0.3139097E+02  0.7546771E-02  0.1407882E+00
         21   -1    0    0  504  501  0.00000000000E+00  0.00000000000E+00  0.21181590848E+03  0.21181590848E+03  0.00000000000E+00 0. -1.
         21   -1    0    0  501  502 -0.00000000000E+00 -0.00000000000E+00 -0.29875525476E+02  0.29875525476E+02  0.00000000000E+00 0.  1.
         21    1    1    2  503  502 -0.26881844202E+02  0.16209861313E+02 -0.20068757344E+02  0.37257860551E+02  0.00000000000E+00 0.  1.
         21    1    1    2  504  503  0.26881844202E+02 -0.16209861313E+02  0.20200914035E+03  0.20443357341E+03  0.00000000000E+00 0. -1.
</event>
<event>
 4    1  0.3048956E+006  0.3982215E+02  0.7546771E-02  0.1349531E+00
         21   -1    0    0  504  501  0.00000000000E+00  0.00000000000E+00  0.11902599567E+02  0.11902599567E+02  0.00000000000E+00 0. -1.
         21   -1    0    0  501  502 -0.00000000000E+00 -0.00000000000E+00 -0.64292918559E+03  0.64292918559E+03  0.00000000000E+00 0.  1.
         21    1    1    2  503  502 -0.67307792186E+01 -0.39249207589E+02 -0.60703736878E+03  0.60834214944E+03  0.00000000000E+00 0.  1.
         21    1    1    2  504  503  0.67307792186E+01  0.39249207589E+02 -0.23989217240E+02  0.46489635716E+02  0.00000000000E+00 0. -1.
</event>
<event>
 4    1  0.3048956E+006  0.2387890E+02  0.7546771E-02  0.1481747E+00
         21   -1    0    0  502  501  0.00000000000E+00  0.00000000000E+00  0.48495476410E+03  0.48495476410E+03  0.00000000000E+00 0.  1.
         21   -1    0    0  504  502 -0.00000000000E+00 -0.00000000000E+00 -0.82209364215E+01  0.82209364215E+01  0.00000000000E+00 0. -1.
         21    1    1    2  503  501  0.32056517663E+01  0.23662746444E+02  0.46664080624E+03  0.46725137113E+03  0.00000000000E+00 0.  1.
         21    1    1    2  504  503 -0.32056517663E+01 -0.23662746444E+02  0.10093021432E+02  0.25924329387E+02  0.00000000000E+00 0. -1.
</event>
<event>
 4    1  0.3048956E+006  0.2623345E+02  0.7546771E-02  0.1455464E+00
         21   -1    0    0  504  501  0.00000000000E+00  0.00000000000E+00  0.18833350891E+01  0.18833350891E+01  0.00000000000E+00 0. -1.
         21   -1    0    0  503  502 -0.00000000000E+00 -0.00000000000E+00 -0.38400985960E+03  0.38400985960E+03  0.00000000000E+00 0.  1.
         21    1    1    2  503  501  0.21678933656E+02 -0.14772188816E+02 -0.23352467213E+03  0.23499354506E+03  0.00000000000E+00 0.  1.
         21    1    1    2  504  502 -0.21678933656E+02  0.14772188816E+02 -0.14860185238E+03  0.15089964962E+03  0.00000000000E+00 0. -1.
</event>
<event>
 4    1  0.3048956E+006  0.2197771E+02  0.7546771E-02  0.1505750E+00
         21   -1    0    0  504  501  0.00000000000E+00  0.00000000000E+00  0.25869587650E+02  0.25869587650E+02  0.00000000000E+00 0. -1.
         21   -1    0    0  503  502 -0.00000000000E+00 -0.00000000000E+00 -0.43680788728E+02  0.43680788728E+02  0.00000000000E+00 0. -1.
         21    1    1    2  503  501 -0.21306656511E+02 -0.53894592591E+01  0.17407759439E+02  0.28036582735E+02  0.00000000000E+00 0. -1.
         21    1    1    2  504  502  0.21306656511E+02  0.53894592591E+01 -0.35218960517E+02  0.41513793643E+02  0.00000000000E+00 0. -1.
</event>
<event>
 4    1  0.3048956E+006  0.3738003E+02  0.7546771E-02  0.1364563E+00
         21   -1    0    0  503  501  0.00000000000E+00  0.00000000000E+00  0.87011762787E+02  0.87011762787E+02  0.00000000000E+00 0. -1.
         21   -1    0    0  501  502 -0.00000000000E+00 -0.00000000000E+00 -0.12747222697E+03  0.12747222697E+03  0.00000000000E+00 0. -1.
         21    1    1    2  503  504  0.41680003784E+01 -0.37146929102E+02  0.80029540090E+02  0.88328895928E+02  0.00000000000E+00 0. -1.
         21    1    1    2  504  502 -0.41680003784E+01  0.37146929102E+02 -0.12049000427E+03  0.12615509382E+03  0.00000000000E+00 0. -1.
</event>
<event>
 4    1  0.3048956E+006  0.3199561E+02  0.7546771E-02  0.1403012E+00
         21   -1    0    0  503  501  0.00000000000E+00  0.00000000000E+00  0.42724475107E+02  0.42724475107E+02  0.00000000000E+00 0.  1.
         21   -1    0    0  501  502 -0.00000000000E+00 -0.00000000000E+00 -0.30890119288E+02  0.30890119288E+02  0.00000000000E+00 0.  1.
         21    1    1    2  503  504 -0.31575611976E+02  0.51671826293E+01  0.23349879438E+02  0.39609795730E+02  0.00000000000E+00 0.  1.
         21    1    1    2  504  502  0.31575611976E+02 -0.51671826293E+01 -0.11515523620E+02  0.34004798665E+02  0.00000000000E+00 0.  1.
</event>
<event>
 4    1  0.3048956E+006  0.2871223E+02  0.7546771E-02  0.1431127E+00
         21   -1    0    0  504  501  0.00000000000E+00  0.00000000000E+00  0.34532229702E+01  0.34532229702E+01  0.00000000000E+00 0.  1.
         21   -1    0    0  503  502 -0.00000000000E+00 -0.00000000000E+00 -0.70786539875E+03  0.70786539875E+03  0.00000000000E+00 0. -1.
         21    1    1    2  503  501 -0.89818228045E+01 -0.27271215210E+02 -0.64174527636E+03  0.64238726019E+03  0.00000000000E+00 0. -1.
         21    1    1    2  504  502  0.89818228045E+01  0.27271215210E+02 -0.62666899418E+02  0.68931361532E+02  0.00000000000E+00 0.  1.
</event>
<event>
 4    1  0.3048956E+006  0.2784791E+02  0.7546771E-02  0.1439272E+00
         21   -1    0    0  502  501  0.00000000000E+00  0.00000000000E+00  0.60889441645E+03  0.60889441645E+03  0.00000000000E+00 0.  1.
         21   -1    0    0  504  502 -0.00000000000E+00 -0.00000000000E+00 -0.23343854423E+02  0.23343854423E+02  0.00000000000E+00 0. -1.
         21    1    1    2  503  501  0.24518885930E+02  0.13203416864E+02  0.60014981301E+03  0.60079555927E+03  0.00000000000E+00 0.  1.
         21    1    1    2  504  503 -0.24518885930E+02 -0.13203416864E+02 -0.14599250977E+02  0.31442711607E+02  0.00000000000E+00 0. -1.
</event>
<event>
 4    1  0.3048956E+006  0.2098010E+02  0.7546771E-02  0.1519549E+00
         21   -1    0    0  504  501  0.00000000000E+00  0.00000000000E+00  0.74952374346E+03  0.74952374346E+03  0.00000000000E+00 0.  1.
         21   -1    0    0  501  502 -0.00000000000E+00 -0.00000000000E+00 -0.45222344954E+01  0.45222344954E+01  0.00000000000E+00 0.  1.
         21    1    1    2  503  502 -0.20874872545E+02 -0.20986167147E+01  0.20808896560E+02  0.29549529132E+02  0.00000000000E+00 0.  1.
         21    1    1    2  504  503  0.20874872545E+02  0.20986167147E+01  0.72419261240E+03  0.72449644882E+03  0.00000000000E+00 0.  1.
</event>
<event>
 4    1  0.3048956E+006  0.2838337E+02  0.7546771E-02  0.1434186E+00
         21   -1    0    0  504  501  0.00000000000E+00  0.00000000000E+00  0.27494279256E+02  0.27494279256E+02  0.00000000000E+00 0.  1.
         21   -1    0    0  503  502 -0.00000000000E+00 -0.00000000000E+00 -0.11635563250E+03  0.11635563250E+03  0.00000000000E+00 0. -1.
         21    1    1    2  503  501 -0.27790003962E+02  0.57733364869E+01  0.17782347178E+02  0.33493695012E+02  0.00000000000E+00 0.  1.
         21    1    1    2  504  502  0.27790003962E+02 -0.57733364869E+01 -0.10664370042E+03  0.11035621674E+03  0.00000000000E+00 0. -1.
</event>
<event>
 4    1  0.3048956E+006  0.2389834E+02  0.7546771E-02  0.1481516E+00
         21   -1    0    0  503  501  0.00000000000E+00  0.00000000000E+00  0.48591598874E+02  0.48591598874E+02  0.00000000000E+00 0.  1.
         21   -1    0    0  501  502 -0.00000000000E+00 -0.00000000000E+00 -0.11783928275E+02  0.11783928275E+02  0.00000000000E+00 0.  1.
         21    1    1    2  503  504 -0.23277625109E+02 -0.54113641021E+01  0.19932982409E+02  0.31120001284E+02  0.00000000000E+00 0.  1.
         21    1    1    2  504  502  0.23277625109E+02  0.54113641021E+01  0.16874688189E+02  0.29255525865E+02  0.00000000000E+00 0.  1.
</event>
<event>
 4    1  0.3048956E+006  0.2019349E+02  0.7546771E-02  0.1531098E+00
         21   -1    0    0  504  501  0.00000000000E+00  0.00000000000E+00  0.44976548251E+03  0.44976548251E+03  0.00000000000E+00 0.  1.
         21   -1    0    0  501  502 -0.00000000000E+00 -0.00000000000E+00 -0.13883073470E+02  0.13883073470E+02  0.00000000000E+00 0. -1.
         21    1    1    2  503  502 -0.15799683425E+02  0.12575647733E+02 -0.61855591008E+01  0.21119613008E+02  0.00000000000E+00 0. -1.
         21    1    1    2  504  503  0.15799683425E+02 -0.12575647733E+02  0.44206796814E+03  0.44252894297E+03  0.00000000000E+00 0.  1.
</event>
<event>
 4    1  0.3048956E+006  0.2658334E+02  0.7546771E-02  0.1451839E+00
         21   -1    0    0  502  501  0.00000000000E+00  0.00000000000E+00  0.14995750680E+03  0.14995750680E+03  0.00000000000E+00 0. -1.
         21   -1    0    0  504  502 -0.00000000000E+00 -0.00000000000E+00 -0.58884154869E+01  0.58884154869E+01  0.00000000000E+00 0. -1.
         21    1    1    2  503  501  0.11711378311E+02  0.23864570620E+02  0.10685665423E+03  0.11011366248E+03  0.00000000000E+00 0. -1.
         21    1    1    2  504  503 -0.11711378311E+02 -0.23864570620E+02  0.37212437083E+02  0.45732259801E+02  0.00000000000E+00 0. -1.
</event>
<event>
 4    1  0.3048956E+006  0.2364726E+02  0.7546771E-02  0.1484527E+00
         21   -1    0    0  502  501  0.00000000000E+00  0.00000000000E+00  0.34877241876E+01  0.34877241876E+01  0.00000000000E+00 0.  1.
         21   -1    0    0  503  502 -0.00000000000E+00 -0.00000000000E+00 -0.29304731096E+03  0.29304731096E+03  0.00000000000E+00 0.  1.
         21    1    1    2  503  504  0.11122333088E+02  0.20868312074E+02 -0.24455856526E+03  0.24569917498E+03  0.00000000000E+00 0.  1.
         21    1    1    2  504  501 -0.11122333088E+02 -0.20868312074E+02 -0.45001021510E+02  0.50835860169E+02  0.00000000000E+00 0.  1.
</event>
<event>
 4    1  0.3048956E+006  0.2127959E+02  0.7546771E-02  0.1515310E+00
         21   -1    0    0  504  501  0.00000000000E+00  0.00000000000E+00  0.21702473262E+02  0.21702473262E+02  0.00000000000E+00 0. -1.
         21   -1    0    0  503  502 -0.00000000000E+00 -0.00000000000E+00 -0.35361426236E+02  0.35361426236E+02  0.00000000000E+00 0. -1.
         21    1    1    2  503  501  0.65989933050E+01 -0.20230523306E+02 -0.25097768671E+02  0.32904692342E+02  0.00000000000E+00 0. -1.
         21    1    1    2  504  502 -0.65989933050E+01  0.20230523306E+02  0.11438815696E+02  0.24159207156E+02  0.00000000000E+00 0. -1.
</event>
<event>
 4    1  0.3048956E+006  0.2055151E+02  0.7546771E-02  0.1525766E+00
         21   -1    0    0  503  501  0.00000000000E+00  0.00000000000E+00  0.55531938755E+02  0.55531938755E+02  0.00000000000E+00 0. -1.
         21   -1    0    0  504  502 -0.00000000000E+00 -0.00000000000E+00 -0.13408882841E+02  0.13408882841E+02  0.00000000000E+00 0.  1.
         21    1    1    2  503  502 -0.20489373788E+02  0.15968499332E+01  0.43738227749E+02  0.48325944735E+02  0.00000000000E+00 0. -1.
         21    1    1    2  504  501  0.20489373788E+02 -0.15968499332E+01 -0.16151718351E+01  0.20614876861E+02  0.00000000000E+00 0.  1.
</event>
<event>
 4    1  0.3048956E+006  0.2011409E+02  0.7546771E-02  0.1532299E+00
         21   -1    0    0  504  501  0.00000000000E+00  0.00000000000E+00  0.12482766789E+02  0.12482766789E+02  0.00000000000E+00 0. -1.
         21   -1    0    0  503  502 -0.00000000000E+00 -0.00000000000E+00 -0.35027708895E+02  0.35027708895E+02  0.00000000000E+00 0. -1.
         21    1    1    2  503  501 -0.15981614347E+02 -0.12213303845E+02 -0.17765474364E+02  0.26836334834E+02  0.00000000000E+00 0. -1.
         21    1    1    2  504  502  0.15981614347E+02  0.12213303845E+02 -0.47794677427E+01  0.20674140850E+02  0.00000000000E+00 0. -1.
</event>
<event>
 4    1  0.3048956E+006  0.2064477E+02  0.7546771E-02  0.1524398E+00
         21   -1    0    0  504  501  0.00000000000E+00  0.00000000000E+00  0.19729625046E+03  0.19729625046E+03  0.00000000000E+00 0.  1.
         21   -1    0    0  501  502 -0.00000000000E+00 -0.00000000000E+00 -0.85785911429E+01  0.85785911429E+01  0.00000000000E+00 0.  1.
         21    1    1    2  503  502 -0.80176697063E+01  0.19024284485E+02  0.53204648624E+01  0.21319328649E+02  0.00000000000E+00 0.  1.
         21    1    1    2  504  503  0.80176697063E+01 -0.19024284485E+02  0.18339719445E+03  0.18455551295E+03  0.00000000000E+00 0.  1.
</event>
<event>
 4    1  0.3048956E+006  0.2063788E+02  0.7546771E-02  0.1524498E+00
         21   -1    0    0  504  501  0.00000000000E+00  0.00000000000E+00  0.72884104627E+01  0.72884104627E+01  0.00000000000E+00 0.  1.
         21   -1    0    0  503  502 -0.00000000000E+00 -0.00000000000E+00 -0.62448049401E+02  0.62448049401E+02  0.00000000000E+00 0. -1.
         21    1    1    2  503  501  0.34369909441E+01 -0.20349674249E+02 -0.36415303148E+02  0.41856856692E+02  0.00000000000E+00 0. -1.
         21    1    1    2  504  502 -0.34369909441E+01  0.20349674249E+02 -0.18744335790E+02  0.27879603172E+02  0.00000000000E+00 0.  1.
</event>
<event>
 4    1  0.3048956E+006  0.2833799E+02  0.7546771E-02  0.1434612E+00
         21   -1    0    0  504  501  0.00000000000E+00  0.00000000000E+00  0.21919211318E+03  0.21919211318E+03  0.00000000000E+00 0.  1.
         21   -1    0    0  501  502 -0.00000000000E+00 -0.00000000000E+00 -0.66983393751E+01  0.66983393751E+01  0.00000000000E+00 0.  1.
         21    1    1    2  503  502  0.21548317125E+02  0.18404129257E+02  0.30224441880E+02  0.41431374966E+02  0.00000000000E+00 0.  1.
         21    1    1    2  504  503 -0.21548317125E+02 -0.18404129257E+02  0.18226933193E+03  0.18445907759E+03  0.00000000000E+00 0.  1.
</event>
<event>
 4    1  0.3048956E+006  0.3199008E+02  0.7546771E-02  0.1403056E+00
         21   -1    0    0  502  501  0.00000000000E+00  0.00000000000E+00  0.41515567529E+03  0.41515567529E+03  0.00000000000E+00 0.  1.
         21   -1    0    0  503  502 -0.00000000000E+00 -0.00000000000E+00 -0.34753035062E+02  0.34753035062E+02  0.00000000000E+00 0. -1.
         21    1    1    2  503  504 -0.20782770046E+02  0.24319570275E+02 -0.26628366728E+02  0.41622529281E+02  0.00000000000E+00 0. -1.
         21    1    1    2  504  501  0.20782770046E+02 -0.24319570275E+02  0.40703100696E+03  0.40828618107E+03  0.00000000000E+00 0.  1.
</event>
<event>
 4    1  0.3048956E+006  0.2345793E+02  0.7546771E-02  0.1486827E+00
         21   -1    0    0  503  501  0.00000000000E+00  0.00000000000E+00  0.24703967427E+02  0.24703967427E+02  0.00000000000E+00 0.  1.
         21   -1    0    0  501  502 -0.00000000000E+00 -0.00000000000E+00 -0.13570938972E+03  0.13570938972E+03  0.00000000000E+00 0. -1.
         21    1    1    2  503  504  0.20043462022E+02 -0.12187452817E+02  0.17826743722E+02  0.29462979614E+02  0.00000000000E+00 0.  1.
         21    1    1    2  504  502 -0.20043462022E+02  0.12187452817E+02 -0.12883216602E+03  0.13095037753E+03  0.00000000000E+00 0. -1.
</event>
<event>
 4    1  0.3048956E+006  0.3531069E+02  0.7546771E-02  0.1378392E+00
         21   -1    0    0  503  501  0.00000000000E+00  0.00000000000E+00  0.16970008277E+02  0.16970008277E+02  0.00000000000E+00 0.  1.
         21   -1    0    0  501  502 -0.00000000000E+00 -0.00000000000E+00 -0.87262058893E+02  0.87262058893E+02  0.00000000000E+00 0.  1.
         21    1    1    2  503  504 -0.20729976430E+02  0.28585191528E+02 -0.14429409394E+02  0.38145156349E+02  0.00000000000E+00 0.  1.
         21    1    1    2  504  502  0.20729976430E+02 -0.28585191528E+02 -0.55862641222E+02  0.66086910820E+02  0.00000000000E+00 0.  1.
</event>
<event>
 4    1  0.3048956E+006  0.2455331E+02  0.7546771E-02  0.1473863E+00
         21   -1    0    0  503  501  0.00000000000E+00  0.00000000000E+00  0.16595397673E+04  0.16595397673E+04  0.00000000000E+00 0.  1.
         21   -1    0    0  504  502 -0.00000000000E+00 -0.00000000000E+00 -0.44653168417E+01  0.44653168417E+01  0.00000000000E+00 0. -1.
         21    1    1    2  503  502  0.23808645153E+02 -0.60011003460E+01  0.30095969352E+02  0.38841114307E+02  0.00000000000E+00 0. -1.
         21    1    1    2  504  501 -0.23808645153E+02  0.60011003460E+01  0.16249784811E+04  0.16251639698E+04  0.00000000000E+00 0.  1.
</event>
<event>
 4    1  0.3048956E+006  0.2681577E+02  0.7546771E-02  0.1449468E+00
         21   -1    0    0  503  501  0.00000000000E+00  0.00000000000E+00  0.17181559292E+03  0.17181559292E+03  0.00000000000E+00 0.  1.
         21   -1    0    0  504  502 -0.00000000000E+00 -0.00000000000E+00 -0.45960492159E+03  0.45960492159E+03  0.00000000000E+00 0. -1.
         21    1    1    2  503  502  0.26739846962E+02  0.20164706438E+01 -0.45816418660E+03  0.45894826229E+03  0.00000000000E+00 0. -1.
         21    1    1    2  504  501 -0.26739846962E+02 -0.20164706438E+01  0.17037485794E+03  0.17247225222E+03  0.00000000000E+00 0.  1.
</event>
<event>
 4    1  0.3048956E+006  0.2158957E+02  0.7546771E-02  0.1511011E+00
         21   -1    0    0  503  501  0.00000000000E+00  0.00000000000E+00  0.29110724048E+00  0.29110724048E+00  0.00000000000E+00 0.  1.
         21   -1    0    0  504  502 -0.00000000000E+00 -0.00000000000E+00 -0.17187711429E+04  0.17187711429E+04  0.00000000000E+00 0.  1.
         21    1    1    2  503  502  0.10073315247E+02  0.19095493342E+02 -0.63439924985E+03  0.63476650648E+03  0.00000000000E+00 0.  1.
         21    1    1    2  504  501 -0.10073315247E+02 -0.19095493342E+02 -0.10840807858E+04  0.10842957437E+04  0.00000000000E+00 0.  1.
</event>
<event>
 4    1  0.3048956E+006  0.4451551E+02  0.7546771E-02  0.1323880E+00
         21   -1    0    0  504  501  0.00000000000E+00  0.00000000000E+00  0.91989725303E+01  0.91989725303E+01  0.00000000000E+00 0. -1.
         21   -1    0    0  501  502 -0.00000000000E+00 -0.00000000000E+00 -0.24028595804E+03  0.24028595804E+03  0.00000000000E+00 0. -1.
         21    1    1    2  503  502  0.17314784029E+02  0.41010108004E+02 -0.15567302306E+03  0.16191269503E+03  0.00000000000E+00 0. -1.
         21    1    1    2  504  503 -0.17314784029E+02 -0.41010108004E+02 -0.75413962450E+02  0.87572235537E+02  0.00000000000E+00 0. -1.
</event>
<event>
 4    1  0.3048956E+006  0.2253354E+02  0.7546771E-02  0.1498440E+00
         21   -1    0    0  504  501  0.00000000000E+00  0.00000000000E+00  0.78923369950E+00  0.78923369950E+00  0.00000000000E+00 0. -1.
         21   -1    0    0  503  502 -0.00000000000E+00 -0.00000000000E+00 -0.74570261208E+03  0.74570261208E+03  0.00000000000E+00 0. -1.
         21    1    1    2  503  501 -0.15842615452E+02  0.16024108721E+02 -0.23418195792E+03  0.23526357547E+03  0.00000000000E+00 0. -1.
         21    1    1    2  504  502  0.15842615452E+02 -0.16024108721E+02 -0.51073142046E+03  0.51122827031E+03  0.00000000000E+00 0. -1.
</event>
<event>
 4    1  0.3048956E+006  0.2464588E+02  0.7546771E-02  0.1472804E+00
         21   -1    0    0  503  501  0.00000000000E+00  0.00000000000E+00  0.73983734747E+03  0.73983734747E+03  0.00000000000E+00 0. -1.
         21   -1    0    0  504  502 -0.00000000000E+00 -0.00000000000E+00 -0.12075363153E+01  0.12075363153E+01  0.00000000000E+00 0. -1.
         21    1    1    2  503  502 -0.10911370772E+01 -0.24621716075E+02  0.57894309417E+03  0.57946745014E+03  0.00000000000E+00 0. -1.
         21    1    1    2  504  501  0.10911370772E+01  0.24621716075E+02  0.15968671698E+03  0.16157743365E+03  0.00000000000E+00 0. -1.
</event>
<event>
 4    1  0.3048956E+006  0.2505942E+02  0.7546771E-02  0.1468140E+00
         21   -1    0    0  502  501  0.00000000000E+00  0.00000000000E+00  0.35940583057E+03  0.35940583057E+03  0.00000000000E+00 0. -1.
         21   -1    0    0  503  502 -0.00000000000E+00 -0.00000000000E+00 -0.15210346453E+02  0.15210346453E+02  0.00000000000E+00 0. -1.
         21    1    1    2  503  504 -0.52859433154E+01 -0.24495573610E+02 -0.41239414069E+01  0.25396480385E+02  0.00000000000E+00 0. -1.
         21    1    1    2  504  501  0.52859433154E+01  0.24495573610E+02  0.34831942553E+03  0.34921969664E+03  0.00000000000E+00 0. -1.
</event>
<event>
 4    1  0.3048956E+006  0.3189366E+02  0.7546771E-02  0.1403824E+00
         21   -1    0    0  502  501  0.00000000000E+00  0.00000000000E+00  0.96721180476E+02  0.96721180476E+02  0.00000000000E+00 0.  1.
         21   -1    0    0  504  502 -0.00000000000E+00 -0.00000000000E+00 -0.10757176776E+02  0.10757176776E+02  0.00000000000E+00 0.  1.
         21    1    1    2  503  501 -0.72997921571E+01 -0.31047035998E+02  0.51013794132E+02  0.60163216349E+02  0.00000000000E+00 0.  1.
         21    1    1    2  504  503  0.72997921571E+01  0.31047035998E+02  0.34950209568E+02  0.47315140902E+02  0.00000000000E+00 0.  1.
</event>
<event>
 4    1  0.3048956E+006  0.3089027E+02  0.7546771E-02  0.1412014E+00
         21   -1    0    0  503  501  0.00000000000E+00  0.00000000000E+00  0.34186501606E+02  0.34186501606E+02  0.00000000000E+00 0. -1.
         21   -1    0    0  504  502 -0.00000000000E+00 -0.00000000000E+00 -0.30227545772E+02  0.30227545772E+02  0.00000000000E+00 0. -1.
         21    1    1    2  503  502  0.30355974431E+02 -0.57204491517E+01  0.10893820174E+02  0.32754908642E+02  0.00000000000E+00 0. -1.
         21    1    1    2  504  501 -0.30355974431E+02  0.57204491517E+01 -0.69348643405E+01  0.31659138737E+02  0.00000000000E+00 0. -1.
</event>
<event>
 4    1  0.3048956E+006  0.4348857E+02  0.7546771E-02  0.1329172E+00
         21   -1    0    0  503  501  0.00000000000E+00  0.00000000000E+00  0.46703807722E+02  0.46703807722E+02  0.00000000000E+00 0. -1.
         21   -1    0    0  504  502 -0.00000000000E+00 -0.00000000000E+00 -0.40565560484E+02  0.40565560484E+02  0.00000000000E+00 0.  1.
         21    1    1    2  503  502 -0.14277204807E+01 -0.43465123456E+02  0.48932000998E+01  0.43762983788E+02  0.00000000000E+00 0. -1.
         21    1    1    2  504  501  0.14277204807E+01  0.43465123456E+02  0.12450471388E+01  0.43506384419E+02  0.00000000000E+00 0.  1.
</event>
<event>
 4    1  0.3048956E+006  0.2064143E+02  0.7546771E-02  0.1524446E+00
         21   -1    0    0  504  501  0.00000000000E+00  0.00000000000E+00  0.11177462087E+03  0.11177462087E+03  0.00000000000E+00 0. -1.
         21   -1    0    0  503  502 -0.00000000000E+00 -0.00000000000E+00 -0.39260090615E+01  0.39260090615E+01  0.00000000000E+00 0.  1.
         21    1    1    2  503  501  0.18687608419E+01 -0.20556665857E+02  0.44059840895E+02  0.48655301437E+02  0.00000000000E+00 0.  1.
         21    1    1    2  504  502 -0.18687608419E+01  0.20556665857E+02  0.63788770912E+02  0.67045328493E+02  0.00000000000E+00 0. -1.
</event>
<event>
 4    1  0.3048956E+006  0.2310965E+02  0.7546771E-02  0.1491126E+00
         21   -1    0    0  502  501  0.00000000000E+00  0.00000000000E+00  0.25539482567E+02  0.25539482567E+02  0.00000000000E+00 0.  1.
         21   -1    0    0  503  502 -0.00000000000E+00 -0.00000000000E+00 -0.25208801868E+03  0.25208801868E+03  0.00000000000E+00 0. -1.
         21    1    1    2  503  504 -0.80283520860E+01 -0.21670291086E+02 -0.24620601792E+03  0.24728821082E+03  0.00000000000E+00 0. -1.
         21    1    1    2  504  501  0.80283520860E+01  0.21670291086E+02  0.19657481800E+02  0.30339290429E+02  0.00000000000E+00 0.  1.
</event>
<event>
 4    1  0.3048956E+006  0.2181240E+02  0.7546771E-02  0.1507975E+00
         21   -1    0    0  502  501  0.00000000000E+00  0.00000000000E+00  0.74977984499E+01  0.74977984499E+01  0.00000000000E+00 0.  1.
         21   -1    0    0  503  502 -0.00000000000E+00 -0.00000000000E+00 -0.10056901407E+03  0.10056901407E+03  0.00000000000E+00 0. -1.
         21    1    1    2  503  504  0.14585882197E+02 -0.16218288657E+02 -0.79359716011E+02  0.82302766489E+02  0.00000000000E+00 0. -1.
         21    1    1    2  504  501 -0.14585882197E+02  0.16218288657E+02 -0.13711499612E+02  0.25764046034E+02  0.00000000000E+00 0.  1.
</event>
<event>
 4    1  0.3048956E+006  0.3224113E+02  0.7546771E-02  0.1401071E+00
         21   -1    0    0  503  501  0.00000000000E+00  0.00000000000E+00  0.89117012222E+02  0.89117012222E+02  0.00000000000E+00 0. -1.
         21   -1    0    0  504  502 -0.00000000000E+00 -0.00000000000E+00 -0.11729817866E+02  0.11729817866E+02  0.00000000000E+00 0. -1.
         21    1    1    2  503  502 -0.30726721748E+02 -0.97651799165E+01  0.42461239643E+02  0.53314604380E+02  0.00000000000E+00 0. -1.
         21    1    1    2  504  501  0.30726721748E+02  0.97651799165E+01  0.34925954713E+02  0.47532225708E+02  0.00000000000E+00 0. -1.
</event>
<event>
 4    1  0.3048956E+006  0.2089683E+02  0.7546771E-02  0.1520743E+00
         21   -1    0    0  504  501  0.00000000000E+00  0.00000000000E+00  0.47233803500E+02  0.47233803500E+02  0.00000000000E+00 0. -1.
         21   -1    0    0  503  502 -0.00000000000E+00 -0.00000000000E+00 -0.25542135379E+02  0.25542135379E+02  0.00000000000E+00 0.  1.
         21    1    1    2  503  501  0.19663004740E+02  0.70741714049E+01  0.39911784870E+02  0.45051395405E+02  0.00000000000E+00 0. -1.
         21    1    1    2  504  502 -0.19663004740E+02 -0.70741714049E+01 -0.18220116749E+02  0.27724543474E+02  0.00000000000E+00 0.  1.
</event>
<event>
 4    1  0.3048956E+006  0.4996541E+02  0.7546771E-02  0.1298323E+00
         21   -1    0    0  503  501  0.00000000000E+00  0.00000000000E+00  0.53172799242E+02  0.53172799242E+02  0.00000000000E+00 0. -1.
         21   -1    0    0  504  502 -0.00000000000E+00 -0.00000000000E+00 -0.45510714518E+03  0.45510714518E+03  0.00000000000E+00 0.  1.
         21    1    1    2  503  502 -0.32641977912E+02  0.37829129717E+02 -0.44164111088E+03  0.44445856117E+03  0.00000000000E+00 0.  1.
         21    1    1    2  504  501  0.32641977912E+02 -0.37829129717E+02  0.39706764946E+02  0.63821383248E+02  0.00000000000E+00 0. -1.
</event>
<event>
 4    1  0.3048956E+006  0.2016973E+02  0.7546771E-02  0.1531457E+00
         21   -1    0    0  503  501  0.00000000000E+00  0.00000000000E+00  0.78130270399E+02  0.78130270399E+02  0.00000000000E+00 0.  1.
         21   -1    0    0  504  502 -0.00000000000E+00 -0.00000000000E+00 -0.10549829723E+02  0.10549829723E+02  0.00000000000E+00 0. -1.
         21    1    1    2  503  502  0.11432934947E+02  0.16616438119E+02  0.65344799924E+02  0.68386847379E+02  0.00000000000E+00 0.  1.
         21    1    1    2  504  501 -0.11432934947E+02 -0.16616438119E+02  0.22356407515E+01  0.20293252742E+02  0.00000000000E+00 0. -1.
</event>
<event>
 4    1  0.3048956E+006  0.2279714E+02  0.7546771E-02  0.1495061E+00
         21   -1    0    0  503  501  0.00000000000E+00  0.00000000000E+00  0.38062024949E+01  0.38062024949E+01  0.00000000000E+00 0.  1.
         21   -1    0    0  504  502 -0.00000000000E+00 -0.00000000000E+00 -0.27887342025E+03  0.27887342025E+03  0.00000000000E+00 0.  1.
         21    1    1    2  503  502 -0.14600215963E+02  0.17508383726E+02 -0.23850771384E+03  0.23959473986E+03  0.00000000000E+00 0.  1.
         21    1    1    2  504  501  0.14600215963E+02 -0.17508383726E+02 -0.36559503920E+02  0.43084882891E+02  0.00000000000E+00 0.  1.
</event>
<event>
 4    1  0.3048956E+006  0.2020717E+02  0.7546771E-02  0.1530892E+00
         21   -1    0    0  503  501  0.00000000000E+00  0.00000000000E+00  0.11371995563E+02  0.11371995563E+02  0.00000000000E+00 0. -1.
         21   -1    0    0  504  502 -0.00000000000E+00 -0.00000000000E+00 -0.47335075324E+02  0.47335075324E+02  0.00000000000E+00 0. -1.
         21    1    1    2  503  502  0.18048141834E+02 -0.90881305026E+01 -0.32404795116E+02  0.38189007400E+02  0.00000000000E+00 0. -1.
         21    1    1    2  504  501 -0.18048141834E+02  0.90881305026E+01 -0.35582846454E+01  0.20518063488E+02  0.00000000000E+00 0. -1.
</event>
<event>
 4    1  0.3048956E+006  0.2827449E+02  0.7546771E-02  0.1435209E+00
         21   -1    0    0  504  501  0.00000000000E+00  0.00000000000E+00  0.50796445633E+02  0.50796445633E+02  0.00000000000E+00 0. -1.
         21   -1    0    0  503  502 -0.00000000000E+00 -0.00000000000E+00 -0.38911289001E+02  0.38911289001E+02  0.00000000000E+00 0.  1.
         21    1    1    2  503  501 -0.12988883836E+02  0.25114449828E+02 -0.28671571383E+02  0.40267923948E+02  0.00000000000E+00 0.  1.
         21    1    1    2  504  502  0.12988883836E+02 -0.25114449828E+02  0.40556728015E+02  0.49439810687E+02  0.00000000000E+00 0. -1.
</event>
<event>
 4    1  0.3048956E+006  0.3745883E+02  0.7546771E-02  0.1364057E+00
         21   -1    0    0  502  501  0.00000000000E+00  0.00000000000E+00  0.81721734966E+02  0.81721734966E+02  0.00000000000E+00 0.  1.
         21   -1    0    0  504  502 -0.00000000000E+00 -0.00000000000E+00 -0.28784375950E+02  0.28784375950E+02  0.00000000000E+00 0.  1.
         21    1    1    2  503  501  0.31070978661E+02  0.20922672333E+02  0.61566118772E+02  0.72066295264E+02  0.00000000000E+00 0.  1.
         21    1    1    2  504  503 -0.31070978661E+02 -0.20922672333E+02 -0.86287597558E+01  0.38439815652E+02  0.00000000000E+00 0.  1.
</event>
<event>
 4    1  0.3048956E+006  0.2445735E+02  0.7546771E-02  0.1474966E+00
         21   -1    0    0  503  501  0.00000000000E+00  0.00000000000E+00  0.10190448493E+03  0.10190448493E+03  0.00000000000E+00 0. -1.
         21   -1    0    0  504  502 -0.00000000000E+00 -0.00000000000E+00 -0.15465847265E+02  0.15465847265E+02  0.00000000000E+00 0. -1.
         21    1    1    2  503  502  0.19111895138E+02  0.15260984670E+02  0.89445386280E+02  0.92728848346E+02  0.00000000000E+00 0. -1.
         21    1    1    2  504  501 -0.19111895138E+02 -0.15260984670E+02 -0.30067486177E+01  0.24641483846E+02  0.00000000000E+00 0. -1.
</event>
<event>
 4    1  0.3048956E+006  0.3351565E+02  0.7546771E-02  0.1391310E+00
         21   -1    0    0  502  501  0.00000000000E+00  0.00000000000E+00  0.27037175065E+03  0.27037175065E+03  0.00000000000E+00 0. -1.
         21   -1    0    0  503  502 -0.00000000000E+00 -0.00000000000E+00 -0.24933369176E+02  0.24933369176E+02  0.00000000000E+00 0. -1.
         21    1    1    2  503  504  0.51861092030E+00 -0.33511635443E+02 -0.12071511298E+02  0.35623307713E+02  0.00000000000E+00 0. -1.
         21    1    1    2  504  501 -0.51861092030E+00  0.33511635443E+02  0.25750989277E+03  0.25968181212E+03  0.00000000000E+00 0. -1.
</event>
<event>
 4    1  0.3048956E+006  0.2056108E+02  0.7546771E-02  0.1525625E+00
         21   -1    0    0  502  501  0.00000000000E+00  0.00000000000E+00  0.72869491884E+00  0.72869491884E+00  0.00000000000E+00 0. -1.
         21   -1    0    0  504  502 -0.00000000000E+00 -0.00000000000E+00 -0.93780349883E+03  0.93780349883E+03  0.00000000000E+00 0. -1.
         21    1    1    2  503  501  0.20368961238E+02 -0.28042025694E+01 -0.17874320793E+03  0.17992190671E+03  0.00000000000E+00 0. -1.
         21    1    1    2  504  503 -0.20368961238E+02  0.28042025694E+01 -0.75833159598E+03  0.75861028704E+03  0.00000000000E+00 0. -1.
</event>
<event>
 4    1  0.3048956E+006  0.2118871E+02  0.7546771E-02  0.1516587E+00
         21   -1    0    0  503  501  0.00000000000E+00  0.00000000000E+00  0.17353457438E+03  0.17353457438E+03  0.00000000000E+00 0.  1.
         21   -1    0    0  501  502 -0.00000000000E+00 -0.00000000000E+00 -0.33517400727E+01  0.33517400727E+01  0.00000000000E+00 0.  1.
         21    1    1    2  503  504  0.83112795847E+00  0.21172405754E+02  0.12733306365E+03  0.12908396739E+03  0.00000000000E+00 0.  1.
         21    1    1    2  504  502 -0.83112795847E+00 -0.21172405754E+02  0.42849770655E+02  0.47802347058E+02  0.00000000000E+00 0.  1.
</event>
<event>
 4    1  0.3048956E+006  0.2156129E+02  0.7546771E-02  0.1511400E+00
         21   -1    0    0  503  501  0.00000000000E+00  0.00000000000E+00  0.85118315683E+03  0.85118315683E+03  0.00000000000E+00 0.  1.
         21   -1    0    0  504  502 -0.00000000000E+00 -0.00000000000E+00 -0.78743117891E+01  0.78743117891E+01  0.00000000000E+00 0.  1.
         21    1    1    2  503  502  0.59802185394E+01 -0.20715361463E+02  0.72895774678E+01  0.22760209884E+02  0.00000000000E+00 0.  1.
         21    1    1    2  504  501 -0.59802185394E+01  0.20715361463E+02  0.83601926758E+03  0.83629725874E+03  0.00000000000E+00 0.  1.
</event>
<event>
 4    1  0.3048956E+006  0.2965988E+02  0.7546771E-02  0.1422575E+00
         21   -1    0    0  502  501  0.00000000000E+00  0.00000000000E+00  0.20490340998E+02  0.20490340998E+02  0.00000000000E+00 0. -1.
         21   -1    0    0  504  502 -0.00000000000E+00 -0.00000000000E+00 -0.20199975798E+03  0.20199975798E+03  0.00000000000E+00 0. -1.
         21    1    1    2  503  501 -0.23528399616E+02  0.18058876544E+02  0.79630298514E+01  0.30710233716E+02  0.00000000000E+00 0. -1.
         21    1    1    2  504  503  0.23528399616E+02 -0.18058876544E+02 -0.18947244683E+03  0.19177986526E+03  0.00000000000E+00 0. -1.
</event>
<event>
 4    1  0.3048956E+006  0.3734005E+02  0.7546771E-02  0.1364820E+00
         21   -1    0    0  503  501  0.00000000000E+00  0.00000000000E+00  0.40024283582E+02  0.40024283582E+02  0.00000000000E+00 0.  1.
         21   -1    0    0  504  502 -0.00000000000E+00 -0.00000000000E+00 -0.35211868228E+02  0.35211868228E+02  0.00000000000E+00 0.  1.
         21    1    1    2  503  502 -0.37310044713E+02 -0.14965842236E+01  0.62936785410E+01  0.37866734615E+02  0.00000000000E+00 0.  1.
         21    1    1    2  504  501  0.37310044713E+02  0.14965842236E+01 -0.14812631873E+01  0.37369417195E+02  0.00000000000E+00 0.  1.
</event>
<event>
 4    1  0.3048956E+006  0.3978205E+02  0.7546771E-02  0.1349768E+00
         21   -1    0    0  504  501  0.00000000000E+00  0.00000000000E+00  0.31365594589E+02  0.31365594589E+02  0.00000000000E+00 0.  1.
         21   -1    0    0  503  502 -0.00000000000E+00 -0.00000000000E+00 -0.50488655804E+02  0.50488655804E+02  0.00000000000E+00 0.  1.
         21    1    1    2  503  501 -0.38399274997E+02 -0.10397475588E+02 -0.10587360135E+02  0.41166782890E+02  0.00000000000E+00 0.  1.
         21    1    1    2  504  502  0.38399274997E+02  0.10397475588E+02 -0.85357010798E+01  0.40687467503E+02  0.00000000000E+00 0.  1.
</event>
<event>
 4    1  0.3048956E+006  0.2163606E+02  0.7546771E-02  0.1510374E+00
         21   -1    0    0  502  501  0.00000000000E+00  0.00000000000E+00  0.72415653442E+00  0.72415653442E+00  0.00000000000E+00 0. -1.
         21   -1    0    0  503  502 -0.00000000000E+00 -0.00000000000E+00 -0.69754586465E+03  0.69754586465E+03  0.00000000000E+00 0.  1.
         21    1    1    2  503  504 -0.21249326976E+02 -0.40725186651E+01 -0.44291883087E+03  0.44344696419E+03  0.00000000000E+00 0.  1.
         21    1    1    2  504  501  0.21249326976E+02  0.40725186651E+01 -0.25390287725E+03  0.25482305700E+03  0.00000000000E+00 0. -1.
</event>
<event>
 4    1  0.3048956E+006  0.3049963E+02  0.7546771E-02  0.1415303E+00
         21   -1    0    0  504  501  0.00000000000E+00  0.00000000000E+00  0.51374231105E+02  0.51374231105E+02  0.00000000000E+00 0. -1.
         21   -1    0    0  501  502 -0.00000000000E+00 -0.00000000000E+00 -0.12306753219E+03  0.12306753219E+03  0.00000000000E+00 0. -1.
         21    1    1    2  503  502  0.26785902892E+02  0.14585702459E+02 -0.11639598857E+03  0.12032561433E+03  0.00000000000E+00 0. -1.
         21    1    1    2  504  503 -0.26785902892E+02 -0.14585702459E+02  0.44702687484E+02  0.54116148960E+02  0.00000000000E+00 0. -1.
</event>
<event>
 4    1  0.3048956E+006  0.4361755E+02  0.7546771E-02  0.1328498E+00
         21   -1    0    0  504  501  0.00000000000E+00  0.00000000000E+00  0.50576105291E+02  0.50576105291E+02  0.00000000000E+00 0. -1.
         21   -1    0    0  503  502 -0.00000000000E+00 -0.00000000000E+00 -0.13987047018E+03  0.13987047018E+03  0.00000000000E+00 0. -1.
         21    1    1    2  503  501 -0.10083598082E+02 -0.42435966987E+02  0.36770828578E+02  0.57048962117E+02  0.00000000000E+00 0. -1.
         21    1    1    2  504  502  0.10083598082E+02  0.42435966987E+02 -0.12606519346E+03  0.13339761335E+03  0.00000000000E+00 0. -1.
</event>
<event>
 4    1  0.3048956E+006  0.2478871E+02  0.7546771E-02  0.1471181E+00
         21   -1    0    0  504  501  0.00000000000E+00  0.00000000000E+00  0.15703407482E+03  0.15703407482E+03  0.00000000000E+00 0.  1.
         21   -1    0    0  501  502 -0.00000000000E+00 -0.00000000000E+00 -0.13706932261E+02  0.13706932261E+02  0.00000000000E+00 0.  1.
         21    1    1    2  503  502 -0.23794634188E+02  0.69494866440E+01 -0.49957509741E+00  0.24793740259E+02  0.00000000000E+00 0.  1.
         21    1    1    2  504  503  0.23794634188E+02 -0.69494866440E+01  0.14382671766E+03  0.14594726682E+03  0.00000000000E+00 0.  1.
</event>
<event>
 4    1  0.3048956E+006  0.4522011E+02  0.7546771E-02  0.1320342E+00
         21   -1    0    0  504  501  0.00000000000E+00  0.00000000000E+00  0.70588523920E+02  0.70588523920E+02  0.00000000000E+00 0. -1.
         21   -1    0    0  503  502 -0.00000000000E+00 -0.00000000000E+00 -0.90194716248E+02  0.90194716248E+02  0.00000000000E+00 0. -1.
         21    1    1    2  503  501  0.26832245164E-01 -0.45220105991E+02  0.56432002389E+02  0.72314795163E+02  0.00000000000E+00 0. -1.
         21    1    1    2  504  502 -0.26832245164E-01  0.45220105991E+02 -0.76038194717E+02  0.88468445005E+02  0.00000000000E+00 0. -1.
</event>
<event>
 4    1  0.3048956E+006  0.2324518E+02  0.7546771E-02  0.1489442E+00
         21   -1    0    0  502  501  0.00000000000E+00  0.00000000000E+00  0.17493441597E+03  0.17493441597E+03  0.00000000000E+00 0. -1.
         21   -1    0    0  504  502 -0.00000000000E+00 -0.00000000000E+00 -0.19027929069E+02  0.19027929069E+02  0.00000000000E+00 0.  1.
         21    1    1    2  503  501 -0.15726267571E+02  0.17117918430E+02  0.16671458732E+03  0.16832733660E+03  0.00000000000E+00 0. -1.
         21    1    1    2  504  503  0.15726267571E+02 -0.17117918430E+02 -0.10808100414E+02  0.25635008439E+02  0.00000000000E+00 0.  1.
</event>
<event>
 4    1  0.3048956E+006  0.2277492E+02  0.7546771E-02  0.1495344E+00
         21   -1    0    0  503  501  0.00000000000E+00  0.00000000000E+00  0.10800708154E+04  0.10800708154E+04  0.00000000000E+00 0.  1.
         21   -1    0    0  501  502 -0.00000000000E+00 -0.00000000000E+00 -0.21203074428E+01  0.21203074428E+01  0.00000000000E+00 0. -1.
         21    1    1    2  503  504 -0.81968362740E+01 -0.21248737286E+02  0.10148634649E+04  0.10151189829E+04  0.00000000000E+00 0.  1.
         21    1    1    2  504  502  0.81968362740E+01  0.21248737286E+02  0.63087043076E+02  0.67072140008E+02  0.00000000000E+00 0. -1.
</event>
<event>
 4    1  0.3048956E+006  0.2219849E+02  0.7546771E-02  0.1502816E+00
         21   -1    0    0  502  501  0.00000000000E+00  0.00000000000E+00  0.14640390986E+01  0.14640390986E+01  0.00000000000E+00 0. -1.
         21   -1    0    0  504  502 -0.00000000000E+00 -0.00000000000E+00 -0.33980948982E+03  0.33980948982E+03  0.00000000000E+00 0.  1.
         21    1    1    2  503  501  0.20228198298E+02 -0.91429079242E+01 -0.15254918749E+03  0.15415585418E+03  0.00000000000E+00 0.  1.
         21    1    1    2  504  503 -0.20228198298E+02  0.91429079242E+01 -0.18579626322E+03  0.18711767474E+03  0.00000000000E+00 0. -1.
</event>
<event>
 4    1  0.3048956E+006  0.3298345E+02  0.7546771E-02  0.1395323E+00
         21   -1    0    0  504  501  0.00000000000E+00  0.00000000000E+00  0.40871890015E+03  0.40871890015E+03  0.00000000000E+00 0. -1.
         21   -1    0    0  503  502 -0.00000000000E+00 -0.00000000000E+00 -0.12502542095E+02  0.12502542095E+02  0.00000000000E+00 0. -1.
         21    1    1    2  503  501 -0.20392837276E+02 -0.25923738623E+02  0.38495956067E+03  0.38636999287E+03  0.00000000000E+00 0. -1.
         21    1    1    2  504  502  0.20392837276E+02  0.25923738623E+02  0.11256797385E+02  0.34851449378E+02  0.00000000000E+00 0. -1.
</event>
<event>
 4    1  0.3048956E+006  0.2423880E+02  0.7546771E-02  0.1477502E+00
         21   -1    0    0  503  501  0.00000000000E+00  0.00000000000E+00  0.42570779940E+02  0.42570779940E+02  0.00000000000E+00 0.  1.
         21   -1    0    0  504  502 -0.00000000000E+00 -0.00000000000E+00 -0.14220275279E+02  0.14220275279E+02  0.00000000000E+00 0. -1.
         21    1    1    2  503  502 -0.24156932260E+02 -0.19904338001E+01  0.92994379558E+01  0.25961485882E+02  0.00000000000E+00 0.  1.
         21    1    1    2  504  501  0.24156932260E+02  0.19904338001E+01  0.19051066705E+02  0.30829569337E+02  0.00000000000E+00 0. -1.
</event>
<event>
 4    1  0.3048956E+006  0.2372261E+02  0.7546771E-02  0.1483618E+00
         21   -1    0    0  503  501  0.00000000000E+00  0.00000000000E+00  0.21021058775E+02  0.21021058775E+02  0.00000000000E+00 0.  1.
         21   -1    0    0  501  502 -0.00000000000E+00 -0.00000000000E+00 -0.39110060876E+02  0.39110060876E+02  0.00000000000E+00 0.  1.
         21    1    1    2  503  504  0.21993686094E+02 -0.88904495215E+01  0.78427817523E+01  0.24985426678E+02  0.00000000000E+00 0.  1.
         21    1    1    2  504  502 -0.21993686094E+02  0.88904495215E+01 -0.25931783854E+02  0.35145692972E+02  0.00000000000E+00 0.  1.
</event>
<event>
 4    1  0.3048956E+006  0.2467648E+02  0.7546771E-02  0.1472455E+00
         21   -1    0    0  503  501  0.00000000000E+00  0.00000000000E+00  0.14489973670E+01  0.14489973670E+01  0.00000000000E+00 0.  1.
         21   -1    0    0  504  502 -0.00000000000E+00 -0.00000000000E+00 -0.76261719857E+03  0.76261719857E+03  0.00000000000E+00 0.  1.
         21    1    1    2  503  502  0.17274648529E+02  0.17621442109E+02 -0.12460812187E+03  0.12702799982E+03  0.00000000000E+00 0.  1.
         21    1    1    2  504  501 -0.17274648529E+02 -0.17621442109E+02 -0.63656007933E+03  0.63703819611E+03  0.00000000000E+00 0.  1.
</event>
<event>
 4    1  0.3048956E+006  0.2245037E+02  0.7546771E-02  0.1499518E+00
         21   -1    0    0  504  501  0.00000000000E+00  0.00000000000E+00  0.86209062708E+01  0.86209062708E+01  0.00000000000E+00 0. -1.
         21   -1    0    0  503  502 -0.00000000000E+00 -0.00000000000E+00 -0.61006125088E+02  0.61006125088E+02  0.00000000000E+00 0. -1.
         21    1    1    2  503  501 -0.31860848804E+01  0.22223137350E+02 -0.33298150025E+02  0.40159504051E+02  0.00000000000E+00 0. -1.
         21    1    1    2  504  502  0.31860848804E+01 -0.22223137350E+02 -0.19087068792E+02  0.29467527308E+02  0.00000000000E+00 0. -1.
</event>
<event>
 4    1  0.3048956E+006  0.2872679E+02  0.7546771E-02  0.1430993E+00
         21   -1    0    0  503  501  0.00000000000E+00  0.00000000000E+00  0.12492194030E+02  0.12492194030E+02  0.00000000000E+00 0.  1.
         21   -1    0    0  501  502 -0.00000000000E+00 -0.00000000000E+00 -0.33578790081E+03  0.33578790081E+03  0.00000000000E+00 0. -1.
         21    1    1    2  503  504 -0.71424401703E+00 -0.28717906831E+02 -0.55742487532E+01  0.29262613801E+02  0.00000000000E+00 0.  1.
         21    1    1    2  504  502  0.71424401703E+00  0.28717906831E+02 -0.31772145803E+03  0.31901748104E+03  0.00000000000E+00 0. -1.
</event>
<event>
 4    1  0.3048956E+006  0.3521914E+02  0.7546771E-02  0.1379029E+00
         21   -1    0    0  503  501  0.00000000000E+00  0.00000000000E+00  0.21607135697E+03  0.21607135697E+03  0.00000000000E+00 0. -1.
         21   -1    0    0  501  502 -0.00000000000E+00 -0.00000000000E+00 -0.19490181408E+02  0.19490181408E+02  0.00000000000E+00 0.  1.
         21    1    1    2  503  504  0.16844129511E+02 -0.30929976241E+02  0.19721660703E+03  0.20033666219E+03  0.00000000000E+00 0. -1.
         21    1    1    2  504  502 -0.16844129511E+02  0.30929976241E+02 -0.63543146854E+00  0.35224876187E+02  0.00000000000E+00 0.  1.
</event>
<event>
 4    1  0.3048956E+006  0.2115316E+02  0.7546771E-02  0.1517089E+00
         21   -1    0    0  503  501  0.00000000000E+00  0.00000000000E+00  0.35952161297E+03  0.35952161297E+03  0.00000000000E+00 0. -1.
         21   -1    0    0  501  502 -0.00000000000E+00 -0.00000000000E+00 -0.18306835442E+02  0.18306835442E+02  0.00000000000E+00 0.  1.
         21    1    1    2  503  504  0.19292457039E+02 -0.86750847273E+01  0.35298694245E+03  0.35362018824E+03  0.00000000000E+00 0. -1.
         21    1    1    2  504  502 -0.19292457039E+02  0.86750847273E+01 -0.11772164919E+02  0.24208260171E+02  0.00000000000E+00 0.  1.
</event>
<event>
 4    1  0.3048956E+006  0.2067921E+02  0.7546771E-02  0.1523895E+00
         21   -1    0    0  504  501  0.00000000000E+00  0.00000000000E+00  0.24596960622E+03  0.24596960622E+03  0.00000000000E+00 0. -1.
         21   -1    0    0  503  502 -0.00000000000E+00 -0.00000000000E+00 -0.30602921657E+02  0.30602921657E+02  0.00000000000E+00 0. -1.
         21    1    1    2  503  501 -0.20460211560E+02 -0.30015505633E+01 -0.26617482434E+02  0.33706378238E+02  0.00000000000E+00 0. -1.
         21    1    1    2  504  502  0.20460211560E+02  0.30015505633E+01  0.24198416699E+03  0.24286614963E+03  0.00000000000E+00 0. -1.
</event>
<event>
 4    1  0.3048956E+006  0.2436760E+02  0.7546771E-02  0.1476004E+00
         21   -1    0    0  503  501  0.00000000000E+00  0.00000000000E+00  0.71838646610E+01  0.71838646610E+01  0.00000000000E+00 0. -1.
         21   -1    0    0  504  502 -0.00000000000E+00 -0.00000000000E+00 -0.11102916611E+04  0.11102916611E+04  0.00000000000E+00 0.  1.
         21    1    1    2  503  502 -0.18425129490E+02  0.15946613188E+02 -0.10890921230E+04  0.10893646921E+04  0.00000000000E+00 0.  1.
         21    1    1    2  504  501  0.18425129490E+02 -0.15946613188E+02 -0.14015673368E+02  0.28110833656E+02  0.00000000000E+00 0. -1.
</event>
<event>
 4    1  0.3048956E+006  0.2848818E+02  0.7546771E-02  0.1433206E+00
         21   -1    0    0  504  501  0.00000000000E+00  0.00000000000E+00  0.37238698197E+02  0.37238698197E+02  0.00000000000E+00 0.  1.
         21   -1    0    0  503  502 -0.00000000000E+00 -0.00000000000E+00 -0.21893875563E+02  0.21893875563E+02  0.00000000000E+00 0. -1.
         21    1    1    2  503  501  0.20180273697E+02  0.20108033264E+02  0.96703554982E+01  0.30084750684E+02  0.00000000000E+00 0. -1.
         21    1    1    2  504  502 -0.20180273697E+02 -0.20108033264E+02  0.56744671357E+01  0.29047823077E+02  0.00000000000E+00 0.  1.
</event>
<event>
 4    1  0.3048956E+006  0.2308515E+02  0.7546771E-02  0.1491432E+00
         21   -1    0    0  503  501  0.00000000000E+00  0.00000000000E+00  0.23886797170E+02  0.23886797170E+02  0.00000000000E+00 0.  1.
         21   -1    0    0  504  502 -0.00000000000E+00 -0.00000000000E+00 -0.40237069802E+02  0.40237069802E+02  0.00000000000E+00 0. -1.
         21    1    1    2  503  502  0.23058419760E+02  0.11106396584E+01  0.13225477110E+02  0.26605215411E+02  0.00000000000E+00 0.  1.
         21    1    1    2  504  501 -0.23058419760E+02 -0.11106396584E+01 -0.29575749741E+02  0.37518651562E+02  0.00000000000E+00 0. -1.
</event>
<event>
 4    1  0.3048956E+006  0.3875402E+02  0.7546771E-02  0.1355946E+00
         21   -1    0    0  503  501  0.00000000000E+00  0.00000000000E+00  0.48047264187E+02  0.48047264187E+02  0.00000000000E+00 0.  1.
         21   -1    0    0  504  502 -0.00000000000E+00 -0.00000000000E+00 -0.51888803598E+02  0.51888803598E+02  0.00000000000E+00 0.  1.
         21    1    1    2  503  502 -0.26572632135E+02 -0.28209389325E+02  0.29586491136E+02  0.48756895742E+02  0.00000000000E+00 0.  1.
         21    1    1    2  504  501  0.26572632135E+02  0.28209389325E+02 -0.33428030547E+02  0.51179172042E+02  0.00000000000E+00 0.  1.
</event>
<event>
 4    1  0.3048956E+006  0.2200709E+02  0.7546771E-02  0.1505357E+00
         21   -1    0    0  504  501  0.00000000000E+00  0.00000000000E+00  0.16922108312E+02  0.16922108312E+02  0.00000000000E+00 0.  1.
         21   -1    0    0  503  502 -0.00000000000E+00 -0.00000000000E+00 -0.29210391720E+02  0.29210391720E+02  0.00000000000E+00 0.  1.
         21    1    1    2  503  501 -0.30054341745E+01 -0.21800900732E+02 -0.94232295985E+01  0.23939698481E+02  0.00000000000E+00 0.  1.
         21    1    1    2  504  502  0.30054341745E+01  0.21800900732E+02 -0.28650538098E+01  0.22192801550E+02  0.00000000000E+00 0.  1.
</event>
<event>
 4    1  0.3048956E+006  0.2761198E+02  0.7546771E-02  0.1441556E+00
         21   -1    0    0  504  501  0.00000000000E+00  0.00000000000E+00  0.66987299084E+02  0.66987299084E+02  0.00000000000E+00 0. -1.
         21   -1    0    0  501  502 -0.00000000000E+00 -0.00000000000E+00 -0.71731612879E+02  0.71731612879E+02  0.00000000000E+00 0.  1.
         21    1    1    2  503  502  0.11567820971E+02  0.25072034914E+02 -0.65991492532E+02  0.71535295507E+02  0.00000000000E+00 0.  1.
         21    1    1    2  504  503 -0.11567820971E+02 -0.25072034914E+02  0.61247178738E+02  0.67183616456E+02  0.00000000000E+00 0. -1.
</event>
<event>
 4    1  0.3048956E+006  0.8548455E+02  0.7546771E-02  0.1191657E+00
         21   -1    0    0  502  501  0.00000000000E+00  0.00000000000E+00  0.22579072077E+03  0.22579072077E+03  0.00000000000E+00 0.  1.
         21   -1    0    0  503  502 -0.00000000000E+00 -0.00000000000E+00 -0.56054426042E+02  0.56054426042E+02  0.00000000000E+00 0.  1.
         21    1    1    2  503  504  0.64622651287E+02 -0.55959992514E+02 -0.67448935099E+01  0.85750226880E+02  0.00000000000E+00 0.  1.
         21    1    1    2  504  501 -0.64622651287E+02  0.55959992514E+02  0.17648118824E+03  0.19609491994E+03  0.00000000000E+00 0.  1.
</event>
<event>
 4    1  0.3048956E+006  0.3026872E+02  0.7546771E-02  0.1417275E+00
         21   -1    0    0  503  501  0.00000000000E+00  0.00000000000E+00  0.87876685373E+01  0.87876685373E+01  0.00000000000E+00 0. -1.
         21   -1    0    0  504  502 -0.00000000000E+00 -0.00000000000E+00 -0.10491714158E+03  0.10491714158E+03  0.00000000000E+00 0. -1.
         21    1    1    2  503  502 -0.28255469135E+02  0.10854662683E+02 -0.52566900360E+02  0.60658670043E+02  0.00000000000E+00 0. -1.
         21    1    1    2  504  501  0.28255469135E+02 -0.10854662683E+02 -0.43562572682E+02  0.53046140074E+02  0.00000000000E+00 0. -1.
</event>
<event>
 4    1  0.3048956E+006  0.2017334E+02  0.7546771E-02  0.1531402E+00
         21   -1    0    0  503  501  0.00000000000E+00  0.00000000000E+00  0.43576275076E+01  0.43576275076E+01  0.00000000000E+00 0. -1.
         21   -1    0    0  504  502 -0.00000000000E+00 -0.00000000000E+00 -0.25991621760E+03  0.25991621760E+03  0.00000000000E+00 0.  1.
         21    1    1    2  503  502 -0.20166700827E+02  0.51755376396E+00 -0.23354560581E+03  0.23441525906E+03  0.00000000000E+00 0.  1.
         21    1    1    2  504  501  0.20166700827E+02 -0.51755376396E+00 -0.22012984283E+02  0.29858586055E+02  0.00000000000E+00 0. -1.
</event>
<event>
 4    1  0.3048956E+006  0.3934232E+02  0.7546771E-02  0.1352383E+00
         21   -1    0    0  502  501  0.00000000000E+00  0.00000000000E+00  0.12407917671E+03  0.12407917671E+03  0.00000000000E+00 0.  1.
         21   -1    0    0  503  502 -0.00000000000E+00 -0.00000000000E+00 -0.56384826377E+02  0.56384826377E+02  0.00000000000E+00 0.  1.
         21    1    1    2  503  504 -0.25986860438E+02  0.29538132776E+02 -0.45780328051E+02  0.60362709016E+02  0.00000000000E+00 0.  1.
         21    1    1    2  504  501  0.25986860438E+02 -0.29538132776E+02  0.11347467839E+03  0.12010129408E+03  0.00000000000E+00 0.  1.
</event>
<event>
 4    1  0.3048956E+006  0.2286097E+02  0.7546771E-02  0.1494251E+00
         21   -1    0    0  503  501  0.00000000000E+00  0.00000000000E+00  0.17944595759E+03  0.17944595759E+03  0.00000000000E+00 0.  1.
         21   -1    0    0  504  502 -0.00000000000E+00 -0.00000000000E+00 -0.12805832165E+02  0.12805832165E+02  0.00000000000E+00 0. -1.
         21    1    1    2  503  502 -0.21005136318E+02 -0.90226498449E+01 -0.11707142398E+01  0.22890926888E+02  0.00000000000E+00 0. -1.
         21    1    1    2  504  501  0.21005136318E+02  0.90226498449E+01  0.16781083966E+03  0.16936086286E+03  0.00000000000E+00 0.  1.
</event>
<event>
 4    1  0.3048956E+006  0.2198747E+02  0.7546771E-02  0.1505619E+00
         21   -1    0    0  502  501  0.00000000000E+00  0.00000000000E+00  0.47962657614E+03  0.47962657614E+03  0.00000000000E+00 0. -1.
         21   -1    0    0  504  502 -0.00000000000E+00 -0.00000000000E+00 -0.31802634052E+01  0.31802634052E+01  0.00000000000E+00 0. -1.
         21    1    1    2  503  501 -0.18799329918E+02  0.11403251048E+02  0.43773614224E+03  0.43828800938E+03  0.00000000000E+00 0. -1.
         21    1    1    2  504  503  0.18799329918E+02 -0.11403251048E+02  0.38710170491E+02  0.44518830165E+02  0.00000000000E+00 0. -1.
</event>
<event>
 4    1  0.3048956E+006  0.3084186E+02  0.7546771E-02  0.1412419E+00
         21   -1    0    0  503  501  0.00000000000E+00  0.00000000000E+00  0.17392722315E+03  0.17392722315E+03  0.00000000000E+00 0.  1.
         21   -1    0    0  504  502 -0.00000000000E+00 -0.00000000000E+00 -0.80927634468E+01  0.80927634468E+01  0.00000000000E+00 0.  1.
         21    1    1    2  503  502 -0.30631110264E+02 -0.35993579067E+01  0.13473719784E+03  0.13822204156E+03  0.00000000000E+00 0.  1.
         21    1    1    2  504  501  0.30631110264E+02  0.35993579067E+01  0.31097261864E+02  0.43797945029E+02  0.00000000000E+00 0.  1.
</event>
<event>
 4    1  0.3048956E+006  0.2158963E+02  0.7546771E-02  0.1511010E+00
         21   -1    0    0  502  501  0.00000000000E+00  0.00000000000E+00  0.14720777183E+02  0.14720777183E+02  0.00000000000E+00 0.  1.
         21   -1    0    0  504  502 -0.00000000000E+00 -0.00000000000E+00 -0.71389919010E+02  0.71389919010E+02  0.00000000000E+00 0. -1.
         21    1    1    2  503  501  0.21042796005E+02  0.48283605774E+01  0.37833924131E+01  0.21918631064E+02  0.00000000000E+00 0.  1.
         21    1    1    2  504  503 -0.21042796005E+02 -0.48283605774E+01 -0.60452534240E+02  0.64192065129E+02  0.00000000000E+00 0. -1.
</event>
<event>
 4    1  0.3048956E+006  0.2046719E+02  0.7546771E-02  0.1527010E+00
         21   -1    0    0  503  501  0.00000000000E+00  0.00000000000E+00  0.40901826571E+03  0.40901826571E+03  0.00000000000E+00 0.  1.
         21   -1    0    0  501  502 -0.00000000000E+00 -0.00000000000E+00 -0.13906065969E+01  0.13906065969E+01  0.00000000000E+00 0. -1.
         21    1    1    2  503  504 -0.19083870774E+02  0.73967303977E+01  0.30915104643E+03  0.30982781549E+03  0.00000000000E+00 0.  1.
         21    1    1    2  504  502  0.19083870774E+02 -0.73967303977E+01  0.98476612686E+02  0.10058105682E+03  0.00000000000E+00 0. -1.
</event>
<event>
 4    1  0.3048956E+006  0.2742676E+02  0.7546771E-02  0.1443368E+00
         21   -1    0    0  504  501  0.00000000000E+00  0.00000000000E+00  0.23911599872E+02  0.23911599872E+02  0.00000000000E+00 0. -1.
         21   -1    0    0  503  502 -0.00000000000E+00 -0.00000000000E+00 -0.32665767211E+02  0.32665767211E+02  0.00000000000E+00 0. -1.
         21    1    1    2  503  501 -0.22949844135E+02  0.15017718248E+02 -0.98150541434E+01  0.29130096035E+02  0.00000000000E+00 0. -1.
         21    1    1    2  504  502  0.22949844135E+02 -0.15017718248E+02  0.10608868040E+01  0.27447271048E+02  0.00000000000E+00 0. -1.
</event>
<event>
 4    1  0.3048956E+006  0.2507071E+02  0.7546771E-02  0.1468014E+00
         21   -1    0    0  503  501  0.00000000000E+00  0.00000000000E+00  0.46668763860E+02  0.46668763860E+02  0.00000000000E+00 0.  1.
         21   -1    0    0  504  502 -0.00000000000E+00 -0.00000000000E+00 -0.13477943830E+02  0.13477943830E+02  0.00000000000E+00 0.  1.
         21    1    1    2  503  502 -0.20506315568E+02  0.14423299176E+02  0.15783517685E+02  0.29625326459E+02  0.00000000000E+00 0.  1.
         21    1    1    2  504  501  0.20506315568E+02 -0.14423299176E+02  0.17407302346E+02  0.30521381231E+02  0.00000000000E+00 0.  1.
</event>
<event>
 4    1  0.3048956E+006  0.2218898E+02  0.7546771E-02  0.1502941E+00
         21   -1    0    0  503  501  0.00000000000E+00  0.00000000000E+00  0.21683462637E+02  0.21683462637E+02  0.00000000000E+00 0.  1.
         21   -1    0    0  501  502 -0.00000000000E+00 -0.00000000000E+00 -0.73572807944E+02  0.73572807944E+02  0.00000000000E+00 0. -1.
         21    1    1    2  503  504 -0.99347148301E+01  0.19840669849E+02  0.13657678201E+02  0.26055381645E+02  0.00000000000E+00 0.  1.
         21    1    1    2  504  502  0.99347148301E+01 -0.19840669849E+02 -0.65547023508E+02  0.69200888937E+02  0.00000000000E+00 0. -1.
</event>
<event>
 4    1  0.3048956E+006  0.2133569E+02  0.7546771E-02  0.1514526E+00
         21   -1    0    0  503  501  0.00000000000E+00  0.00000000000E+00  0.29911269316E+01  0.29911269316E+01  0.00000000000E+00 0. -1.
         21   -1    0    0  504  502 -0.00000000000E+00 -0.00000000000E+00 -0.99599912210E+03  0.99599912210E+03  0.00000000000E+00 0. -1.
         21    1    1    2  503  502 -0.18285767958E+02 -0.10992840860E+02 -0.36751020334E+02  0.42495286275E+02  0.00000000000E+00 0. -1.
         21    1    1    2  504  501  0.18285767958E+02  0.10992840860E+02 -0.95625697484E+03  0.95649496276E+03  0.00000000000E+00 0. -1.
</event>
<event>
 4    1  0.3048956E+006  0.2624592E+02  0.7546771E-02  0.1455334E+00
         21   -1    0    0  503  501  0.00000000000E+00  0.00000000000E+00  0.30053501399E+03  0.30053501399E+03  0.00000000000E+00 0. -1.
         21   -1    0    0  504  502 -0.00000000000E+00 -0.00000000000E+00 -0.36523829379E+02  0.36523829379E+02  0.00000000000E+00 0.  1.
         21    1    1    2  503  502 -0.59855780445E+00  0.26239092347E+02 -0.31150076625E+02  0.40732978192E+02  0.00000000000E+00 0.  1.
         21    1    1    2  504  501  0.59855780445E+00 -0.26239092347E+02  0.29516126124E+03  0.29632586518E+03  0.00000000000E+00 0. -1.
</event>
<event>
 4    1  0.3048956E+006  0.2308567E+02  0.7546771E-02  0.1491425E+00
         21   -1    0    0  503  501  0.00000000000E+00  0.00000000000E+00  0.23323316625E+03  0.23323316625E+03  0.00000000000E+00 0.  1.
         21   -1    0    0  501  502 -0.00000000000E+00 -0.00000000000E+00 -0.22971772085E+01  0.22971772085E+01  0.00000000000E+00 0.  1.
         21    1    1    2  503  504  0.20751541230E+02  0.10115413877E+02  0.10690932288E+03  0.10937344915E+03  0.00000000000E+00 0.  1.
         21    1    1    2  504  502 -0.20751541230E+02 -0.10115413877E+02  0.12402666617E+03  0.12615689431E+03  0.00000000000E+00 0.  1.
</event>
<event>
 4    1  0.3048956E+006  0.2026552E+02  0.7546771E-02  0.1530015E+00
         21   -1    0    0  503  501  0.00000000000E+00  0.00000000000E+00  0.80134789544E+01  0.80134789544E+01  0.00000000000E+00 0.  1.
         21   -1    0    0  501  502 -0.00000000000E+00 -0.00000000000E+00 -0.14248865942E+03  0.14248865942E+03  0.00000000000E+00 0.  1.
         21    1    1    2  503  504 -0.10013000805E+02 -0.17619051647E+02 -0.70215958385E+01  0.21447470112E+02  0.00000000000E+00 0.  1.
         21    1    1    2  504  502  0.10013000805E+02  0.17619051647E+02 -0.12745358463E+03  0.12905466826E+03  0.00000000000E+00 0.  1.
</event>
<event>
 4    1  0.3048956E+006  0.2331956E+02  0.7546771E-02  0.1488524E+00
         21   -1    0    0  503  501  0.00000000000E+00  0.00000000000E+00  0.34711162715E+03  0.34711162715E+03  0.00000000000E+00 0. -1.
         21   -1    0    0  504  502 -0.00000000000E+00 -0.00000000000E+00 -0.64706873503E+01  0.64706873503E+01  0.00000000000E+00 0. -1.
         21    1    1    2  503  502  0.13263756092E+02  0.19180055604E+02  0.16412077859E+02  0.28515926397E+02  0.00000000000E+00 0. -1.
         21    1    1    2  504  501 -0.13263756092E+02 -0.19180055604E+02  0.32422886194E+03  0.32506638810E+03  0.00000000000E+00 0. -1.
</event>
<event>
 4    1  0.3048956E+006  0.4778923E+02  0.7546771E-02  0.1308053E+00
         21   -1    0    0  504  501  0.00000000000E+00  0.00000000000E+00  0.21015511527E+03  0.21015511527E+03  0.00000000000E+00 0.  1.
         21   -1    0    0  503  502 -0.00000000000E+00 -0.00000000000E+00 -0.38799880572E+02  0.38799880572E+02  0.00000000000E+00 0.  1.
         21    1    1    2  503  501  0.10780904175E+01 -0.47777072221E+02 -0.19938810184E+02  0.51781918277E+02  0.00000000000E+00 0.  1.
         21    1    1    2  504  502 -0.10780904175E+01  0.47777072221E+02  0.19129404488E+03  0.19717307756E+03  0.00000000000E+00 0.  1.
</event>
<event>
 4    1  0.3048956E+006  0.2171859E+02  0.7546771E-02  0.1509248E+00
         21   -1    0    0  504  501  0.00000000000E+00  0.00000000000E+00  0.12618950187E+02  0.12618950187E+02  0.00000000000E+00 0. -1.
         21   -1    0    0  503  502 -0.00000000000E+00 -0.00000000000E+00 -0.97519308029E+02  0.97519308029E+02  0.00000000000E+00 0.  1.
         21    1    1    2  503  501 -0.19805947506E+02 -0.89118766769E+01 -0.85695776554E+02  0.88405108572E+02  0.00000000000E+00 0.  1.
         21    1    1    2  504  502  0.19805947506E+02  0.89118766769E+01  0.79541871256E+00  0.21733149644E+02  0.00000000000E+00 0. -1.
</event>
<event>
 4    1  0.3048956E+006  0.3494309E+02  0.7546771E-02  0.1380964E+00
         21   -1    0    0  502  501  0.00000000000E+00  0.00000000000E+00  0.94684557447E+01  0.94684557447E+01  0.00000000000E+00 0.  1.
         21   -1    0    0  503  502 -0.00000000000E+00 -0.00000000000E+00 -0.12982812782E+03  0.12982812782E+03  0.00000000000E+00 0.  1.
         21    1    1    2  503  504 -0.91341966452E+01  0.33728121098E+02 -0.54473322102E+02  0.64717559611E+02  0.00000000000E+00 0.  1.
         21    1    1    2  504  501  0.91341966452E+01 -0.33728121098E+02 -0.65886349973E+02  0.74579023954E+02  0.00000000000E+00 0.  1.
</event>
<event>
 4    1  0.3048956E+006  0.2063963E+02  0.7546771E-02  0.1524473E+00
         21   -1    0    0  503  501  0.00000000000E+00  0.00000000000E+00  0.26296859281E+02  0.26296859281E+02  0.00000000000E+00 0.  1.
         21   -1    0    0  504  502 -0.00000000000E+00 -0.00000000000E+00 -0.30749871602E+02  0.30749871602E+02  0.00000000000E+00 0.  1.
         21    1    1    2  503  502 -0.19410585623E+02  0.70159345996E+01 -0.21847327192E+02  0.30054947645E+02  0.00000000000E+00 0.  1.
         21    1    1    2  504  501  0.19410585623E+02 -0.70159345996E+01  0.17394314871E+02  0.26991783238E+02  0.00000000000E+00 0.  1.
</event>
<event>
 4    1  0.3048956E+006  0.2211577E+02  0.7546771E-02  0.1503910E+00
         21   -1    0    0  504  501  0.00000000000E+00  0.00000000000E+00  0.28506977706E+02  0.28506977706E+02  0.00000000000E+00 0.  1.
         21   -1    0    0  503  502 -0.00000000000E+00 -0.00000000000E+00 -0.12716802241E+03  0.12716802241E+03  0.00000000000E+00 0.  1.
         21    1    1    2  503  501 -0.14441693535E+02  0.16749474270E+02 -0.12172694518E+03  0.12371966934E+03  0.00000000000E+00 0.  1.
         21    1    1    2  504  502  0.14441693535E+02 -0.16749474270E+02  0.23065900469E+02  0.31955330775E+02  0.00000000000E+00 0.  1.
</event>
<event>
 4    1  0.3048956E+006  0.2045348E+02  0.7546771E-02  0.1527213E+00
         21   -1    0    0  502  501  0.00000000000E+00  0.00000000000E+00  0.52726003185E+02  0.52726003185E+02  0.00000000000E+00 0. -1.
         21   -1    0    0  503  502 -0.00000000000E+00 -0.00000000000E+00 -0.23601482616E+02  0.23601482616E+02  0.00000000000E+00 0. -1.
         21    1    1    2  503  504 -0.12667363398E+02 -0.16058734122E+02 -0.16531731510E+02  0.26299109943E+02  0.00000000000E+00 0. -1.
         21    1    1    2  504  501  0.12667363398E+02  0.16058734122E+02  0.45656252080E+02  0.50028375858E+02  0.00000000000E+00 0. -1.
</event>
<event>
 4    1  0.3048956E+006  0.2209358E+02  0.7546771E-02  0.1504205E+00
         21   -1    0    0  502  501  0.00000000000E+00  0.00000000000E+00  0.39284071372E+01  0.39284071372E+01  0.00000000000E+00 0. -1.
         21   -1    0    0  504  502 -0.00000000000E+00 -0.00000000000E+00 -0.23951810319E+03  0.23951810319E+03  0.00000000000E+00 0. -1.
         21    1    1    2  503  501  0.11431579581E+02 -0.18906225305E+02 -0.33354791665E+02  0.40008355303E+02  0.00000000000E+00 0. -1.
         21    1    1    2  504  503 -0.11431579581E+02  0.18906225305E+02 -0.20223490439E+03  0.20343815502E+03  0.00000000000E+00 0. -1.
</event>
<event>
 4    1  0.3048956E+006  0.2219102E+02  0.7546771E-02  0.1502914E+00
         21   -1    0    0  504  501  0.00000000000E+00  0.00000000000E+00  0.27966071135E+02  0.27966071135E+02  0.00000000000E+00 0. -1.
         21   -1    0    0  503  502 -0.00000000000E+00 -0.00000000000E+00 -0.20118364818E+02  0.20118364818E+02  0.00000000000E+00 0.  1.
         21    1    1    2  503  501  0.19071304520E+02  0.11345780047E+02 -0.45679677709E+01  0.22656295163E+02  0.00000000000E+00 0.  1.
         21    1    1    2  504  502 -0.19071304520E+02 -0.11345780047E+02  0.12415674088E+02  0.25428140790E+02  0.00000000000E+00 0. -1.
</event>
<event>
 4    1  0.3048956E+006  0.2153532E+02  0.7546771E-02  0.1511757E+00
         21   -1    0    0  502  501  0.00000000000E+00  0.00000000000E+00  0.26832477043E+03  0.26832477043E+03  0.00000000000E+00 0.  1.
         21   -1    0    0  504  502 -0.00000000000E+00 -0.00000000000E+00 -0.30073887808E+01  0.30073887808E+01  0.00000000000E+00 0.  1.
         21    1    1    2  503  501  0.20370676431E+02 -0.69860837883E+01  0.22113185681E+03  0.22217800954E+03  0.00000000000E+00 0.  1.
         21    1    1    2  504  503 -0.20370676431E+02  0.69860837883E+01  0.44185524837E+02  0.49154149673E+02  0.00000000000E+00 0.  1.
</event>
<event>
 4    1  0.3048956E+006  0.2152755E+02  0.7546771E-02  0.1511864E+00
         21   -1    0    0  504  501  0.00000000000E+00  0.00000000000E+00  0.15265081188E+02  0.15265081188E+02  0.00000000000E+00 0.  1.
         21   -1    0    0  501  502 -0.00000000000E+00 -0.00000000000E+00 -0.14399936659E+03  0.14399936659E+03  0.00000000000E+00 0.  1.
         21    1    1    2  503  502 -0.16229327843E+02  0.14143710116E+02 -0.13510867925E+03  0.13681297756E+03  0.00000000000E+00 0.  1.
         21    1    1    2  504  503  0.16229327843E+02 -0.14143710116E+02  0.63743938535E+01  0.22451470221E+02  0.00000000000E+00 0.  1.
</event>
<event>
 4    1  0.3048956E+006  0.3311372E+02  0.7546771E-02  0.1394332E+00
         21   -1    0    0  503  501  0.00000000000E+00  0.00000000000E+00  0.13846534957E+03  0.13846534957E+03  0.00000000000E+00 0. -1.
         21   -1    0    0  504  502 -0.00000000000E+00 -0.00000000000E+00 -0.29628252734E+02  0.29628252734E+02  0.00000000000E+00 0.  1.
         21    1    1    2  503  502  0.26187983137E+02  0.20265924238E+02 -0.17524661004E+02  0.37465075595E+02  0.00000000000E+00 0.  1.
         21    1    1    2  504  501 -0.26187983137E+02 -0.20265924238E+02  0.12636175784E+03  0.13062852671E+03  0.00000000000E+00 0. -1.
</event>
<event>
 4    1  0.3048956E+006  0.2257150E+02  0.7546771E-02  0.1497950E+00
         21   -1    0    0  504  501  0.00000000000E+00  0.00000000000E+00  0.11220909077E+02  0.11220909077E+02  0.00000000000E+00 0. -1.
         21   -1    0    0  501  502 -0.00000000000E+00 -0.00000000000E+00 -0.45551391911E+02  0.45551391911E+02  0.00000000000E+00 0. -1.
         21    1    1    2  503  502 -0.12186024149E+02  0.18999304675E+02 -0.15549859112E+02  0.27409321063E+02  0.00000000000E+00 0. -1.
         21    1    1    2  504  503  0.12186024149E+02 -0.18999304675E+02 -0.18780623722E+02  0.29362979925E+02  0.00000000000E+00 0. -1.
</event>
<event>
 4    1  0.3048956E+006  0.2918299E+02  0.7546771E-02  0.1426832E+00
         21   -1    0    0  504  501  0.00000000000E+00  0.00000000000E+00  0.21617540315E+03  0.21617540315E+03  0.00000000000E+00 0. -1.
         21   -1    0    0  503  502 -0.00000000000E+00 -0.00000000000E+00 -0.28597409125E+02  0.28597409125E+02  0.00000000000E+00 0.  1.
         21    1    1    2  503  501  0.26661173325E+02 -0.11867126774E+02  0.20743312211E+03  0.20947588646E+03  0.00000000000E+00 0. -1.
         21    1    1    2  504  502 -0.26661173325E+02  0.11867126774E+02 -0.19855128082E+02  0.35296925816E+02  0.00000000000E+00 0.  1.
</event>
<event>
 4    1  0.3048956E+006  0.2271312E+02  0.7546771E-02  0.1496132E+00
         21   -1    0    0  502  501  0.00000000000E+00  0.00000000000E+00  0.11792442511E+03  0.11792442511E+03  0.00000000000E+00 0. -1.
         21   -1    0    0  503  502 -0.00000000000E+00 -0.00000000000E+00 -0.14144177451E+02  0.14144177451E+02  0.00000000000E+00 0. -1.
         21    1    1    2  503  504 -0.21096651403E+02 -0.84152924154E+01 -0.29901228401E+01  0.22909096042E+02  0.00000000000E+00 0. -1.
         21    1    1    2  504  501  0.21096651403E+02  0.84152924154E+01  0.10677037050E+03  0.10915950652E+03  0.00000000000E+00 0. -1.
</event>
<event>
 4    1  0.3048956E+006  0.2215793E+02  0.7546771E-02  0.1503352E+00
         21   -1    0    0  502  501  0.00000000000E+00  0.00000000000E+00  0.30948420453E+03  0.30948420453E+03  0.00000000000E+00 0.  1.
         21   -1    0    0  504  502 -0.00000000000E+00 -0.00000000000E+00 -0.11612380167E+02  0.11612380167E+02  0.00000000000E+00 0. -1.
         21    1    1    2  503  501 -0.18091092684E+02  0.12793985776E+02  0.29811499446E+03  0.29893732392E+03  0.00000000000E+00 0.  1.
         21    1    1    2  504  503  0.18091092684E+02 -0.12793985776E+02 -0.24317010345E+00  0.22159260778E+02  0.00000000000E+00 0. -1.
</event>
<event>
 4    1  0.3048956E+006  0.2049575E+02  0.7546771E-02  0.1526587E+00
         21   -1    0    0  504  501  0.00000000000E+00  0.00000000000E+00  0.11403005180E+02  0.11403005180E+02  0.00000000000E+00 0.  1.
         21   -1    0    0  503  502 -0.00000000000E+00 -0.00000000000E+00 -0.34814422450E+03  0.34814422450E+03  0.00000000000E+00 0. -1.
         21    1    1    2  503  501  0.16768382140E+02  0.11785465175E+02  0.16257128613E+01  0.20560125761E+02  0.00000000000E+00 0.  1.
         21    1    1    2  504  502 -0.16768382140E+02 -0.11785465175E+02 -0.33836693218E+03  0.33898710392E+03  0.00000000000E+00 0. -1.
</event>
<event>
 4    1  0.3048956E+006  0.2439951E+02  0.7546771E-02  0.1475634E+00
         21   -1    0    0  503  501  0.00000000000E+00  0.00000000000E+00  0.27094309764E+03  0.27094309764E+03  0.00000000000E+00 0.  1.
         21   -1    0    0  504  502 -0.00000000000E+00 -0.00000000000E+00 -0.23437664034E+02  0.23437664034E+02  0.00000000000E+00 0. -1.
         21    1    1    2  503  502  0.35335322519E+01 -0.24142290671E+02  0.26387381001E+03  0.26499947860E+03  0.00000000000E+00 0.  1.
         21    1    1    2  504  501 -0.35335322519E+01  0.24142290671E+02 -0.16368376404E+02  0.29381283074E+02  0.00000000000E+00 0. -1.
</event>
<event>
 4    1  0.3048956E+006  0.2085616E+02  0.7546771E-02  0.1521329E+00
         21   -1    0    0  504  501  0.00000000000E+00  0.00000000000E+00  0.16320281056E+01  0.16320281056E+01  0.00000000000E+00 0.  1.
         21   -1    0    0  503  502 -0.00000000000E+00 -0.00000000000E+00 -0.28775397076E+03  0.28775397076E+03  0.00000000000E+00 0. -1.
         21    1    1    2  503  501 -0.19309143622E+02 -0.78826547578E+01 -0.18236007379E+03  0.18354883760E+03  0.00000000000E+00 0. -1.
         21    1    1    2  504  502  0.19309143622E+02  0.78826547578E+01 -0.10376186886E+03  0.10583716126E+03  0.00000000000E+00 0.  1.
</event>
<event>
 4    1  0.3048956E+006  0.2378602E+02  0.7546771E-02  0.1482857E+00
         21   -1    0    0  504  501  0.00000000000E+00  0.00000000000E+00  0.39645252335E+02  0.39645252335E+02  0.00000000000E+00 0.  1.
         21   -1    0    0  503  502 -0.00000000000E+00 -0.00000000000E+00 -0.14296455012E+03  0.14296455012E+03  0.00000000000E+00 0.  1.
         21    1    1    2  503  501 -0.64740684845E+01  0.22888014313E+02 -0.13828767382E+03  0.14031840754E+03  0.00000000000E+00 0.  1.
         21    1    1    2  504  502  0.64740684845E+01 -0.22888014313E+02  0.34968376035E+02  0.42291394922E+02  0.00000000000E+00 0.  1.
</event>
<event>
 4    1  0.3048956E+006  0.2508206E+02  0.7546771E-02  0.1467887E+00
         21   -1    0    0  503  501  0.00000000000E+00  0.00000000000E+00  0.54755860510E+03  0.54755860510E+03  0.00000000000E+00 0.  1.
         21   -1    0    0  504  502 -0.00000000000E+00 -0.00000000000E+00 -0.76723415391E+02  0.76723415391E+02  0.00000000000E+00 0.  1.
         21    1    1    2  503  502 -0.94591387393E+01  0.23230034772E+02 -0.74377437763E+02  0.78492758069E+02  0.00000000000E+00 0.  1.
         21    1    1    2  504  501  0.94591387393E+01 -0.23230034772E+02  0.54521262747E+03  0.54578926242E+03  0.00000000000E+00 0.  1.
</event>
<event>
 4    1  0.3048956E+006  0.3599630E+02  0.7546771E-02  0.1373691E+00
         21   -1    0    0  504  501  0.00000000000E+00  0.00000000000E+00  0.91930874238E+03  0.91930874238E+03  0.00000000000E+00 0.  1.
         21   -1    0    0  501  502 -0.00000000000E+00 -0.00000000000E+00 -0.19095977684E+01  0.19095977684E+01  0.00000000000E+00 0.  1.
         21    1    1    2  503  502 -0.30480720742E+02 -0.19148341306E+02  0.22297526236E+03  0.22586212816E+03  0.00000000000E+00 0.  1.
         21    1    1    2  504  503  0.30480720742E+02  0.19148341306E+02  0.69442388225E+03  0.69535621199E+03  0.00000000000E+00 0.  1.
</event>
<event>
 4    1  0.3048956E+006  0.2018240E+02  0.7546771E-02  0.1531266E+00
         21   -1    0    0  504  501  0.00000000000E+00  0.00000000000E+00  0.96536270527E+02  0.96536270527E+02  0.00000000000E+00 0.  1.
         21   -1    0    0  503  502 -0.00000000000E+00 -0.00000000000E+00 -0.47984075881E+01  0.47984075881E+01  0.00000000000E+00 0.  1.
         21    1    1    2  503  501 -0.18423460699E+02 -0.82404622323E+01  0.63468668805E+02  0.66600308121E+02  0.00000000000E+00 0.  1.
         21    1    1    2  504  502  0.18423460699E+02  0.82404622323E+01  0.28269194134E+02  0.34734369994E+02  0.00000000000E+00 0.  1.
</event>
<event>
 4    1  0.3048956E+006  0.2045555E+02  0.7546771E-02  0.1527182E+00
         21   -1    0    0  504  501  0.00000000000E+00  0.00000000000E+00  0.16417495532E+03  0.16417495532E+03  0.00000000000E+00 0.  1.
         21   -1    0    0  503  502 -0.00000000000E+00 -0.00000000000E+00 -0.25593112562E+01  0.25593112562E+01  0.00000000000E+00 0.  1.
         21    1    1    2  503  501 -0.20310551681E+02 -0.24312971983E+01  0.75435160816E+02  0.78159408922E+02  0.00000000000E+00 0.  1.
         21    1    1    2  504  502  0.20310551681E+02  0.24312971983E+01  0.86180483242E+02  0.88574857649E+02  0.00000000000E+00 0.  1.
</event>
<event>
 4    1  0.3048956E+006  0.2039232E+02  0.7546771E-02  0.1528120E+00
         21   -1    0    0  504  501  0.00000000000E+00  0.00000000000E+00  0.25779537491E+02  0.25779537491E+02  0.00000000000E+00 0.  1.
         21   -1    0    0  501  502 -0.00000000000E+00 -0.00000000000E+00 -0.71464283163E+02  0.71464283163E+02  0.00000000000E+00 0.  1.
         21    1    1    2  503  502 -0.29445370557E+01  0.20178613948E+02 -0.65626351350E+02  0.68721646887E+02  0.00000000000E+00 0.  1.
         21    1    1    2  504  503  0.29445370557E+01 -0.20178613948E+02  0.19941605678E+02  0.28522173766E+02  0.00000000000E+00 0.  1.
</event>
<event>
 4    1  0.3048956E+006  0.2386863E+02  0.7546771E-02  0.1481870E+00
         21   -1    0    0  503  501  0.00000000000E+00  0.00000000000E+00  0.27842209340E+01  0.27842209340E+01  0.00000000000E+00 0. -1.
         21   -1    0    0  501  502 -0.00000000000E+00 -0.00000000000E+00 -0.15133444608E+04  0.15133444608E+04  0.00000000000E+00 0. -1.
         21    1    1    2  503  504  0.23865842705E+02 -0.36481287199E+00 -0.50325714437E+02  0.55699093979E+02  0.00000000000E+00 0. -1.
         21    1    1    2  504  502 -0.23865842705E+02  0.36481287199E+00 -0.14602345254E+04  0.14604295877E+04  0.00000000000E+00 0. -1.
</event>
<event>
 4    1  0.3048956E+006  0.2075900E+02  0.7546771E-02  0.1522734E+00
         21   -1    0    0  503  501  0.00000000000E+00  0.00000000000E+00  0.16567277358E+03  0.16567277358E+03  0.00000000000E+00 0.  1.
         21   -1    0    0  504  502 -0.00000000000E+00 -0.00000000000E+00 -0.26011283674E+01  0.26011283674E+01  0.00000000000E+00 0. -1.
         21    1    1    2  503  502  0.15757693472E+01 -0.20699102144E+02  0.81468923027E+02  0.84072119622E+02  0.00000000000E+00 0.  1.
         21    1    1    2  504  501 -0.15757693472E+01  0.20699102144E+02  0.81602722184E+02  0.84201782323E+02  0.00000000000E+00 0. -1.
</event>
<event>
 4    1  0.3048956E+006  0.2530159E+02  0.7546771E-02  0.1465458E+00
         21   -1    0    0  502  501  0.00000000000E+00  0.00000000000E+00  0.29191626460E+02  0.29191626460E+02  0.00000000000E+00 0. -1.
         21   -1    0    0  504  502 -0.00000000000E+00 -0.00000000000E+00 -0.28834061597E+02  0.28834061597E+02  0.00000000000E+00 0. -1.
         21    1    1    2  503  501 -0.25074269517E+02 -0.33839685534E+01  0.14375633274E+02  0.29100327610E+02  0.00000000000E+00 0. -1.
         21    1    1    2  504  503  0.25074269517E+02  0.33839685534E+01 -0.14018068411E+02  0.28925360447E+02  0.00000000000E+00 0. -1.
</event>
<event>
 4    1  0.3048956E+006  0.2244903E+02  0.7546771E-02  0.1499535E+00
         21   -1    0    0  502  501  0.00000000000E+00  0.00000000000E+00  0.12236394112E+04  0.12236394112E+04  0.00000000000E+00 0.  1.
         21   -1    0    0  503  502 -0.00000000000E+00 -0.00000000000E+00 -0.62555839819E+01  0.62555839819E+01  0.00000000000E+00 0.  1.
         21    1    1    2  503  504 -0.20502192126E+02 -0.91443427379E+01  0.14332374764E+02  0.26634110694E+02  0.00000000000E+00 0.  1.
         21    1    1    2  504  501  0.20502192126E+02  0.91443427379E+01  0.12030514525E+04  0.12032608845E+04  0.00000000000E+00 0.  1.
</event>
<event>
 4    1  0.3048956E+006  0.2320421E+02  0.7546771E-02  0.1489950E+00
         21   -1    0    0  504  501  0.00000000000E+00  0.00000000000E+00  0.69765944174E+01  0.69765944174E+01  0.00000000000E+00 0. -1.
         21   -1    0    0  501  502 -0.00000000000E+00 -0.00000000000E+00 -0.77352440266E+02  0.77352440266E+02  0.00000000000E+00 0. -1.
         21    1    1    2  503  502 -0.23179468996E+02 -0.10712713754E+01 -0.33182151856E+02  0.40490623694E+02  0.00000000000E+00 0. -1.
         21    1    1    2  504  503  0.23179468996E+02  0.10712713754E+01 -0.37193693992E+02  0.43838410989E+02  0.00000000000E+00 0. -1.
</event>
<event>
 4    1  0.3048956E+006  0.2225017E+02  0.7546771E-02  0.1502135E+00
         21   -1    0    0  503  501  0.00000000000E+00  0.00000000000E+00  0.28996071410E+03  0.28996071410E+03  0.00000000000E+00 0.  1.
         21   -1    0    0  504  502 -0.00000000000E+00 -0.00000000000E+00 -0.48093140792E+01  0.48093140792E+01  0.00000000000E+00 0. -1.
         21    1    1    2  503  502  0.21901706802E+02  0.39224375563E+01  0.24209221686E+02  0.32880947247E+02  0.00000000000E+00 0. -1.
         21    1    1    2  504  501 -0.21901706802E+02 -0.39224375563E+01  0.26094217834E+03  0.26188908093E+03  0.00000000000E+00 0.  1.
</event>
<event>
 4    1  0.3048956E+006  0.3266198E+02  0.7546771E-02  0.1397790E+00
         21   -1    0    0  503  501  0.00000000000E+00  0.00000000000E+00  0.21799629298E+01  0.21799629298E+01  0.00000000000E+00 0.  1.
         21   -1    0    0  504  502 -0.00000000000E+00 -0.00000000000E+00 -0.49150293301E+03  0.49150293301E+03  0.00000000000E+00 0.  1.
         21    1    1    2  503  502  0.27275401546E+02  0.17968239375E+02 -0.26092812476E+03  0.26296443000E+03  0.00000000000E+00 0.  1.
         21    1    1    2  504  501 -0.27275401546E+02 -0.17968239375E+02 -0.22839484533E+03  0.23071846595E+03  0.00000000000E+00 0.  1.
</event>
<event>
 4    1  0.3048956E+006  0.2832486E+02  0.7546771E-02  0.1434735E+00
         21   -1    0    0  504  501  0.00000000000E+00  0.00000000000E+00  0.66768449381E+01  0.66768449381E+01  0.00000000000E+00 0. -1.
         21   -1    0    0  503  502 -0.00000000000E+00 -0.00000000000E+00 -0.27500837321E+03  0.27500837321E+03  0.00000000000E+00 0. -1.
         21    1    1    2  503  501  0.27969748901E+02 -0.44711081224E+01 -0.28480910074E+02  0.40167896386E+02  0.00000000000E+00 0. -1.
         21    1    1    2  504  502 -0.27969748901E+02  0.44711081224E+01 -0.23985061820E+03  0.24151732176E+03  0.00000000000E+00 0. -1.
</event>
<event>
 4    1  0.3048956E+006  0.2131802E+02  0.7546771E-02  0.1514773E+00
         21   -1    0    0  504  501  0.00000000000E+00  0.00000000000E+00  0.34972204698E+02  0.34972204698E+02  0.00000000000E+00 0.  1.
         21   -1    0    0  503  502 -0.00000000000E+00 -0.00000000000E+00 -0.39619966087E+02  0.39619966087E+02  0.00000000000E+00 0.  1.
         21    1    1    2  503  501  0.21195295271E+02  0.22841522540E+01 -0.32897870045E+02  0.39201119201E+02  0.00000000000E+00 0.  1.
         21    1    1    2  504  502 -0.21195295271E+02 -0.22841522540E+01  0.28250108656E+02  0.35391051584E+02  0.00000000000E+00 0.  1.
</event>
<event>
 4    1  0.3048956E+006  0.4614482E+02  0.7546771E-02  0.1315812E+00
         21   -1    0    0  502  501  0.00000000000E+00  0.00000000000E+00  0.88543407485E+03  0.88543407485E+03  0.00000000000E+00 0. -1.
         21   -1    0    0  503  502 -0.00000000000E+00 -0.00000000000E+00 -0.49649949474E+01  0.49649949474E+01  0.00000000000E+00 0.  1.
         21    1    1    2  503  504 -0.32288682437E+01 -0.46031717880E+02  0.12054622767E+03  0.12907647983E+03  0.00000000000E+00 0.  1.
         21    1    1    2  504  501  0.32288682437E+01  0.46031717880E+02  0.75992285224E+03  0.76132258997E+03  0.00000000000E+00 0. -1.
</event>
<event>
 4    1  0.3048956E+006  0.2782370E+02  0.7546771E-02  0.1439505E+00
         21   -1    0    0  502  501  0.00000000000E+00  0.00000000000E+00  0.15018290049E+03  0.15018290049E+03  0.00000000000E+00 0. -1.
         21   -1    0    0  504  502 -0.00000000000E+00 -0.00000000000E+00 -0.60359006527E+01  0.60359006527E+01  0.00000000000E+00 0. -1.
         21    1    1    2  503  501  0.88441653462E+01  0.26380659896E+02  0.10191716406E+03  0.10564689682E+03  0.00000000000E+00 0. -1.
         21    1    1    2  504  503 -0.88441653462E+01 -0.26380659896E+02  0.42229835774E+02  0.50571904322E+02  0.00000000000E+00 0. -1.
</event>
<event>
 4    1  0.3048956E+006  0.2159654E+02  0.7546771E-02  0.1510916E+00
         21   -1    0    0  503  501  0.00000000000E+00  0.00000000000E+00  0.19722880269E+02  0.19722880269E+02  0.00000000000E+00 0.  1.
         21   -1    0    0  504  502 -0.00000000000E+00 -0.00000000000E+00 -0.30422762408E+02  0.30422762408E+02  0.00000000000E+00 0.  1.
         21    1    1    2  503  502  0.10606143078E+02 -0.18812770733E+02 -0.17181569244E+02  0.27597408127E+02  0.00000000000E+00 0.  1.
         21    1    1    2  504  501 -0.10606143078E+02  0.18812770733E+02  0.64816871048E+01  0.22548234551E+02  0.00000000000E+00 0.  1.
</event>
<event>
 4    1  0.3048956E+006  0.2199560E+02  0.7546771E-02  0.1505511E+00
         21   -1    0    0  502  501  0.00000000000E+00  0.00000000000E+00  0.87809205462E+01  0.87809205462E+01  0.00000000000E+00 0.  1.
         21   -1    0    0  504  502 -0.00000000000E+00 -0.00000000000E+00 -0.56762188517E+02  0.56762188517E+02  0.00000000000E+00 0. -1.
         21    1    1    2  503  501  0.20969993245E+02  0.66381957657E+01 -0.18378325346E+02  0.28663026745E+02  0.00000000000E+00 0.  1.
         21    1    1    2  504  503 -0.20969993245E+02 -0.66381957657E+01 -0.29602942626E+02  0.36880082318E+02  0.00000000000E+00 0. -1.
</event>
<event>
 4    1  0.3048956E+006  0.3464685E+02  0.7546771E-02  0.1383063E+00
         21   -1    0    0  502  501  0.00000000000E+00  0.00000000000E+00  0.12327611260E+01  0.12327611260E+01  0.00000000000E+00 0.  1.
         21   -1    0    0  503  502 -0.00000000000E+00 -0.00000000000E+00 -0.98692243650E+03  0.98692243650E+03  0.00000000000E+00 0.  1.
         21    1    1    2  503  504  0.52429119776E+01 -0.34247866434E+02 -0.54991933700E+03  0.55100969291E+03  0.00000000000E+00 0.  1.
         21    1    1    2  504  501 -0.52429119776E+01  0.34247866434E+02 -0.43577033837E+03  0.43714550471E+03  0.00000000000E+00 0.  1.
</event>
<event>
 4    1  0.3048956E+006  0.3962462E+02  0.7546771E-02  0.1350700E+00
         21   -1    0    0  503  501  0.00000000000E+00  0.00000000000E+00  0.29788805804E+04  0.29788805804E+04  0.00000000000E+00 0.  1.
         21   -1    0    0  504  502 -0.00000000000E+00 -0.00000000000E+00 -0.52725375199E+00  0.52725375199E+00  0.00000000000E+00 0.  1.
         21    1    1    2  503  502 -0.15746642911E+02  0.36361435502E+02  0.14621958604E+04  0.14627326636E+04  0.00000000000E+00 0.  1.
         21    1    1    2  504  501  0.15746642911E+02 -0.36361435502E+02  0.15161574662E+04  0.15166751706E+04  0.00000000000E+00 0.  1.
</event>
<event>
 4    1  0.3048956E+006  0.2020884E+02  0.7546771E-02  0.1530867E+00
         21   -1    0    0  504  501  0.00000000000E+00  0.00000000000E+00  0.20791278609E+02  0.20791278609E+02  0.00000000000E+00 0. -1.
         21   -1    0    0  503  502 -0.00000000000E+00 -0.00000000000E+00 -0.25544170500E+02  0.25544170500E+02  0.00000000000E+00 0. -1.
         21    1    1    2  503  501  0.19100330799E+02  0.66011190941E+01 -0.13512122433E+02  0.24309974549E+02  0.00000000000E+00 0. -1.
         21    1    1    2  504  502 -0.19100330799E+02 -0.66011190941E+01  0.87592305413E+01  0.22025474560E+02  0.00000000000E+00 0. -1.
</event>
<event>
 4    1  0.3048956E+006  0.2906687E+02  0.7546771E-02  0.1427882E+00
         21   -1    0    0  504  501  0.00000000000E+00  0.00000000000E+00  0.20857653691E+03  0.20857653691E+03  0.00000000000E+00 0.  1.
         21   -1    0    0  503  502 -0.00000000000E+00 -0.00000000000E+00 -0.71669477569E+01  0.71669477569E+01  0.00000000000E+00 0. -1.
         21    1    1    2  503  501 -0.22324345461E+01 -0.28981012797E+02  0.17183530622E+03  0.17427637628E+03  0.00000000000E+00 0.  1.
         21    1    1    2  504  502  0.22324345461E+01  0.28981012797E+02  0.29574282935E+02  0.41467108385E+02  0.00000000000E+00 0. -1.
</event>
<event>
 4    1  0.3048956E+006  0.2138133E+02  0.7546771E-02  0.1513889E+00
         21   -1    0    0  503  501  0.00000000000E+00  0.00000000000E+00  0.81486905030E+01  0.81486905030E+01  0.00000000000E+00 0.  1.
         21   -1    0    0  501  502 -0.00000000000E+00 -0.00000000000E+00 -0.62824974942E+03  0.62824974942E+03  0.00000000000E+00 0.  1.
         21    1    1    2  503  504  0.18860150141E+02  0.10072543525E+02 -0.63910244626E+01  0.22316061258E+02  0.00000000000E+00 0.  1.
         21    1    1    2  504  502 -0.18860150141E+02 -0.10072543525E+02 -0.61371003445E+03  0.61408237866E+03  0.00000000000E+00 0.  1.
</event>
<event>
 4    1  0.3048956E+006  0.2346676E+02  0.7546771E-02  0.1486719E+00
         21   -1    0    0  504  501  0.00000000000E+00  0.00000000000E+00  0.96301245781E+00  0.96301245781E+00  0.00000000000E+00 0.  1.
         21   -1    0    0  503  502 -0.00000000000E+00 -0.00000000000E+00 -0.59963677615E+03  0.59963677615E+03  0.00000000000E+00 0.  1.
         21    1    1    2  503  501 -0.22500192000E+02 -0.66655812154E+01 -0.36399331747E+03  0.36474898735E+03  0.00000000000E+00 0.  1.
         21    1    1    2  504  502  0.22500192000E+02  0.66655812154E+01 -0.23468044622E+03  0.23585080125E+03  0.00000000000E+00 0.  1.
</event>
<event>
 4    1  0.3048956E+006  0.3900564E+02  0.7546771E-02  0.1354413E+00
         21   -1    0    0  502  501  0.00000000000E+00  0.00000000000E+00  0.72125487505E+02  0.72125487505E+02  0.00000000000E+00 0. -1.
         21   -1    0    0  503  502 -0.00000000000E+00 -0.00000000000E+00 -0.24438572640E+02  0.24438572640E+02  0.00000000000E+00 0. -1.
         21    1    1    2  503  504  0.56698659298E+00  0.39001516638E+02  0.59828737140E+01  0.39461811308E+02  0.00000000000E+00 0. -1.
         21    1    1    2  504  501 -0.56698659298E+00 -0.39001516638E+02  0.41704041152E+02  0.57102248837E+02  0.00000000000E+00 0. -1.
</event>
<event>
 4    1  0.3048956E+006  0.7228628E+02  0.7546771E-02  0.1222985E+00
         21   -1    0    0  503  501  0.00000000000E+00  0.00000000000E+00  0.22983034004E+03  0.22983034004E+03  0.00000000000E+00 0. -1.
         21   -1    0    0  504  502 -0.00000000000E+00 -0.00000000000E+00 -0.15507937906E+03  0.15507937906E+03  0.00000000000E+00 0.  1.
         21    1    1    2  503  502  0.74066198745E+01  0.71905830665E+02  0.21516403272E+03  0.22698208625E+03  0.00000000000E+00 0. -1.
         21    1    1    2  504  501 -0.74066198745E+01 -0.71905830665E+02 -0.14041307174E+03  0.15792763285E+03  0.00000000000E+00 0.  1.
</event>
<event>
 4    1  0.3048956E+006  0.2163712E+02  0.7546771E-02  0.1510360E+00
         21   -1    0    0  504  501  0.00000000000E+00  0.00000000000E+00  0.99314380683E+02  0.99314380683E+02  0.00000000000E+00 0. -1.
         21   -1    0    0  503  502 -0.00000000000E+00 -0.00000000000E+00 -0.33434630814E+02  0.33434630814E+02  0.00000000000E+00 0.  1.
         21    1    1    2  503  501 -0.21634098918E+02 -0.36167197407E+00 -0.28577847150E+02  0.35844921402E+02  0.00000000000E+00 0.  1.
         21    1    1    2  504  502  0.21634098918E+02  0.36167197407E+00  0.94457597019E+02  0.96904090095E+02  0.00000000000E+00 0. -1.
</event>
<event>
 4    1  0.3048956E+006  0.2258880E+02  0.7546771E-02  0.1497727E+00
         21   -1    0    0  503  501  0.00000000000E+00  0.00000000000E+00  0.36299468760E+02  0.36299468760E+02  0.00000000000E+00 0. -1.
         21   -1    0    0  501  502 -0.00000000000E+00 -0.00000000000E+00 -0.23496761608E+03  0.23496761608E+03  0.00000000000E+00 0. -1.
         21    1    1    2  503  504 -0.10599242497E+02 -0.19947682479E+02  0.32179809131E+02  0.39316588019E+02  0.00000000000E+00 0. -1.
         21    1    1    2  504  502  0.10599242497E+02  0.19947682479E+02 -0.23084795645E+03  0.23195049682E+03  0.00000000000E+00 0. -1.
</event>
<event>
 4    1  0.3048956E+006  0.2019964E+02  0.7546771E-02  0.1531006E+00
         21   -1    0    0  503  501  0.00000000000E+00  0.00000000000E+00  0.47894485499E+01  0.47894485499E+01  0.00000000000E+00 0.  1.
         21   -1    0    0  504  502 -0.00000000000E+00 -0.00000000000E+00 -0.49689019064E+03  0.49689019064E+03  0.00000000000E+00 0.  1.
         21    1    1    2  503  502 -0.19792280555E+02 -0.40362079092E+01 -0.47437641724E+03  0.47480628742E+03  0.00000000000E+00 0.  1.
         21    1    1    2  504  501  0.19792280555E+02  0.40362079092E+01 -0.17724324855E+02  0.26873351771E+02  0.00000000000E+00 0.  1.
</event>
<event>
 4    1  0.3048956E+006  0.2095646E+02  0.7546771E-02  0.1519887E+00
         21   -1    0    0  504  501  0.00000000000E+00  0.00000000000E+00  0.17486589525E+03  0.17486589525E+03  0.00000000000E+00 0.  1.
         21   -1    0    0  503  502 -0.00000000000E+00 -0.00000000000E+00 -0.31434547554E+01  0.31434547554E+01  0.00000000000E+00 0.  1.
         21    1    1    2  503  501 -0.16472472387E+02 -0.12954952975E+02  0.12576896644E+03  0.12750296496E+03  0.00000000000E+00 0.  1.
         21    1    1    2  504  502  0.16472472387E+02  0.12954952975E+02  0.45953474055E+02  0.50506385050E+02  0.00000000000E+00 0.  1.
</event>
<event>
 4    1  0.3048956E+006  0.3627069E+02  0.7546771E-02  0.1371843E+00
         21   -1    0    0  502  501  0.00000000000E+00  0.00000000000E+00  0.23837521683E+03  0.23837521683E+03  0.00000000000E+00 0. -1.
         21   -1    0    0  503  502 -0.00000000000E+00 -0.00000000000E+00 -0.58063905175E+01  0.58063905175E+01  0.00000000000E+00 0. -1.
         21    1    1    2  503  504 -0.19428941725E+02  0.30628072585E+02  0.89116154686E+02  0.96214612367E+02  0.00000000000E+00 0. -1.
         21    1    1    2  504  501  0.19428941725E+02 -0.30628072585E+02  0.14345267162E+03  0.14796699498E+03  0.00000000000E+00 0. -1.
</event>
<event>
 4    1  0.3048956E+006  0.2020664E+02  0.7546771E-02  0.1530900E+00
         21   -1    0    0  502  501  0.00000000000E+00  0.00000000000E+00  0.12845952012E+03  0.12845952012E+03  0.00000000000E+00 0. -1.
         21   -1    0    0  504  502 -0.00000000000E+00 -0.00000000000E+00 -0.71397814687E+01  0.71397814687E+01  0.00000000000E+00 0. -1.
         21    1    1    2  503  501  0.79855420449E+01  0.18561778132E+02  0.11116120786E+03  0.11298284216E+03  0.00000000000E+00 0. -1.
         21    1    1    2  504  503 -0.79855420449E+01 -0.18561778132E+02  0.10158530784E+02  0.22616459424E+02  0.00000000000E+00 0. -1.
</event>
<event>
 4    1  0.3048956E+006  0.2006371E+02  0.7546771E-02  0.1533064E+00
         21   -1    0    0  504  501  0.00000000000E+00  0.00000000000E+00  0.25214997918E+02  0.25214997918E+02  0.00000000000E+00 0.  1.
         21   -1    0    0  503  502 -0.00000000000E+00 -0.00000000000E+00 -0.40932417910E+02  0.40932417910E+02  0.00000000000E+00 0. -1.
         21    1    1    2  503  501 -0.58349022652E+01 -0.19196523904E+02 -0.33689498722E+02  0.39211413371E+02  0.00000000000E+00 0. -1.
         21    1    1    2  504  502  0.58349022652E+01  0.19196523904E+02  0.17972078731E+02  0.26936002457E+02  0.00000000000E+00 0.  1.
</event>
<event>
 4    1  0.3048956E+006  0.4588332E+02  0.7546771E-02  0.1317081E+00
         21   -1    0    0  504  501  0.00000000000E+00  0.00000000000E+00  0.12032787809E+03  0.12032787809E+03  0.00000000000E+00 0.  1.
         21   -1    0    0  503  502 -0.00000000000E+00 -0.00000000000E+00 -0.17833848741E+02  0.17833848741E+02  0.00000000000E+00 0.  1.
         21    1    1    2  503  501  0.34093203327E+02 -0.30707201977E+02  0.60752574400E+02  0.76132477055E+02  0.00000000000E+00 0.  1.
         21    1    1    2  504  502 -0.34093203327E+02  0.30707201977E+02  0.41741454947E+02  0.62029249774E+02  0.00000000000E+00 0.  1.
</event>
<event>
 4    1  0.3048956E+006  0.3019431E+02  0.7546771E-02  0.1417915E+00
         21   -1    0    0  504  501  0.00000000000E+00  0.00000000000E+00  0.26023922815E+02  0.26023922815E+02  0.00000000000E+00 0. -1.
         21   -1    0    0  501  502 -0.00000000000E+00 -0.00000000000E+00 -0.10270160979E+03  0.10270160979E+03  0.00000000000E+00 0. -1.
         21    1    1    2  503  502  0.14605910301E+02 -0.26426577193E+02 -0.90583230812E+02  0.95483078617E+02  0.00000000000E+00 0. -1.
         21    1    1    2  504  503 -0.14605910301E+02  0.26426577193E+02  0.13905543835E+02  0.33242453989E+02  0.00000000000E+00 0. -1.
</event>
<event>
 4    1  0.3048956E+006  0.3779500E+02  0.7546771E-02  0.1361915E+00
         21   -1    0    0  504  501  0.00000000000E+00  0.00000000000E+00  0.13467523768E+03  0.13467523768E+03  0.00000000000E+00 0. -1.
         21   -1    0    0  501  502 -0.00000000000E+00 -0.00000000000E+00 -0.13434393066E+02  0.13434393066E+02  0.00000000000E+00 0.  1.
         21    1    1    2  503  502 -0.64469798743E+01 -0.37241084006E+02  0.26645439462E+02  0.46243284178E+02  0.00000000000E+00 0.  1.
         21    1    1    2  504  503  0.64469798743E+01  0.37241084006E+02  0.94595405148E+02  0.10186634657E+03  0.00000000000E+00 0. -1.
</event>
<event>
 4    1  0.3048956E+006  0.4041309E+02  0.7546771E-02  0.1346082E+00
         21   -1    0    0  504  501  0.00000000000E+00  0.00000000000E+00  0.44360394237E+02  0.44360394237E+02  0.00000000000E+00 0. -1.
         21   -1    0    0  503  502 -0.00000000000E+00 -0.00000000000E+00 -0.38763940537E+02  0.38763940537E+02  0.00000000000E+00 0. -1.
         21    1    1    2  503  501 -0.35800675194E+02 -0.18749121303E+02 -0.65162272114E+01  0.40935059681E+02  0.00000000000E+00 0. -1.
         21    1    1    2  504  502  0.35800675194E+02  0.18749121303E+02  0.12112680911E+02  0.42189275093E+02  0.00000000000E+00 0. -1.
</event>
<event>
 4    1  0.3048956E+006  0.2045334E+02  0.7546771E-02  0.1527215E+00
         21   -1    0    0  502  501  0.00000000000E+00  0.00000000000E+00  0.30569010379E+02  0.30569010379E+02  0.00000000000E+00 0. -1.
         21   -1    0    0  504  502 -0.00000000000E+00 -0.00000000000E+00 -0.88643761132E+02  0.88643761132E+02  0.00000000000E+00 0.  1.
         21    1    1    2  503  501  0.19709260610E+02 -0.54666257524E+01  0.25775136918E+02  0.32904355853E+02  0.00000000000E+00 0. -1.
         21    1    1    2  504  503 -0.19709260610E+02  0.54666257524E+01 -0.83849887672E+02  0.86308415658E+02  0.00000000000E+00 0.  1.
</event>
<event>
 4    1  0.3048956E+006  0.2528091E+02  0.7546771E-02  0.1465685E+00
         21   -1    0    0  502  501  0.00000000000E+00  0.00000000000E+00  0.88102176737E+02  0.88102176737E+02  0.00000000000E+00 0.  1.
         21   -1    0    0  504  502 -0.00000000000E+00 -0.00000000000E+00 -0.88910302415E+02  0.88910302415E+02  0.00000000000E+00 0.  1.
         21    1    1    2  503  501 -0.12064899248E+02 -0.22216267443E+02  0.84414666164E+02  0.88119011550E+02  0.00000000000E+00 0.  1.
         21    1    1    2  504  503  0.12064899248E+02  0.22216267443E+02 -0.85222791842E+02  0.88893467602E+02  0.00000000000E+00 0.  1.
</event>
<event>
 4    1  0.3048956E+006  0.2097062E+02  0.7546771E-02  0.1519685E+00
         21   -1    0    0  504  501  0.00000000000E+00  0.00000000000E+00  0.37818913481E+03  0.37818913481E+03  0.00000000000E+00 0.  1.
         21   -1    0    0  501  502 -0.00000000000E+00 -0.00000000000E+00 -0.18320116222E+01  0.18320116222E+01  0.00000000000E+00 0. -1.
         21    1    1    2  503  502  0.12777680649E+02  0.16628218512E+02  0.73339893965E+02  0.76279137517E+02  0.00000000000E+00 0. -1.
         21    1    1    2  504  503 -0.12777680649E+02 -0.16628218512E+02  0.30301722922E+03  0.30374200892E+03  0.00000000000E+00 0.  1.
</event>
<event>
 4    1  0.3048956E+006  0.2630416E+02  0.7546771E-02  0.1454726E+00
         21   -1    0    0  502  501  0.00000000000E+00  0.00000000000E+00  0.21747033391E+03  0.21747033391E+03  0.00000000000E+00 0.  1.
         21   -1    0    0  503  502 -0.00000000000E+00 -0.00000000000E+00 -0.10218862747E+02  0.10218862747E+02  0.00000000000E+00 0. -1.
         21    1    1    2  503  504  0.25638718986E+02  0.58791902612E+01  0.91517374537E+01  0.27850728676E+02  0.00000000000E+00 0. -1.
         21    1    1    2  504  501 -0.25638718986E+02 -0.58791902612E+01  0.19809973371E+03  0.19983846798E+03  0.00000000000E+00 0.  1.
</event>
<event>
 4    1  0.3048956E+006  0.3260162E+02  0.7546771E-02  0.1398257E+00
         21   -1    0    0  503  501  0.00000000000E+00  0.00000000000E+00  0.24605724192E+03  0.24605724192E+03  0.00000000000E+00 0.  1.
         21   -1    0    0  504  502 -0.00000000000E+00 -0.00000000000E+00 -0.43196131017E+01  0.43196131017E+01  0.00000000000E+00 0.  1.
         21    1    1    2  503  502 -0.31686445627E+02  0.76703975651E+01  0.12117240448E+03  0.12548154224E+03  0.00000000000E+00 0.  1.
         21    1    1    2  504  501  0.31686445627E+02 -0.76703975651E+01  0.12056522434E+03  0.12489531278E+03  0.00000000000E+00 0.  1.
</event>
<event>
 4    1  0.3048956E+006  0.2029263E+02  0.7546771E-02  0.1529608E+00
         21   -1    0    0  504  501  0.00000000000E+00  0.00000000000E+00  0.53335660642E+01  0.53335660642E+01  0.00000000000E+00 0.  1.
         21   -1    0    0  503  502 -0.00000000000E+00 -0.00000000000E+00 -0.78022163312E+02  0.78022163312E+02  0.00000000000E+00 0.  1.
         21    1    1    2  503  501 -0.30643093011E+01 -0.20059936139E+02 -0.32085381736E+02  0.37963966475E+02  0.00000000000E+00 0.  1.
         21    1    1    2  504  502  0.30643093011E+01  0.20059936139E+02 -0.40603215512E+02  0.45391762901E+02  0.00000000000E+00 0.  1.
</event>
<event>
 4    1  0.3048956E+006  0.2040040E+02  0.7546771E-02  0.1528000E+00
         21   -1    0    0  503  501  0.00000000000E+00  0.00000000000E+00  0.33402015380E+03  0.33402015380E+03  0.00000000000E+00 0. -1.
         21   -1    0    0  504  502 -0.00000000000E+00 -0.00000000000E+00 -0.12467663360E+01  0.12467663360E+01  0.00000000000E+00 0. -1.
         21    1    1    2  503  502  0.19610119314E+02 -0.56231253856E+01  0.17064530433E+03  0.17186039744E+03  0.00000000000E+00 0. -1.
         21    1    1    2  504  501 -0.19610119314E+02  0.56231253856E+01  0.16212808314E+03  0.16340652270E+03  0.00000000000E+00 0. -1.
</event>
<event>
 4    1  0.3048956E+006  0.2106245E+02  0.7546771E-02  0.1518375E+00
         21   -1    0    0  504  501  0.00000000000E+00  0.00000000000E+00  0.31995823957E+02  0.31995823957E+02  0.00000000000E+00 0. -1.
         21   -1    0    0  503  502 -0.00000000000E+00 -0.00000000000E+00 -0.11218035486E+03  0.11218035486E+03  0.00000000000E+00 0.  1.
         21    1    1    2  503  501 -0.15069349405E+02 -0.14715355494E+02  0.27394008303E+02  0.34555154025E+02  0.00000000000E+00 0. -1.
         21    1    1    2  504  502  0.15069349405E+02  0.14715355494E+02 -0.10757853921E+03  0.10962102479E+03  0.00000000000E+00 0.  1.
</event>
<event>
 4    1  0.3048956E+006  0.2280598E+02  0.7546771E-02  0.1494949E+00
         21   -1    0    0  504  501  0.00000000000E+00  0.00000000000E+00  0.17571917474E+03  0.17571917474E+03  0.00000000000E+00 0.  1.
         21   -1    0    0  503  502 -0.00000000000E+00 -0.00000000000E+00 -0.10715258279E+03  0.10715258279E+03  0.00000000000E+00 0.  1.
         21    1    1    2  503  501 -0.52061542511E+01 -0.22203796497E+02 -0.10518543991E+03  0.10762940764E+03  0.00000000000E+00 0.  1.
         21    1    1    2  504  502  0.52061542511E+01  0.22203796497E+02  0.17375203186E+03  0.17524234989E+03  0.00000000000E+00 0.  1.
</event>
<event>
 4    1  0.3048956E+006  0.2042542E+02  0.7546771E-02  0.1527629E+00
         21   -1    0    0  503  501  0.00000000000E+00  0.00000000000E+00  0.10469950242E+03  0.10469950242E+03  0.00000000000E+00 0. -1.
         21   -1    0    0  504  502 -0.00000000000E+00 -0.00000000000E+00 -0.79867360957E+01  0.79867360957E+01  0.00000000000E+00 0. -1.
         21    1    1    2  503  502  0.18258777874E+02  0.91550455740E+01  0.88240118710E+02  0.90573265254E+02  0.00000000000E+00 0. -1.
         21    1    1    2  504  501 -0.18258777874E+02 -0.91550455740E+01  0.84726476164E+01  0.22112973263E+02  0.00000000000E+00 0. -1.
</event>
<event>
 4    1  0.3048956E+006  0.2490085E+02  0.7546771E-02  0.1469916E+00
         21   -1    0    0  503  501  0.00000000000E+00  0.00000000000E+00  0.88397568019E+01  0.88397568019E+01  0.00000000000E+00 0.  1.
         21   -1    0    0  501  502 -0.00000000000E+00 -0.00000000000E+00 -0.84093036817E+02  0.84093036817E+02  0.00000000000E+00 0.  1.
         21    1    1    2  503  504  0.23051407630E+02  0.94172659680E+01 -0.18701572183E+02  0.31141629600E+02  0.00000000000E+00 0.  1.
         21    1    1    2  504  502 -0.23051407630E+02 -0.94172659680E+01 -0.56551707833E+02  0.61791164019E+02  0.00000000000E+00 0.  1.
</event>
<event>
 4    1  0.3048956E+006  0.2407737E+02  0.7546771E-02  0.1479395E+00
         21   -1    0    0  502  501  0.00000000000E+00  0.00000000000E+00  0.86402343700E+02  0.86402343700E+02  0.00000000000E+00 0. -1.
         21   -1    0    0  503  502 -0.00000000000E+00 -0.00000000000E+00 -0.65049005364E+02  0.65049005364E+02  0.00000000000E+00 0.  1.
         21    1    1    2  503  504 -0.81601322925E+01  0.22652419137E+02 -0.61037347589E+02  0.65614614625E+02  0.00000000000E+00 0.  1.
         21    1    1    2  504  501  0.81601322925E+01 -0.22652419137E+02  0.82390685925E+02  0.85836734438E+02  0.00000000000E+00 0. -1.
</event>
<event>
 4    1  0.3048956E+006  0.2082201E+02  0.7546771E-02  0.1521821E+00
         21   -1    0    0  503  501  0.00000000000E+00  0.00000000000E+00  0.84833309139E+01  0.84833309139E+01  0.00000000000E+00 0.  1.
         21   -1    0    0  504  502 -0.00000000000E+00 -0.00000000000E+00 -0.76632903145E+02  0.76632903145E+02  0.00000000000E+00 0.  1.
         21    1    1    2  503  502 -0.18926609774E+01  0.20735816811E+02 -0.95126204629E+01  0.22892055663E+02  0.00000000000E+00 0.  1.
         21    1    1    2  504  501  0.18926609774E+01 -0.20735816811E+02 -0.58636951768E+02  0.62224178396E+02  0.00000000000E+00 0.  1.
</event>
<event>
 4    1  0.3048956E+006  0.2845435E+02  0.7546771E-02  0.1433522E+00
         21   -1    0    0  503  501  0.00000000000E+00  0.00000000000E+00  0.64285779791E+01  0.64285779791E+01  0.00000000000E+00 0. -1.
         21   -1    0    0  504  502 -0.00000000000E+00 -0.00000000000E+00 -0.13467346538E+03  0.13467346538E+03  0.00000000000E+00 0. -1.
         21    1    1    2  503  502 -0.16154778252E+02 -0.23423773042E+02 -0.46161853962E+02  0.54226992957E+02  0.00000000000E+00 0. -1.
         21    1    1    2  504  501  0.16154778252E+02  0.23423773042E+02 -0.82083033442E+02  0.86875050405E+02  0.00000000000E+00 0. -1.
</event>
<event>
 4    1  0.3048956E+006  0.4685444E+02  0.7546771E-02  0.1312419E+00
         21   -1    0    0  504  501  0.00000000000E+00  0.00000000000E+00  0.48999250888E+03  0.48999250888E+03  0.00000000000E+00 0. -1.
         21   -1    0    0  503  502 -0.00000000000E+00 -0.00000000000E+00 -0.62160216381E+01  0.62160216381E+01  0.00000000000E+00 0. -1.
         21    1    1    2  503  501 -0.39192077094E+02  0.25677213109E+02  0.37299096090E+03  0.37592232588E+03  0.00000000000E+00 0. -1.
         21    1    1    2  504  502  0.39192077094E+02 -0.25677213109E+02  0.11078552634E+03  0.12028620464E+03  0.00000000000E+00 0. -1.
</event>
<event>
 4    1  0.3048956E+006  0.2455232E+02  0.7546771E-02  0.1473874E+00
         21   -1    0    0  504  501  0.00000000000E+00  0.00000000000E+00  0.34457737466E+03  0.34457737466E+03  0.00000000000E+00 0.  1.
         21   -1    0    0  503  502 -0.00000000000E+00 -0.00000000000E+00 -0.18388294849E+01  0.18388294849E+01  0.00000000000E+00 0.  1.
         21    1    1    2  503  501  0.96638140946E+01  0.22570490254E+02  0.20955917161E+03  0.21099256560E+03  0.00000000000E+00 0.  1.
         21    1    1    2  504  502 -0.96638140946E+01 -0.22570490254E+02  0.13317937357E+03  0.13542363854E+03  0.00000000000E+00 0.  1.
</event>
<event>
 4    1  0.3048956E+006  0.2311188E+02  0.7546771E-02  0.1491098E+00
         21   -1    0    0  504  501  0.00000000000E+00  0.00000000000E+00  0.35651435117E+03  0.35651435117E+03  0.00000000000E+00 0.  1.
         21   -1    0    0  503  502 -0.00000000000E+00 -0.00000000000E+00 -0.34486352932E+01  0.34486352932E+01  0.00000000000E+00 0.  1.
         21    1    1    2  503  501  0.18666971174E+02 -0.13627298087E+02  0.41182050541E+02  0.47224150101E+02  0.00000000000E+00 0.  1.
         21    1    1    2  504  502 -0.18666971174E+02  0.13627298087E+02  0.31188366534E+03  0.31273883637E+03  0.00000000000E+00 0.  1.
</event>
<event>
 4    1  0.3048956E+006  0.2348076E+02  0.7546771E-02  0.1486548E+00
         21   -1    0    0  503  501  0.00000000000E+00  0.00000000000E+00  0.23657798935E+02  0.23657798935E+02  0.00000000000E+00 0. -1.
         21   -1    0    0  504  502 -0.00000000000E+00 -0.00000000000E+00 -0.28400870520E+02  0.28400870520E+02  0.00000000000E+00 0.  1.
         21    1    1    2  503  502 -0.38796235223E+01 -0.23158036837E+02  0.86541185453E+01  0.25024786045E+02  0.00000000000E+00 0. -1.
         21    1    1    2  504  501  0.38796235223E+01  0.23158036837E+02 -0.13397190131E+02  0.27033883410E+02  0.00000000000E+00 0.  1.
</event>
<event>
 4    1  0.3048956E+006  0.5505322E+02  0.7546771E-02  0.1277634E+00
         21   -1    0    0  502  501  0.00000000000E+00  0.00000000000E+00  0.56490020675E+02  0.56490020675E+02  0.00000000000E+00 0. -1.
         21   -1    0    0  503  502 -0.00000000000E+00 -0.00000000000E+00 -0.92056614514E+02  0.92056614514E+02  0.00000000000E+00 0.  1.
         21    1    1    2  503  504  0.18686730661E+02 -0.51784774705E+02 -0.65755714252E+02  0.85759377044E+02  0.00000000000E+00 0.  1.
         21    1    1    2  504  501 -0.18686730661E+02  0.51784774705E+02  0.30189120414E+02  0.62787258146E+02  0.00000000000E+00 0. -1.
</event>
<event>
 4    1  0.3048956E+006  0.2069596E+02  0.7546771E-02  0.1523650E+00
         21   -1    0    0  504  501  0.00000000000E+00  0.00000000000E+00  0.37697953833E+01  0.37697953833E+01  0.00000000000E+00 0.  1.
         21   -1    0    0  503  502 -0.00000000000E+00 -0.00000000000E+00 -0.60439644696E+03  0.60439644696E+03  0.00000000000E+00 0. -1.
         21    1    1    2  503  501  0.20692680233E+02 -0.36835361895E+00 -0.26298923878E+02  0.33465745125E+02  0.00000000000E+00 0.  1.
         21    1    1    2  504  502 -0.20692680233E+02  0.36835361895E+00 -0.57432772770E+03  0.57470049722E+03  0.00000000000E+00 0. -1.
</event>
<event>
 4    1  0.3048956E+006  0.2484947E+02  0.7546771E-02  0.1470494E+00
         21   -1    0    0  502  501  0.00000000000E+00  0.00000000000E+00  0.11329707363E+03  0.11329707363E+03  0.00000000000E+00 0. -1.
         21   -1    0    0  503  502 -0.00000000000E+00 -0.00000000000E+00 -0.74448839206E+02  0.74448839206E+02  0.00000000000E+00 0.  1.
         21    1    1    2  503  504 -0.23847251333E+02  0.69860534752E+01 -0.70947418943E+02  0.75173350291E+02  0.00000000000E+00 0.  1.
         21    1    1    2  504  501  0.23847251333E+02 -0.69860534752E+01  0.10979565337E+03  0.11257256255E+03  0.00000000000E+00 0. -1.
</event>
<event>
 4    1  0.3048956E+006  0.2470056E+02  0.7546771E-02  0.1472181E+00
         21   -1    0    0  503  501  0.00000000000E+00  0.00000000000E+00  0.71337734281E+02  0.71337734281E+02  0.00000000000E+00 0.  1.
         21   -1    0    0  504  502 -0.00000000000E+00 -0.00000000000E+00 -0.90486033084E+02  0.90486033084E+02  0.00000000000E+00 0.  1.
         21    1    1    2  503  502 -0.23198908164E+02 -0.84810475221E+01  0.67419041999E+02  0.71801425690E+02  0.00000000000E+00 0.  1.
         21    1    1    2  504  501  0.23198908164E+02  0.84810475221E+01 -0.86567340802E+02  0.90022341675E+02  0.00000000000E+00 0.  1.
</event>
<event>
 4    1  0.3048956E+006  0.2673417E+02  0.7546771E-02  0.1450297E+00
         21   -1    0    0  503  501  0.00000000000E+00  0.00000000000E+00  0.17552669208E+03  0.17552669208E+03  0.00000000000E+00 0.  1.
         21   -1    0    0  504  502 -0.00000000000E+00 -0.00000000000E+00 -0.15434405449E+02  0.15434405449E+02  0.00000000000E+00 0.  1.
         21    1    1    2  503  502  0.70387246238E+01 -0.25790936594E+02 -0.18773028671E+01  0.26800005985E+02  0.00000000000E+00 0.  1.
         21    1    1    2  504  501 -0.70387246238E+01  0.25790936594E+02  0.16196958950E+03  0.16416109154E+03  0.00000000000E+00 0.  1.
</event>
<event>
 4    1  0.3048956E+006  0.2348226E+02  0.7546771E-02  0.1486530E+00
         21   -1    0    0  503  501  0.00000000000E+00  0.00000000000E+00  0.59858656836E+02  0.59858656836E+02  0.00000000000E+00 0. -1.
         21   -1    0    0  504  502 -0.00000000000E+00 -0.00000000000E+00 -0.96260947846E+01  0.96260947846E+01  0.00000000000E+00 0. -1.
         21    1    1    2  503  502 -0.14366195052E+02 -0.18574961061E+02  0.17910270194E+02  0.29532939527E+02  0.00000000000E+00 0. -1.
         21    1    1    2  504  501  0.14366195052E+02  0.18574961061E+02  0.32322291857E+02  0.39951812093E+02  0.00000000000E+00 0. -1.
</event>
<event>
 4    1  0.3048956E+006  0.2511493E+02  0.7546771E-02  0.1467522E+00
         21   -1    0    0  503  501  0.00000000000E+00  0.00000000000E+00  0.12148213431E+03  0.12148213431E+03  0.00000000000E+00 0.  1.
         21   -1    0    0  504  502 -0.00000000000E+00 -0.00000000000E+00 -0.13930341245E+02  0.13930341245E+02  0.00000000000E+00 0. -1.
         21    1    1    2  503  502  0.24766400175E+02  0.41695627264E+01  0.10739965802E+03  0.11029708235E+03  0.00000000000E+00 0.  1.
         21    1    1    2  504  501 -0.24766400175E+02 -0.41695627264E+01  0.15213504455E+00  0.25115393209E+02  0.00000000000E+00 0. -1.
</event>
<event>
 4    1  0.3048956E+006  0.2101635E+02  0.7546771E-02  0.1519031E+00
         21   -1    0    0  502  501  0.00000000000E+00  0.00000000000E+00  0.47444849224E+01  0.47444849224E+01  0.00000000000E+00 0.  1.
         21   -1    0    0  503  502 -0.00000000000E+00 -0.00000000000E+00 -0.19360332970E+03  0.19360332970E+03  0.00000000000E+00 0. -1.
         21    1    1    2  503  504 -0.94557624930E+00 -0.20995071691E+02 -0.16588602235E+03  0.16721201979E+03  0.00000000000E+00 0. -1.
         21    1    1    2  504  501  0.94557624930E+00  0.20995071691E+02 -0.22972822424E+02  0.31135794833E+02  0.00000000000E+00 0.  1.
</event>
<event>
 4    1  0.3048956E+006  0.3008246E+02  0.7546771E-02  0.1418881E+00
         21   -1    0    0  503  501  0.00000000000E+00  0.00000000000E+00  0.52484536349E+02  0.52484536349E+02  0.00000000000E+00 0. -1.
         21   -1    0    0  501  502 -0.00000000000E+00 -0.00000000000E+00 -0.30966099081E+02  0.30966099081E+02  0.00000000000E+00 0. -1.
         21    1    1    2  503  504  0.20888978796E+02  0.21647288844E+02  0.38536737373E+02  0.48887980903E+02  0.00000000000E+00 0. -1.
         21    1    1    2  504  502 -0.20888978796E+02 -0.21647288844E+02 -0.17018300105E+02  0.34562654526E+02  0.00000000000E+00 0. -1.
</event>
<event>
 4    1  0.3048956E+006  0.2005319E+02  0.7546771E-02  0.1533224E+00
         21   -1    0    0  503  501  0.00000000000E+00  0.00000000000E+00  0.21326740382E+01  0.21326740382E+01  0.00000000000E+00 0.  1.
         21   -1    0    0  504  502 -0.00000000000E+00 -0.00000000000E+00 -0.79927923951E+03  0.79927923951E+03  0.00000000000E+00 0.  1.
         21    1    1    2  503  502  0.62017788365E+01  0.19070085841E+02 -0.48306894811E+02  0.52303788782E+02  0.00000000000E+00 0.  1.
         21    1    1    2  504  501 -0.62017788365E+01 -0.19070085841E+02 -0.74883967066E+03  0.74910812476E+03  0.00000000000E+00 0.  1.
</event>
<event>
 4    1  0.3048956E+006  0.3058183E+02  0.7546771E-02  0.1414606E+00
         21   -1    0    0  504  501  0.00000000000E+00  0.00000000000E+00  0.46883674981E+03  0.46883674981E+03  0.00000000000E+00 0. -1.
         21   -1    0    0  503  502 -0.00000000000E+00 -0.00000000000E+00 -0.50016282004E+01  0.50016282004E+01  0.00000000000E+00 0. -1.
         21    1    1    2  503  501  0.75569074554E+01 -0.29633450472E+02  0.48222750171E+02  0.57102380609E+02  0.00000000000E+00 0. -1.
         21    1    1    2  504  502 -0.75569074554E+01  0.29633450472E+02  0.41561237143E+03  0.41673599740E+03  0.00000000000E+00 0. -1.
</event>
<event>
 4    1  0.3048956E+006  0.2352375E+02  0.7546771E-02  0.1486024E+00
         21   -1    0    0  504  501  0.00000000000E+00  0.00000000000E+00  0.31228431565E+02  0.31228431565E+02  0.00000000000E+00 0.  1.
         21   -1    0    0  503  502 -0.00000000000E+00 -0.00000000000E+00 -0.31067726428E+02  0.31067726428E+02  0.00000000000E+00 0.  1.
         21    1    1    2  503  501  0.15688724092E+02 -0.17527998619E+02  0.20496824921E+02  0.31200747284E+02  0.00000000000E+00 0.  1.
         21    1    1    2  504  502 -0.15688724092E+02  0.17527998619E+02 -0.20336119785E+02  0.31095410708E+02  0.00000000000E+00 0.  1.
</event>
<event>
 4    1  0.3048956E+006  0.2050471E+02  0.7546771E-02  0.1526455E+00
         21   -1    0    0  504  501  0.00000000000E+00  0.00000000000E+00  0.22439455579E+02  0.22439455579E+02  0.00000000000E+00 0.  1.
         21   -1    0    0  503  502 -0.00000000000E+00 -0.00000000000E+00 -0.41472777263E+02  0.41472777263E+02  0.00000000000E+00 0.  1.
         21    1    1    2  503  501  0.17303907519E+02 -0.11000806306E+02  0.14144144309E+02  0.24909832858E+02  0.00000000000E+00 0.  1.
         21    1    1    2  504  502 -0.17303907519E+02  0.11000806306E+02 -0.33177465992E+02  0.39002399983E+02  0.00000000000E+00 0.  1.
</event>
<event>
 4    1  0.3048956E+006  0.2351471E+02  0.7546771E-02  0.1486134E+00
         21   -1    0    0  504  501  0.00000000000E+00  0.00000000000E+00  0.12040338989E+02  0.12040338989E+02  0.00000000000E+00 0.  1.
         21   -1    0    0  501  502 -0.00000000000E+00 -0.00000000000E+00 -0.83405123610E+02  0.83405123610E+02  0.00000000000E+00 0. -1.
         21    1    1    2  503  502  0.20821087644E+02 -0.10928120515E+02 -0.67673903484E+02  0.71642855341E+02  0.00000000000E+00 0. -1.
         21    1    1    2  504  503 -0.20821087644E+02  0.10928120515E+02 -0.36908811365E+01  0.23802607257E+02  0.00000000000E+00 0.  1.
</event>
<event>
 4    1  0.3048956E+006  0.3047879E+02  0.7546771E-02  0.1415481E+00
         21   -1    0    0  503  501  0.00000000000E+00  0.00000000000E+00  0.80593596156E+02  0.80593596156E+02  0.00000000000E+00 0. -1.
         21   -1    0    0  504  502 -0.00000000000E+00 -0.00000000000E+00 -0.16999230081E+02  0.16999230081E+02  0.00000000000E+00 0. -1.
         21    1    1    2  503  502  0.17514037926E+02 -0.24944237562E+02  0.41100471537E+01  0.30754658178E+02  0.00000000000E+00 0. -1.
         21    1    1    2  504  501 -0.17514037926E+02  0.24944237562E+02  0.59484318921E+02  0.66838168059E+02  0.00000000000E+00 0. -1.
</event>
<event>
 4    1  0.3048956E+006  0.2039622E+02  0.7546771E-02  0.1528062E+00
         21   -1    0    0  504  501  0.00000000000E+00  0.00000000000E+00  0.34021900296E+01  0.34021900296E+01  0.00000000000E+00 0.  1.
         21   -1    0    0  503  502 -0.00000000000E+00 -0.00000000000E+00 -0.13034611653E+03  0.13034611653E+03  0.00000000000E+00 0.  1.
         21    1    1    2  503  501 -0.20323188330E+02  0.17244985669E+01 -0.46832029465E+02  0.51080768035E+02  0.00000000000E+00 0.  1.
         21    1    1    2  504  502  0.20323188330E+02 -0.17244985669E+01 -0.80111897039E+02  0.82667538529E+02  0.00000000000E+00 0.  1.
</event>
<event>
 4    1  0.3048956E+006  0.2062879E+02  0.7546771E-02  0.1524631E+00
         21   -1    0    0  504  501  0.00000000000E+00  0.00000000000E+00  0.96546970413E+02  0.96546970413E+02  0.00000000000E+00 0. -1.
         21   -1    0    0  501  502 -0.00000000000E+00 -0.00000000000E+00 -0.76688752998E+02  0.76688752998E+02  0.00000000000E+00 0.  1.
         21    1    1    2  503  502 -0.20062182394E+02 -0.48016336001E+01 -0.74162750855E+02  0.76978311634E+02  0.00000000000E+00 0.  1.
         21    1    1    2  504  503  0.20062182394E+02  0.48016336001E+01  0.94020968270E+02  0.96257411777E+02  0.00000000000E+00 0. -1.
</event>
<event>
 4    1  0.3048956E+006  0.3104564E+02  0.7546771E-02  0.1410722E+00
         21   -1    0    0  504  501  0.00000000000E+00  0.00000000000E+00  0.54372410924E+03  0.54372410924E+03  0.00000000000E+00 0.  1.
         21   -1    0    0  503  502 -0.00000000000E+00 -0.00000000000E+00 -0.19791132492E+01  0.19791132492E+01  0.00000000000E+00 0.  1.
         21    1    1    2  503  501  0.61159682430E+01 -0.30437256140E+02  0.18274441054E+03  0.18536275573E+03  0.00000000000E+00 0.  1.
         21    1    1    2  504  502 -0.61159682430E+01  0.30437256140E+02  0.35900058545E+03  0.36034046676E+03  0.00000000000E+00 0.  1.
</event>
<event>
 4    1  0.3048956E+006  0.2340491E+02  0.7546771E-02  0.1487475E+00
         21   -1    0    0  504  501  0.00000000000E+00  0.00000000000E+00  0.15640713922E+02  0.15640713922E+02  0.00000000000E+00 0. -1.
         21   -1    0    0  503  502 -0.00000000000E+00 -0.00000000000E+00 -0.54481977519E+02  0.54481977519E+02  0.00000000000E+00 0. -1.
         21    1    1    2  503  501  0.19467317741E+02  0.12992827960E+02 -0.40374218141E+02  0.46667628277E+02  0.00000000000E+00 0. -1.
         21    1    1    2  504  502 -0.19467317741E+02 -0.12992827960E+02  0.15329545444E+01  0.23455063165E+02  0.00000000000E+00 0. -1.
</event>
<event>
 4    1  0.3048956E+006  0.2097707E+02  0.7546771E-02  0.1519592E+00
         21   -1    0    0  502  501  0.00000000000E+00  0.00000000000E+00  0.43551853153E+01  0.43551853153E+01  0.00000000000E+00 0.  1.
         21   -1    0    0  504  502 -0.00000000000E+00 -0.00000000000E+00 -0.22161370455E+03  0.22161370455E+03  0.00000000000E+00 0.  1.
         21    1    1    2  503  501  0.14396503304E+02  0.15257069807E+02 -0.25289744752E+02  0.32857399107E+02  0.00000000000E+00 0.  1.
         21    1    1    2  504  503 -0.14396503304E+02 -0.15257069807E+02 -0.19196877448E+03  0.19311149076E+03  0.00000000000E+00 0.  1.
</event>
<event>
 4    1  0.3048956E+006  0.2749879E+02  0.7546771E-02  0.1442661E+00
         21   -1    0    0  504  501  0.00000000000E+00  0.00000000000E+00  0.28784630624E+03  0.28784630624E+03  0.00000000000E+00 0.  1.
         21   -1    0    0  503  502 -0.00000000000E+00 -0.00000000000E+00 -0.50199994988E+01  0.50199994988E+01  0.00000000000E+00 0.  1.
         21    1    1    2  503  501 -0.25872522751E+02 -0.93164364245E+01  0.40312175209E+02  0.48798103357E+02  0.00000000000E+00 0.  1.
         21    1    1    2  504  502  0.25872522751E+02  0.93164364245E+01  0.24251413153E+03  0.24406820238E+03  0.00000000000E+00 0.  1.
</event>
<event>
 4    1  0.3048956E+006  0.2479399E+02  0.7546771E-02  0.1471121E+00
         21   -1    0    0  502  501  0.00000000000E+00  0.00000000000E+00  0.26506396206E+02  0.26506396206E+02  0.00000000000E+00 0.  1.
         21   -1    0    0  503  502 -0.00000000000E+00 -0.00000000000E+00 -0.60401695481E+02  0.60401695481E+02  0.00000000000E+00 0.  1.
         21    1    1    2  503  504  0.12814615025E+02  0.21225633719E+02 -0.51053783378E+02  0.56755886763E+02  0.00000000000E+00 0.  1.
         21    1    1    2  504  501 -0.12814615025E+02 -0.21225633719E+02  0.17158484103E+02  0.30152204923E+02  0.00000000000E+00 0.  1.
</event>
<event>
 4    1  0.3048956E+006  0.2127194E+02  0.7546771E-02  0.1515418E+00
         21   -1    0    0  503  501  0.00000000000E+00  0.00000000000E+00  0.80870673862E+01  0.80870673862E+01  0.00000000000E+00 0. -1.
         21   -1    0    0  501  502 -0.00000000000E+00 -0.00000000000E+00 -0.18199047232E+03  0.18199047232E+03  0.00000000000E+00 0. -1.
         21    1    1    2  503  504 -0.77510088489E+00  0.21257809703E+02 -0.78608213995E+01  0.22677913657E+02  0.00000000000E+00 0. -1.
         21    1    1    2  504  502  0.77510088489E+00 -0.21257809703E+02 -0.16604258353E+03  0.16739962605E+03  0.00000000000E+00 0. -1.
</event>
<event>
 4    1  0.3048956E+006  0.2378799E+02  0.7546771E-02  0.1482833E+00
         21   -1    0    0  503  501  0.00000000000E+00  0.00000000000E+00  0.37189453640E+03  0.37189453640E+03  0.00000000000E+00 0. -1.
         21   -1    0    0  501  502 -0.00000000000E+00 -0.00000000000E+00 -0.45894611069E+01  0.45894611069E+01  0.00000000000E+00 0. -1.
         21    1    1    2  503  504 -0.22445427156E+02  0.78785340111E+01  0.33755823989E+03  0.33839538090E+03  0.00000000000E+00 0. -1.
         21    1    1    2  504  502  0.22445427156E+02 -0.78785340111E+01  0.29746835404E+02  0.38088616605E+02  0.00000000000E+00 0. -1.
</event>
<event>
 4    1  0.3048956E+006  0.3071935E+02  0.7546771E-02  0.1413446E+00
         21   -1    0    0  504  501  0.00000000000E+00  0.00000000000E+00  0.27572703850E+02  0.27572703850E+02  0.00000000000E+00 0. -1.
         21   -1    0    0  503  502 -0.00000000000E+00 -0.00000000000E+00 -0.78989233822E+02  0.78989233822E+02  0.00000000000E+00 0.  1.
         21    1    1    2  503  501  0.30717720594E+02 -0.31648818626E+00 -0.65818320160E+02  0.72634219153E+02  0.00000000000E+00 0.  1.
         21    1    1    2  504  502 -0.30717720594E+02  0.31648818626E+00  0.14401790188E+02  0.33927718519E+02  0.00000000000E+00 0. -1.
</event>
<event>
 4    1  0.3048956E+006  0.2242690E+02  0.7546771E-02  0.1499823E+00
         21   -1    0    0  503  501  0.00000000000E+00  0.00000000000E+00  0.13360176792E+02  0.13360176792E+02  0.00000000000E+00 0. -1.
         21   -1    0    0  504  502 -0.00000000000E+00 -0.00000000000E+00 -0.37665379178E+02  0.37665379178E+02  0.00000000000E+00 0. -1.
         21    1    1    2  503  502  0.22224059315E+02  0.30095088613E+01 -0.12721450176E+02  0.25783740043E+02  0.00000000000E+00 0. -1.
         21    1    1    2  504  501 -0.22224059315E+02 -0.30095088613E+01 -0.11583752210E+02  0.25241815927E+02  0.00000000000E+00 0. -1.
</event>
<event>
 4    1  0.3048956E+006  0.2428598E+02  0.7546771E-02  0.1476952E+00
         21   -1    0    0  502  501  0.00000000000E+00  0.00000000000E+00  0.85802345193E+01  0.85802345193E+01  0.00000000000E+00 0.  1.
         21   -1    0    0  504  502 -0.00000000000E+00 -0.00000000000E+00 -0.34220343650E+03  0.34220343650E+03  0.00000000000E+00 0.  1.
         21    1    1    2  503  501 -0.24147588861E+02  0.25889738319E+01 -0.10022273141E+02  0.26272700513E+02  0.00000000000E+00 0.  1.
         21    1    1    2  504  503  0.24147588861E+02 -0.25889738319E+01 -0.32360092884E+03  0.32451097050E+03  0.00000000000E+00 0.  1.
</event>
<event>
 4    1  0.3048956E+006  0.2006314E+02  0.7546771E-02  0.1533073E+00
         21   -1    0    0  504  501  0.00000000000E+00  0.00000000000E+00  0.97031883573E+02  0.97031883573E+02  0.00000000000E+00 0. -1.
         21   -1    0    0  501  502 -0.00000000000E+00 -0.00000000000E+00 -0.47275401305E+01  0.47275401305E+01  0.00000000000E+00 0. -1.
         21    1    1    2  503  502  0.11074229807E+01 -0.20032552591E+02  0.28344412895E+02  0.34726579033E+02  0.00000000000E+00 0. -1.
         21    1    1    2  504  503 -0.11074229807E+01  0.20032552591E+02  0.63959930547E+02  0.67032844670E+02  0.00000000000E+00 0. -1.
</event>
<event>
 4    1  0.3048956E+006  0.5329854E+02  0.7546771E-02  0.1284471E+00
         21   -1    0    0  503  501  0.00000000000E+00  0.00000000000E+00  0.15456305915E+03  0.15456305915E+03  0.00000000000E+00 0. -1.
         21   -1    0    0  501  502 -0.00000000000E+00 -0.00000000000E+00 -0.48415391052E+02  0.48415391052E+02  0.00000000000E+00 0.  1.
         21    1    1    2  503  504  0.48485793010E+02 -0.22132820163E+02  0.13301144832E+03  0.14329263497E+03  0.00000000000E+00 0. -1.
         21    1    1    2  504  502 -0.48485793010E+02  0.22132820163E+02 -0.26863780223E+02  0.59685815233E+02  0.00000000000E+00 0.  1.
</event>
<event>
 4    1  0.3048956E+006  0.2296943E+02  0.7546771E-02  0.1492882E+00
         21   -1    0    0  502  501  0.00000000000E+00  0.00000000000E+00  0.45587525195E+02  0.45587525195E+02  0.00000000000E+00 0. -1.
         21   -1    0    0  503  502 -0.00000000000E+00 -0.00000000000E+00 -0.42111766820E+03  0.42111766820E+03  0.00000000000E+00 0. -1.
         21    1    1    2  503  504 -0.22822726364E+02  0.25919145727E+01 -0.41788881139E+03  0.41851959756E+03  0.00000000000E+00 0. -1.
         21    1    1    2  504  501  0.22822726364E+02 -0.25919145727E+01  0.42358668377E+02  0.48185595840E+02  0.00000000000E+00 0. -1.
</event>
<event>
 4    1  0.3048956E+006  0.3305538E+02  0.7546771E-02  0.1394775E+00
         21   -1    0    0  503  501  0.00000000000E+00  0.00000000000E+00  0.44276599919E+02  0.44276599919E+02  0.00000000000E+00 0.  1.
         21   -1    0    0  504  502 -0.00000000000E+00 -0.00000000000E+00 -0.49557841747E+03  0.49557841747E+03  0.00000000000E+00 0. -1.
         21    1    1    2  503  502  0.31685345166E+02  0.94179276350E+01 -0.48877189384E+03  0.48988837776E+03  0.00000000000E+00 0. -1.
         21    1    1    2  504  501 -0.31685345166E+02 -0.94179276350E+01  0.37470076285E+02  0.49966639631E+02  0.00000000000E+00 0.  1.
</event>
<event>
 4    1  0.3048956E+006  0.3561661E+02  0.7546771E-02  0.1376279E+00
         21   -1    0    0  504  501  0.00000000000E+00  0.00000000000E+00  0.24536159130E+02  0.24536159130E+02  0.00000000000E+00 0. -1.
         21   -1    0    0  503  502 -0.00000000000E+00 -0.00000000000E+00 -0.80399374375E+02  0.80399374375E+02  0.00000000000E+00 0. -1.
         21    1    1    2  503  501 -0.18278603711E+02 -0.30568540669E+02 -0.59278549598E+02  0.69155545509E+02  0.00000000000E+00 0. -1.
         21    1    1    2  504  502  0.18278603711E+02  0.30568540669E+02  0.34153343533E+01  0.35779987996E+02  0.00000000000E+00 0. -1.
</event>
<event>
 4    1  0.3048956E+006  0.7596577E+02  0.7546771E-02  0.1213536E+00
         21   -1    0    0  504  501  0.00000000000E+00  0.00000000000E+00  0.62467464256E+02  0.62467464256E+02  0.00000000000E+00 0.  1.
         21   -1    0    0  503  502 -0.00000000000E+00 -0.00000000000E+00 -0.10578202833E+03  0.10578202833E+03  0.00000000000E+00 0. -1.
         21    1    1    2  503  501 -0.15148642804E+01  0.75950665375E+02 -0.51599851931E+02  0.91833235291E+02  0.00000000000E+00 0. -1.
         21    1    1    2  504  502  0.15148642804E+01 -0.75950665375E+02  0.82852878552E+01  0.76416257298E+02  0.00000000000E+00 0.  1.
</event>
<event>
 4    1  0.3048956E+006  0.4623278E+02  0.7546771E-02  0.1315388E+00
         21   -1    0    0  502  501  0.00000000000E+00  0.00000000000E+00  0.25499479380E+03  0.25499479380E+03  0.00000000000E+00 0. -1.
         21   -1    0    0  504  502 -0.00000000000E+00 -0.00000000000E+00 -0.88612570519E+01  0.88612570519E+01  0.00000000000E+00 0. -1.
         21    1    1    2  503  501 -0.11238607006E+01  0.46219115480E+02  0.15373508634E+03  0.16053643347E+03  0.00000000000E+00 0. -1.
         21    1    1    2  504  503  0.11238607006E+01 -0.46219115480E+02  0.92398450409E+02  0.10331961739E+03  0.00000000000E+00 0. -1.
</event>
<event>
 4    1  0.3048956E+006  0.2906495E+02  0.7546771E-02  0.1427900E+00
         21   -1    0    0  504  501  0.00000000000E+00  0.00000000000E+00  0.12053908496E+03  0.12053908496E+03  0.00000000000E+00 0.  1.
         21   -1    0    0  503  502 -0.00000000000E+00 -0.00000000000E+00 -0.13898353873E+02  0.13898353873E+02  0.00000000000E+00 0.  1.
         21    1    1    2  503  501 -0.70210308771E+01  0.28204192210E+02  0.10064862968E+03  0.10476124278E+03  0.00000000000E+00 0.  1.
         21    1    1    2  504  502  0.70210308771E+01 -0.28204192210E+02  0.59921014078E+01  0.29676196051E+02  0.00000000000E+00 0.  1.
</event>
<event>
 4    1  0.3048956E+006  0.2068438E+02  0.7546771E-02  0.1523819E+00
         21   -1    0    0  504  501  0.00000000000E+00  0.00000000000E+00  0.28622215595E+03  0.28622215595E+03  0.00000000000E+00 0.  1.
         21   -1    0    0  503  502 -0.00000000000E+00 -0.00000000000E+00 -0.67944715578E+01  0.67944715578E+01  0.00000000000E+00 0.  1.
         21    1    1    2  503  501  0.15258510302E+02 -0.13965007007E+02  0.26910633930E+03  0.26990010264E+03  0.00000000000E+00 0.  1.
         21    1    1    2  504  502 -0.15258510302E+02  0.13965007007E+02  0.10321345099E+02  0.23116524868E+02  0.00000000000E+00 0.  1.
</event>
<event>
 4    1  0.3048956E+006  0.2893177E+02  0.7546771E-02  0.1429112E+00
         21   -1    0    0  503  501  0.00000000000E+00  0.00000000000E+00  0.63708259352E+03  0.63708259352E+03  0.00000000000E+00 0. -1.
         21   -1    0    0  501  502 -0.00000000000E+00 -0.00000000000E+00 -0.20794893089E+02  0.20794893089E+02  0.00000000000E+00 0. -1.
         21    1    1    2  503  504  0.22714372365E+02 -0.17919397482E+02  0.62652144449E+03  0.62718910061E+03  0.00000000000E+00 0. -1.
         21    1    1    2  504  502 -0.22714372365E+02  0.17919397482E+02 -0.10233744056E+02  0.30688386003E+02  0.00000000000E+00 0. -1.
</event>
<event>
 4    1  0.3048956E+006  0.2410582E+02  0.7546771E-02  0.1479060E+00
         21   -1    0    0  503  501  0.00000000000E+00  0.00000000000E+00  0.84583826277E+01  0.84583826277E+01  0.00000000000E+00 0.  1.
         21   -1    0    0  504  502 -0.00000000000E+00 -0.00000000000E+00 -0.69754626454E+02  0.69754626454E+02  0.00000000000E+00 0.  1.
         21    1    1    2  503  502 -0.12010986086E+01 -0.24075880824E+02 -0.35456703201E+02  0.42875033262E+02  0.00000000000E+00 0.  1.
         21    1    1    2  504  501  0.12010986086E+01  0.24075880824E+02 -0.25839540626E+02  0.35337975820E+02  0.00000000000E+00 0.  1.
</event>
<event>
 4    1  0.3048956E+006  0.2034871E+02  0.7546771E-02  0.1528770E+00
         21   -1    0    0  502  501  0.00000000000E+00  0.00000000000E+00  0.15578896400E+02  0.15578896400E+02  0.00000000000E+00 0.  1.
         21   -1    0    0  504  502 -0.00000000000E+00 -0.00000000000E+00 -0.20677868170E+03  0.20677868170E+03  0.00000000000E+00 0.  1.
         21    1    1    2  503  501  0.41380887878E+01  0.19923505730E+02  0.81878805248E+01  0.21934248263E+02  0.00000000000E+00 0.  1.
         21    1    1    2  504  503 -0.41380887878E+01 -0.19923505730E+02 -0.19938766583E+03  0.20042332984E+03  0.00000000000E+00 0.  1.
</event>
<event>
 4    1  0.3048956E+006  0.2153772E+02  0.7546771E-02  0.1511724E+00
         21   -1    0    0  503  501  0.00000000000E+00  0.00000000000E+00  0.46579249240E+03  0.46579249240E+03  0.00000000000E+00 0. -1.
         21   -1    0    0  504  502 -0.00000000000E+00 -0.00000000000E+00 -0.30368937186E+02  0.30368937186E+02  0.00000000000E+00 0.  1.
         21    1    1    2  503  502  0.14672583663E+02 -0.15766692118E+02 -0.26267412583E+02  0.33968371399E+02  0.00000000000E+00 0.  1.
         21    1    1    2  504  501 -0.14672583663E+02  0.15766692118E+02  0.46169096780E+03  0.46219305819E+03  0.00000000000E+00 0. -1.
</event>
<event>
 4    1  0.3048956E+006  0.2542694E+02  0.7546771E-02  0.1464084E+00
         21   -1    0    0  504  501  0.00000000000E+00  0.00000000000E+00  0.18109273965E+02  0.18109273965E+02  0.00000000000E+00 0.  1.
         21   -1    0    0  503  502 -0.00000000000E+00 -0.00000000000E+00 -0.43310393380E+02  0.43310393380E+02  0.00000000000E+00 0.  1.
         21    1    1    2  503  501 -0.13131826741E+02 -0.21773474765E+02 -0.25472405778E+02  0.35991284125E+02  0.00000000000E+00 0.  1.
         21    1    1    2  504  502  0.13131826741E+02  0.21773474765E+02  0.27128636216E+00  0.25428383220E+02  0.00000000000E+00 0.  1.
</event>
<event>
 4    1  0.3048956E+006  0.2230791E+02  0.7546771E-02  0.1501377E+00
         21   -1    0    0  502  501  0.00000000000E+00  0.00000000000E+00  0.66220729089E+01  0.66220729089E+01  0.00000000000E+00 0. -1.
         21   -1    0    0  504  502 -0.00000000000E+00 -0.00000000000E+00 -0.87249020547E+03  0.87249020547E+03  0.00000000000E+00 0. -1.
         21    1    1    2  503  501 -0.66985856343E+01  0.21278432353E+02 -0.12733967170E+02  0.25686507213E+02  0.00000000000E+00 0. -1.
         21    1    1    2  504  503  0.66985856343E+01 -0.21278432353E+02 -0.85313416540E+03  0.85342577117E+03  0.00000000000E+00 0. -1.
</event>
<event>
 4    1  0.3048956E+006  0.2097257E+02  0.7546771E-02  0.1519657E+00
         21   -1    0    0  504  501  0.00000000000E+00  0.00000000000E+00  0.39525103046E+03  0.39525103046E+03  0.00000000000E+00 0. -1.
         21   -1    0    0  503  502 -0.00000000000E+00 -0.00000000000E+00 -0.11438720899E+01  0.11438720899E+01  0.00000000000E+00 0. -1.
         21    1    1    2  503  501  0.16155841462E+02  0.13373008244E+02  0.22970189352E+03  0.23065733990E+03  0.00000000000E+00 0. -1.
         21    1    1    2  504  502 -0.16155841462E+02 -0.13373008244E+02  0.16440526485E+03  0.16573756265E+03  0.00000000000E+00 0. -1.
</event>
<event>
 4    1  0.3048956E+006  0.2169353E+02  0.7546771E-02  0.1509589E+00
         21   -1    0    0  503  501  0.00000000000E+00  0.00000000000E+00  0.36780626705E+02  0.36780626705E+02  0.00000000000E+00 0.  1.
         21   -1    0    0  501  502 -0.00000000000E+00 -0.00000000000E+00 -0.26574903664E+02  0.26574903664E+02  0.00000000000E+00 0.  1.
         21    1    1    2  503  504 -0.57303397815E+01 -0.20923017089E+02  0.27913697997E+02  0.35352283858E+02  0.00000000000E+00 0.  1.
         21    1    1    2  504  502  0.57303397815E+01  0.20923017089E+02 -0.17707974957E+02  0.28003246511E+02  0.00000000000E+00 0.  1.
</event>
<event>
 4    1  0.3048956E+006  0.2224528E+02  0.7546771E-02  0.1502199E+00
         21   -1    0    0  503  501  0.00000000000E+00  0.00000000000E+00  0.32155858882E+02  0.32155858882E+02  0.00000000000E+00 0. -1.
         21   -1    0    0  504  502 -0.00000000000E+00 -0.00000000000E+00 -0.15602291234E+02  0.15602291234E+02  0.00000000000E+00 0. -1.
         21    1    1    2  503  502  0.62597306435E+01 -0.21346383024E+02  0.11067570388E+02  0.24846396323E+02  0.00000000000E+00 0. -1.
         21    1    1    2  504  501 -0.62597306435E+01  0.21346383024E+02  0.54859972602E+01  0.22911753793E+02  0.00000000000E+00 0. -1.
</event>
<event>
 4    1  0.3048956E+006  0.2252405E+02  0.7546771E-02  0.1498563E+00
         21   -1    0    0  504  501  0.00000000000E+00  0.00000000000E+00  0.68774559573E+01  0.68774559573E+01  0.00000000000E+00 0.  1.
         21   -1    0    0  503  502 -0.00000000000E+00 -0.00000000000E+00 -0.12413325377E+03  0.12413325377E+03  0.00000000000E+00 0.  1.
         21    1    1    2  503  501 -0.26824898952E+01  0.22363741937E+02 -0.10035329037E+03  0.10284996643E+03  0.00000000000E+00 0.  1.
         21    1    1    2  504  502  0.26824898952E+01 -0.22363741937E+02 -0.16902507440E+02  0.28160743300E+02  0.00000000000E+00 0.  1.
</event>
<event>
 4    1  0.3048956E+006  0.2171645E+02  0.7546771E-02  0.1509277E+00
         21   -1    0    0  504  501  0.00000000000E+00  0.00000000000E+00  0.39473846803E+02  0.39473846803E+02  0.00000000000E+00 0.  1.
         21   -1    0    0  503  502 -0.00000000000E+00 -0.00000000000E+00 -0.49822315387E+02  0.49822315387E+02  0.00000000000E+00 0.  1.
         21    1    1    2  503  501 -0.21554286178E+02  0.26489908620E+01 -0.44102716357E+02  0.49159475132E+02  0.00000000000E+00 0.  1.
         21    1    1    2  504  502  0.21554286178E+02 -0.26489908620E+01  0.33754247773E+02  0.40136687057E+02  0.00000000000E+00 0.  1.
</event>
<event>
 4    1  0.3048956E+006  0.2178518E+02  0.7546771E-02  0.1508343E+00
         21   -1    0    0  502  501  0.00000000000E+00  0.00000000000E+00  0.35526020302E+03  0.35526020302E+03  0.00000000000E+00 0. -1.
         21   -1    0    0  503  502 -0.00000000000E+00 -0.00000000000E+00 -0.41129407688E+01  0.41129407688E+01  0.00000000000E+00 0. -1.
         21    1    1    2  503  504  0.21461087674E+02 -0.37437839659E+01  0.27924783497E+02  0.35417336657E+02  0.00000000000E+00 0. -1.
         21    1    1    2  504  501 -0.21461087674E+02  0.37437839659E+01  0.32322247876E+03  0.32395580713E+03  0.00000000000E+00 0. -1.
</event>
<event>
 4    1  0.3048956E+006  0.2475199E+02  0.7546771E-02  0.1471597E+00
         21   -1    0    0  504  501  0.00000000000E+00  0.00000000000E+00  0.10907724072E+03  0.10907724072E+03  0.00000000000E+00 0.  1.
         21   -1    0    0  501  502 -0.00000000000E+00 -0.00000000000E+00 -0.16430318730E+02  0.16430318730E+02  0.00000000000E+00 0.  1.
         21    1    1    2  503  502 -0.17280467226E+02  0.17721355749E+02 -0.45863117625E+01  0.25173304366E+02  0.00000000000E+00 0.  1.
         21    1    1    2  504  503  0.17280467226E+02 -0.17721355749E+02  0.97233233755E+02  0.10033425509E+03  0.00000000000E+00 0.  1.
</event>
<event>
 4    1  0.3048956E+006  0.2081257E+02  0.7546771E-02  0.1521958E+00
         21   -1    0    0  503  501  0.00000000000E+00  0.00000000000E+00  0.40588142703E+01  0.40588142703E+01  0.00000000000E+00 0.  1.
         21   -1    0    0  501  502 -0.00000000000E+00 -0.00000000000E+00 -0.60644674923E+03  0.60644674923E+03  0.00000000000E+00 0.  1.
         21    1    1    2  503  504  0.18633002697E+02 -0.92722277974E+01 -0.24098824162E+02  0.31842052757E+02  0.00000000000E+00 0.  1.
         21    1    1    2  504  502 -0.18633002697E+02  0.92722277974E+01 -0.57828911080E+03  0.57866351074E+03  0.00000000000E+00 0.  1.
</event>
<event>
 4    1  0.3048956E+006  0.2369486E+02  0.7546771E-02  0.1483952E+00
         21   -1    0    0  502  501  0.00000000000E+00  0.00000000000E+00  0.24441513196E+03  0.24441513196E+03  0.00000000000E+00 0.  1.
         21   -1    0    0  503  502 -0.00000000000E+00 -0.00000000000E+00 -0.33057655960E+01  0.33057655960E+01  0.00000000000E+00 0. -1.
         21    1    1    2  503  504 -0.15260157564E+02  0.18126611079E+02  0.52136767533E+02  0.57268568752E+02  0.00000000000E+00 0. -1.
         21    1    1    2  504  501  0.15260157564E+02 -0.18126611079E+02  0.18897259883E+03  0.19045232880E+03  0.00000000000E+00 0.  1.
</event>
<event>
 4    1  0.3048956E+006  0.2038195E+02  0.7546771E-02  0.1528275E+00
         21   -1    0    0  503  501  0.00000000000E+00  0.00000000000E+00  0.65389389407E+01  0.65389389407E+01  0.00000000000E+00 0. -1.
         21   -1    0    0  504  502 -0.00000000000E+00 -0.00000000000E+00 -0.28804158836E+03  0.28804158836E+03  0.00000000000E+00 0. -1.
         21    1    1    2  503  502  0.72003115108E+01 -0.19067755733E+02 -0.10714881486E+02  0.23026777452E+02  0.00000000000E+00 0. -1.
         21    1    1    2  504  501 -0.72003115108E+01  0.19067755733E+02 -0.27078776794E+03  0.27155374985E+03  0.00000000000E+00 0. -1.
</event>
<event>
 4    1  0.3048956E+006  0.3919051E+02  0.7546771E-02  0.1353296E+00
         21   -1    0    0  503  501  0.00000000000E+00  0.00000000000E+00  0.27326048321E+03  0.27326048321E+03  0.00000000000E+00 0.  1.
         21   -1    0    0  504  502 -0.00000000000E+00 -0.00000000000E+00 -0.10867398410E+02  0.10867398410E+02  0.00000000000E+00 0.  1.
         21    1    1    2  503  502  0.32431187171E+02  0.22002598071E+02  0.32485216036E+02  0.50903688315E+02  0.00000000000E+00 0.  1.
         21    1    1    2  504  501 -0.32431187171E+02 -0.22002598071E+02  0.22990786876E+03  0.23322419330E+03  0.00000000000E+00 0.  1.
</event>
<event>
 4    1  0.3048956E+006  0.3331533E+02  0.7546771E-02  0.1392810E+00
         21   -1    0    0  503  501  0.00000000000E+00  0.00000000000E+00  0.27780343793E+01  0.27780343793E+01  0.00000000000E+00 0. -1.
         21   -1    0    0  504  502 -0.00000000000E+00 -0.00000000000E+00 -0.14053319701E+04  0.14053319701E+04  0.00000000000E+00 0. -1.
         21    1    1    2  503  502  0.27037812020E+02  0.19464527879E+02 -0.12969022578E+04  0.12973300958E+04  0.00000000000E+00 0. -1.
         21    1    1    2  504  501 -0.27037812020E+02 -0.19464527879E+02 -0.10565167792E+03  0.11077990870E+03  0.00000000000E+00 0. -1.
</event>
<event>
 4    1  0.3048956E+006  0.2549274E+02  0.7546771E-02  0.1463366E+00
         21   -1    0    0  504  501  0.00000000000E+00  0.00000000000E+00  0.38675809338E+02  0.38675809338E+02  0.00000000000E+00 0.  1.
         21   -1    0    0  501  502 -0.00000000000E+00 -0.00000000000E+00 -0.37198194526E+02  0.37198194526E+02  0.00000000000E+00 0.  1.
         21    1    1    2  503  502 -0.90673595135E+01  0.23825679594E+02 -0.27351930075E+02  0.37389946450E+02  0.00000000000E+00 0.  1.
         21    1    1    2  504  503  0.90673595135E+01 -0.23825679594E+02  0.28829544887E+02  0.38484057414E+02  0.00000000000E+00 0.  1.
</event>
<event>
 4    1  0.3048956E+006  0.2455288E+02  0.7546771E-02  0.1473868E+00
         21   -1    0    0  504  501  0.00000000000E+00  0.00000000000E+00  0.12681183531E+01  0.12681183531E+01  0.00000000000E+00 0.  1.
         21   -1    0    0  503  502 -0.00000000000E+00 -0.00000000000E+00 -0.12336204515E+04  0.12336204515E+04  0.00000000000E+00 0.  1.
         21    1    1    2  503  501 -0.57996249757E-01 -0.24552812099E+02 -0.11002472611E+04  0.11005211854E+04  0.00000000000E+00 0.  1.
         21    1    1    2  504  502  0.57996249757E-01  0.24552812099E+02 -0.13210507204E+03  0.13436738445E+03  0.00000000000E+00 0.  1.
</event>
<event>
 4    1  0.3048956E+006  0.4130113E+02  0.7546771E-02  0.1341025E+00
         21   -1    0    0  504  501  0.00000000000E+00  0.00000000000E+00  0.48738440234E+02  0.48738440234E+02  0.00000000000E+00 0.  1.
         21   -1    0    0  501  502 -0.00000000000E+00 -0.00000000000E+00 -0.53284709852E+02  0.53284709852E+02  0.00000000000E+00 0.  1.
         21    1    1    2  503  502 -0.40964000765E+02 -0.52662867682E+01 -0.32156303083E+02  0.52343203599E+02  0.00000000000E+00 0.  1.
         21    1    1    2  504  503  0.40964000765E+02  0.52662867682E+01  0.27610033466E+02  0.49679946487E+02  0.00000000000E+00 0.  1.
</event>
<event>
 4    1  0.3048956E+006  0.2253554E+02  0.7546771E-02  0.1498414E+00
         21   -1    0    0  504  501  0.00000000000E+00  0.00000000000E+00  0.33714253439E+00  0.33714253439E+00  0.00000000000E+00 0.  1.
         21   -1    0    0  503  502 -0.00000000000E+00 -0.00000000000E+00 -0.17576194913E+04  0.17576194913E+04  0.00000000000E+00 0.  1.
         21    1    1    2  503  501  0.21373086606E+02 -0.71443374597E+01 -0.54629050971E+03  0.54675512928E+03  0.00000000000E+00 0.  1.
         21    1    1    2  504  502 -0.21373086606E+02  0.71443374597E+01 -0.12109918390E+04  0.12112015045E+04  0.00000000000E+00 0.  1.
</event>
<event>
 4    1  0.3048956E+006  0.2044651E+02  0.7546771E-02  0.1527316E+00
         21   -1    0    0  503  501  0.00000000000E+00  0.00000000000E+00  0.88588371163E+00  0.88588371163E+00  0.00000000000E+00 0.  1.
         21   -1    0    0  504  502 -0.00000000000E+00 -0.00000000000E+00 -0.15755570281E+04  0.15755570281E+04  0.00000000000E+00 0.  1.
         21    1    1    2  503  502 -0.19707592481E+02 -0.54470689070E+01 -0.12763667271E+03  0.12926399337E+03  0.00000000000E+00 0.  1.
         21    1    1    2  504  501  0.19707592481E+02  0.54470689070E+01 -0.14470344717E+04  0.14471789185E+04  0.00000000000E+00 0.  1.
</event>
<event>
 4    1  0.3048956E+006  0.2243747E+02  0.7546771E-02  0.1499685E+00
         21   -1    0    0  504  501  0.00000000000E+00  0.00000000000E+00  0.31325843954E+02  0.31325843954E+02  0.00000000000E+00 0. -1.
         21   -1    0    0  503  502 -0.00000000000E+00 -0.00000000000E+00 -0.18572869076E+02  0.18572869076E+02  0.00000000000E+00 0. -1.
         21    1    1    2  503  501  0.22087638528E+02 -0.39466677818E+01 -0.27803541325E+01  0.22609076306E+02  0.00000000000E+00 0. -1.
         21    1    1    2  504  502 -0.22087638528E+02  0.39466677818E+01  0.15533329010E+02  0.27289636723E+02  0.00000000000E+00 0. -1.
</event>
<event>
 4    1  0.3048956E+006  0.2253016E+02  0.7546771E-02  0.1498484E+00
         21   -1    0    0  504  501  0.00000000000E+00  0.00000000000E+00  0.43559069425E+01  0.43559069425E+01  0.00000000000E+00 0. -1.
         21   -1    0    0  503  502 -0.00000000000E+00 -0.00000000000E+00 -0.30266027765E+03  0.30266027765E+03  0.00000000000E+00 0. -1.
         21    1    1    2  503  501 -0.21482715306E+02  0.67897799171E+01 -0.28771105304E+02  0.36542915437E+02  0.00000000000E+00 0. -1.
         21    1    1    2  504  502  0.21482715306E+02 -0.67897799171E+01 -0.26953326540E+03  0.27047326915E+03  0.00000000000E+00 0. -1.
</event>
<event>
 4    1  0.3048956E+006  0.5942980E+02  0.7546771E-02  0.1261782E+00
         21   -1    0    0  503  501  0.00000000000E+00  0.00000000000E+00  0.14337571963E+03  0.14337571963E+03  0.00000000000E+00 0. -1.
         21   -1    0    0  504  502 -0.00000000000E+00 -0.00000000000E+00 -0.52369775389E+03  0.52369775389E+03  0.00000000000E+00 0.  1.
         21    1    1    2  503  502 -0.38280722555E+02 -0.45458636652E+02  0.13543672393E+03  0.14790202012E+03  0.00000000000E+00 0. -1.
         21    1    1    2  504  501  0.38280722555E+02  0.45458636652E+02 -0.51575875819E+03  0.51917145339E+03  0.00000000000E+00 0.  1.
</event>
<event>
 4    1  0.3048956E+006  0.5088485E+02  0.7546771E-02  0.1294381E+00
         21   -1    0    0  504  501  0.00000000000E+00  0.00000000000E+00  0.79167148056E+02  0.79167148056E+02  0.00000000000E+00 0.  1.
         21   -1    0    0  503  502 -0.00000000000E+00 -0.00000000000E+00 -0.35109777029E+02  0.35109777029E+02  0.00000000000E+00 0.  1.
         21    1    1    2  503  501  0.45705721723E+02  0.22366380152E+02  0.70790519234E+01  0.51374905698E+02  0.00000000000E+00 0.  1.
         21    1    1    2  504  502 -0.45705721723E+02 -0.22366380152E+02  0.36978319104E+02  0.62902019388E+02  0.00000000000E+00 0.  1.
</event>
<event>
 4    1  0.3048956E+006  0.2250487E+02  0.7546771E-02  0.1498811E+00
         21   -1    0    0  504  501  0.00000000000E+00  0.00000000000E+00  0.83974683152E+01  0.83974683152E+01  0.00000000000E+00 0.  1.
         21   -1    0    0  501  502 -0.00000000000E+00 -0.00000000000E+00 -0.37358891463E+03  0.37358891463E+03  0.00000000000E+00 0.  1.
         21    1    1    2  503  502  0.22197608005E+01  0.22395134509E+02 -0.35749378071E+03  0.35820144142E+03  0.00000000000E+00 0.  1.
         21    1    1    2  504  503 -0.22197608005E+01 -0.22395134509E+02 -0.76976656055E+01  0.23784941528E+02  0.00000000000E+00 0.  1.
</event>
<event>
 4    1  0.3048956E+006  0.5093982E+02  0.7546771E-02  0.1294148E+00
         21   -1    0    0  504  501  0.00000000000E+00  0.00000000000E+00  0.12539629342E+03  0.12539629342E+03  0.00000000000E+00 0.  1.
         21   -1    0    0  501  502 -0.00000000000E+00 -0.00000000000E+00 -0.10374362024E+03  0.10374362024E+03  0.00000000000E+00 0.  1.
         21    1    1    2  503  502 -0.50824676537E+02  0.34230759740E+01 -0.91682348413E+02  0.10488335523E+03  0.00000000000E+00 0.  1.
         21    1    1    2  504  503  0.50824676537E+02 -0.34230759740E+01  0.11333502159E+03  0.12425655843E+03  0.00000000000E+00 0.  1.
</event>
<event>
 4    1  0.3048956E+006  0.3385846E+02  0.7546771E-02  0.1388771E+00
         21   -1    0    0  503  501  0.00000000000E+00  0.00000000000E+00  0.92284997060E+01  0.92284997060E+01  0.00000000000E+00 0.  1.
         21   -1    0    0  504  502 -0.00000000000E+00 -0.00000000000E+00 -0.18124995372E+03  0.18124995372E+03  0.00000000000E+00 0. -1.
         21    1    1    2  503  502 -0.31286303835E+02  0.12944584902E+02 -0.32589274996E+02  0.46994211672E+02  0.00000000000E+00 0.  1.
         21    1    1    2  504  501  0.31286303835E+02 -0.12944584902E+02 -0.13943217902E+03  0.14348424176E+03  0.00000000000E+00 0. -1.
</event>
<event>
 4    1  0.3048956E+006  0.2395182E+02  0.7546771E-02  0.1480880E+00
         21   -1    0    0  502  501  0.00000000000E+00  0.00000000000E+00  0.88478567797E+02  0.88478567797E+02  0.00000000000E+00 0. -1.
         21   -1    0    0  503  502 -0.00000000000E+00 -0.00000000000E+00 -0.75362233260E+01  0.75362233260E+01  0.00000000000E+00 0. -1.
         21    1    1    2  503  504  0.36511324920E+01  0.23671901504E+02  0.22532194395E+02  0.32884486822E+02  0.00000000000E+00 0. -1.
         21    1    1    2  504  501 -0.36511324920E+01 -0.23671901504E+02  0.58410150076E+02  0.63130304301E+02  0.00000000000E+00 0. -1.
</event>
<event>
 4    1  0.3048956E+006  0.2202622E+02  0.7546771E-02  0.1505102E+00
         21   -1    0    0  504  501  0.00000000000E+00  0.00000000000E+00  0.37090012302E+01  0.37090012302E+01  0.00000000000E+00 0. -1.
         21   -1    0    0  503  502 -0.00000000000E+00 -0.00000000000E+00 -0.21617630498E+03  0.21617630498E+03  0.00000000000E+00 0. -1.
         21    1    1    2  503  501 -0.15237685865E+02 -0.15904943301E+02 -0.17532429499E+03  0.17670246944E+03  0.00000000000E+00 0. -1.
         21    1    1    2  504  502  0.15237685865E+02  0.15904943301E+02 -0.37143008762E+02  0.43182836774E+02  0.00000000000E+00 0. -1.
</event>
<event>
 4    1  0.3048956E+006  0.6888745E+02  0.7546771E-02  0.1232299E+00
         21   -1    0    0  504  501  0.00000000000E+00  0.00000000000E+00  0.13238035705E+03  0.13238035705E+03  0.00000000000E+00 0.  1.
         21   -1    0    0  503  502 -0.00000000000E+00 -0.00000000000E+00 -0.53320884579E+02  0.53320884579E+02  0.00000000000E+00 0.  1.
         21    1    1    2  503  501 -0.67643172224E+02 -0.13033869764E+02  0.92682633456E+02  0.11547965645E+03  0.00000000000E+00 0.  1.
         21    1    1    2  504  502  0.67643172224E+02  0.13033869764E+02 -0.13623160987E+02  0.70221585177E+02  0.00000000000E+00 0.  1.
</event>
<event>
 4    1  0.3048956E+006  0.2393960E+02  0.7546771E-02  0.1481025E+00
         21   -1    0    0  503  501  0.00000000000E+00  0.00000000000E+00  0.15585952701E+03  0.15585952701E+03  0.00000000000E+00 0.  1.
         21   -1    0    0  504  502 -0.00000000000E+00 -0.00000000000E+00 -0.45959240389E+01  0.45959240389E+01  0.00000000000E+00 0.  1.
         21    1    1    2  503  502 -0.22400436394E+02 -0.84454127929E+01  0.39759097163E+02  0.46410024296E+02  0.00000000000E+00 0.  1.
         21    1    1    2  504  501  0.22400436394E+02  0.84454127929E+01  0.11150450581E+03  0.11404542676E+03  0.00000000000E+00 0.  1.
</event>
<event>
 4    1  0.3048956E+006  0.6359564E+02  0.7546771E-02  0.1248082E+00
         21   -1    0    0  504  501  0.00000000000E+00  0.00000000000E+00  0.24234087529E+03  0.24234087529E+03  0.00000000000E+00 0. -1.
         21   -1    0    0  501  502 -0.00000000000E+00 -0.00000000000E+00 -0.22139615054E+02  0.22139615054E+02  0.00000000000E+00 0. -1.
         21    1    1    2  503  502 -0.54360896473E+02 -0.33004514716E+02  0.44485354988E+02  0.77610256187E+02  0.00000000000E+00 0. -1.
         21    1    1    2  504  503  0.54360896473E+02  0.33004514716E+02  0.17571590524E+03  0.18687023415E+03  0.00000000000E+00 0. -1.
</event>
<event>
 4    1  0.3048956E+006  0.2793087E+02  0.7546771E-02  0.1438475E+00
         21   -1    0    0  504  501  0.00000000000E+00  0.00000000000E+00  0.95722249956E+03  0.95722249956E+03  0.00000000000E+00 0.  1.
         21   -1    0    0  503  502 -0.00000000000E+00 -0.00000000000E+00 -0.40295201965E+01  0.40295201965E+01  0.00000000000E+00 0.  1.
         21    1    1    2  503  501 -0.25070787690E+02 -0.12312151039E+02  0.47318240799E+02  0.54946786721E+02  0.00000000000E+00 0.  1.
         21    1    1    2  504  502  0.25070787690E+02  0.12312151039E+02  0.90587473856E+03  0.90630523303E+03  0.00000000000E+00 0.  1.
</event>
<event>
 4    1  0.3048956E+006  0.3201691E+02  0.7546771E-02  0.1402843E+00
         21   -1    0    0  504  501  0.00000000000E+00  0.00000000000E+00  0.11368809905E+03  0.11368809905E+03  0.00000000000E+00 0.  1.
         21   -1    0    0  503  502 -0.00000000000E+00 -0.00000000000E+00 -0.12531154201E+03  0.12531154201E+03  0.00000000000E+00 0.  1.
         21    1    1    2  503  501  0.31965172563E+02  0.18194293220E+01  0.10930862517E+03  0.11390108918E+03  0.00000000000E+00 0.  1.
         21    1    1    2  504  502 -0.31965172563E+02 -0.18194293220E+01 -0.12093206813E+03  0.12509855188E+03  0.00000000000E+00 0.  1.
</event>
<event>
 4    1  0.3048956E+006  0.2044660E+02  0.7546771E-02  0.1527315E+00
         21   -1    0    0  504  501  0.00000000000E+00  0.00000000000E+00  0.13474606506E+02  0.13474606506E+02  0.00000000000E+00 0.  1.
         21   -1    0    0  501  502 -0.00000000000E+00 -0.00000000000E+00 -0.62589892310E+02  0.62589892310E+02  0.00000000000E+00 0.  1.
         21    1    1    2  503  502 -0.69301012294E+01 -0.19236349366E+02 -0.51565805175E+02  0.55471575634E+02  0.00000000000E+00 0.  1.
         21    1    1    2  504  503  0.69301012294E+01  0.19236349366E+02  0.24505193714E+01  0.20592923182E+02  0.00000000000E+00 0.  1.
</event>
<event>
 4    1  0.3048956E+006  0.2384841E+02  0.7546771E-02  0.1482111E+00
         21   -1    0    0  504  501  0.00000000000E+00  0.00000000000E+00  0.19518447048E+03  0.19518447048E+03  0.00000000000E+00 0.  1.
         21   -1    0    0  503  502 -0.00000000000E+00 -0.00000000000E+00 -0.29933815010E+02  0.29933815010E+02  0.00000000000E+00 0. -1.
         21    1    1    2  503  501  0.17405905558E+02 -0.16302787564E+02 -0.24315070427E+02  0.34058318816E+02  0.00000000000E+00 0. -1.
         21    1    1    2  504  502 -0.17405905558E+02  0.16302787564E+02  0.18956572589E+03  0.19105996667E+03  0.00000000000E+00 0.  1.
</event>
<event>
 4    1  0.3048956E+006  0.2092574E+02  0.7546771E-02  0.1520328E+00
         21   -1    0    0  504  501  0.00000000000E+00  0.00000000000E+00  0.79834792990E+03  0.79834792990E+03  0.00000000000E+00 0. -1.
         21   -1    0    0  503  502 -0.00000000000E+00 -0.00000000000E+00 -0.14141329306E+01  0.14141329306E+01  0.00000000000E+00 0. -1.
         21    1    1    2  503  501  0.17970651043E+02  0.10721107347E+02  0.85603401618E+02  0.88123940052E+02  0.00000000000E+00 0. -1.
         21    1    1    2  504  502 -0.17970651043E+02 -0.10721107347E+02  0.71133039535E+03  0.71163812278E+03  0.00000000000E+00 0. -1.
</event>
<event>
 4    1  0.3048956E+006  0.2066110E+02  0.7546771E-02  0.1524159E+00
         21   -1    0    0  503  501  0.00000000000E+00  0.00000000000E+00  0.17333320510E+03  0.17333320510E+03  0.00000000000E+00 0.  1.
         21   -1    0    0  504  502 -0.00000000000E+00 -0.00000000000E+00 -0.24864518489E+01  0.24864518489E+01  0.00000000000E+00 0.  1.
         21    1    1    2  503  502  0.13603027099E+02 -0.15551161520E+02  0.76845215711E+02  0.79574293264E+02  0.00000000000E+00 0.  1.
         21    1    1    2  504  501 -0.13603027099E+02  0.15551161520E+02  0.94001537545E+02  0.96245363689E+02  0.00000000000E+00 0.  1.
</event>
<event>
 4    1  0.3048956E+006  0.3469796E+02  0.7546771E-02  0.1382699E+00
         21   -1    0    0  503  501  0.00000000000E+00  0.00000000000E+00  0.31705669850E+03  0.31705669850E+03  0.00000000000E+00 0. -1.
         21   -1    0    0  504  502 -0.00000000000E+00 -0.00000000000E+00 -0.58242404953E+02  0.58242404953E+02  0.00000000000E+00 0. -1.
         21    1    1    2  503  502 -0.92888698814E+00  0.34685519878E+02  0.31083645432E+03  0.31276708499E+03  0.00000000000E+00 0. -1.
         21    1    1    2  504  501  0.92888698814E+00 -0.34685519878E+02 -0.52022160778E+02  0.62532018456E+02  0.00000000000E+00 0. -1.
</event>
<event>
 4    1  0.3048956E+006  0.2427565E+02  0.7546771E-02  0.1477072E+00
         21   -1    0    0  504  501  0.00000000000E+00  0.00000000000E+00  0.27775392630E+01  0.27775392630E+01  0.00000000000E+00 0.  1.
         21   -1    0    0  503  502 -0.00000000000E+00 -0.00000000000E+00 -0.46751172685E+03  0.46751172685E+03  0.00000000000E+00 0.  1.
         21    1    1    2  503  501  0.16756531066E+02 -0.17564904436E+02 -0.58586721375E+02  0.63416962420E+02  0.00000000000E+00 0.  1.
         21    1    1    2  504  502 -0.16756531066E+02  0.17564904436E+02 -0.40614746621E+03  0.40687230369E+03  0.00000000000E+00 0.  1.
</event>
<event>
 4    1  0.3048956E+006  0.2998118E+02  0.7546771E-02  0.1419760E+00
         21   -1    0    0  504  501  0.00000000000E+00  0.00000000000E+00  0.70687086595E+01  0.70687086595E+01  0.00000000000E+00 0. -1.
         21   -1    0    0  503  502 -0.00000000000E+00 -0.00000000000E+00 -0.13111704317E+03  0.13111704317E+03  0.00000000000E+00 0. -1.
         21    1    1    2  503  501  0.27052069695E+02 -0.12925042579E+02 -0.74024098783E+02  0.79865126314E+02  0.00000000000E+00 0. -1.
         21    1    1    2  504  502 -0.27052069695E+02  0.12925042579E+02 -0.50024235727E+02  0.58320625515E+02  0.00000000000E+00 0. -1.
</event>
<event>
 4    1  0.3048956E+006  0.3379600E+02  0.7546771E-02  0.1389231E+00
         21   -1    0    0  504  501  0.00000000000E+00  0.00000000000E+00  0.77832766460E+01  0.77832766460E+01  0.00000000000E+00 0. -1.
         21   -1    0    0  503  502 -0.00000000000E+00 -0.00000000000E+00 -0.71355415430E+03  0.71355415430E+03  0.00000000000E+00 0.  1.
         21    1    1    2  503  501  0.63920883474E+01 -0.33186002647E+02 -0.31435898058E+02  0.46156096584E+02  0.00000000000E+00 0. -1.
         21    1    1    2  504  502 -0.63920883474E+01  0.33186002647E+02 -0.67433497959E+03  0.67518133436E+03  0.00000000000E+00 0.  1.
</event>
<event>
 4    1  0.3048956E+006  0.3282368E+02  0.7546771E-02  0.1396545E+00
         21   -1    0    0  504  501  0.00000000000E+00  0.00000000000E+00  0.18597430062E+03  0.18597430062E+03  0.00000000000E+00 0.  1.
         21   -1    0    0  501  502 -0.00000000000E+00 -0.00000000000E+00 -0.64754439992E+01  0.64754439992E+01  0.00000000000E+00 0.  1.
         21    1    1    2  503  502 -0.66400635934E+01 -0.32145037127E+02  0.58516728401E+02  0.67093974090E+02  0.00000000000E+00 0.  1.
         21    1    1    2  504  503  0.66400635934E+01  0.32145037127E+02  0.12098212822E+03  0.12535577053E+03  0.00000000000E+00 0.  1.
</event>
<event>
 4    1  0.3048956E+006  0.2144574E+02  0.7546771E-02  0.1512995E+00
         21   -1    0    0  503  501  0.00000000000E+00  0.00000000000E+00  0.37956252517E+03  0.37956252517E+03  0.00000000000E+00 0.  1.
         21   -1    0    0  504  502 -0.00000000000E+00 -0.00000000000E+00 -0.32374487160E+01  0.32374487160E+01  0.00000000000E+00 0.  1.
         21    1    1    2  503  502  0.49573487320E+01  0.20864904984E+02  0.36760330143E+02  0.42558682295E+02  0.00000000000E+00 0.  1.
         21    1    1    2  504  501 -0.49573487320E+01 -0.20864904984E+02  0.33956474631E+03  0.34024129159E+03  0.00000000000E+00 0.  1.
</event>
<event>
 4    1  0.3048956E+006  0.2759951E+02  0.7546771E-02  0.1441677E+00
         21   -1    0    0  503  501  0.00000000000E+00  0.00000000000E+00  0.10380799175E+03  0.10380799175E+03  0.00000000000E+00 0. -1.
         21   -1    0    0  504  502 -0.00000000000E+00 -0.00000000000E+00 -0.43284538660E+02  0.43284538660E+02  0.00000000000E+00 0. -1.
         21    1    1    2  503  502  0.88299464941E+01  0.26148900179E+02 -0.36761194878E+02  0.45968667422E+02  0.00000000000E+00 0. -1.
         21    1    1    2  504  501 -0.88299464941E+01 -0.26148900179E+02  0.97284647970E+02  0.10112386299E+03  0.00000000000E+00 0. -1.
</event>
<event>
 4    1  0.3048956E+006  0.3876700E+02  0.7546771E-02  0.1355867E+00
         21   -1    0    0  502  501  0.00000000000E+00  0.00000000000E+00  0.28165124017E+01  0.28165124017E+01  0.00000000000E+00 0.  1.
         21   -1    0    0  503  502 -0.00000000000E+00 -0.00000000000E+00 -0.53540991899E+03  0.53540991899E+03  0.00000000000E+00 0.  1.
         21    1    1    2  503  504 -0.32817560193E+02  0.20637045551E+02 -0.25063300923E+03  0.25361345631E+03  0.00000000000E+00 0.  1.
         21    1    1    2  504  501  0.32817560193E+02 -0.20637045551E+02 -0.28196039736E+03  0.28461297508E+03  0.00000000000E+00 0.  1.
</event>
<event>
 4    1  0.3048956E+006  0.3063648E+02  0.7546771E-02  0.1414145E+00
         21   -1    0    0  504  501  0.00000000000E+00  0.00000000000E+00  0.33770471254E+03  0.33770471254E+03  0.00000000000E+00 0. -1.
         21   -1    0    0  501  502 -0.00000000000E+00 -0.00000000000E+00 -0.62681018737E+01  0.62681018737E+01  0.00000000000E+00 0. -1.
         21    1    1    2  503  502 -0.24365298429E+02 -0.18572191501E+02  0.37407815987E+02  0.48352236366E+02  0.00000000000E+00 0. -1.
         21    1    1    2  504  503  0.24365298429E+02  0.18572191501E+02  0.29402879468E+03  0.29562057805E+03  0.00000000000E+00 0. -1.
</event>
<event>
 4    1  0.3048956E+006  0.2123374E+02  0.7546771E-02  0.1515954E+00
         21   -1    0    0  503  501  0.00000000000E+00  0.00000000000E+00  0.68375419013E+01  0.68375419013E+01  0.00000000000E+00 0. -1.
         21   -1    0    0  501  502 -0.00000000000E+00 -0.00000000000E+00 -0.67178335567E+02  0.67178335567E+02  0.00000000000E+00 0. -1.
         21    1    1    2  503  504  0.81266604140E+01 -0.19617065970E+02 -0.25147118388E+02  0.32912755126E+02  0.00000000000E+00 0. -1.
         21    1    1    2  504  502 -0.81266604140E+01  0.19617065970E+02 -0.35193675278E+02  0.41103122343E+02  0.00000000000E+00 0. -1.
</event>
<event>
 4    1  0.3048956E+006  0.3308000E+02  0.7546771E-02  0.1394588E+00
         21   -1    0    0  504  501  0.00000000000E+00  0.00000000000E+00  0.53527409923E+03  0.53527409923E+03  0.00000000000E+00 0.  1.
         21   -1    0    0  501  502 -0.00000000000E+00 -0.00000000000E+00 -0.16113004641E+02  0.16113004641E+02  0.00000000000E+00 0.  1.
         21    1    1    2  503  502  0.32525521751E+01 -0.32919713273E+02  0.19693978498E+01  0.33138574887E+02  0.00000000000E+00 0.  1.
         21    1    1    2  504  503 -0.32525521751E+01  0.32919713273E+02  0.51719169674E+03  0.51824852898E+03  0.00000000000E+00 0.  1.
</event>
<event>
 4    1  0.3048956E+006  0.2629555E+02  0.7546771E-02  0.1454816E+00
         21   -1    0    0  503  501  0.00000000000E+00  0.00000000000E+00  0.25441731333E+02  0.25441731333E+02  0.00000000000E+00 0. -1.
         21   -1    0    0  504  502 -0.00000000000E+00 -0.00000000000E+00 -0.56441000186E+02  0.56441000186E+02  0.00000000000E+00 0. -1.
         21    1    1    2  503  502 -0.25394181048E+02  0.68258128501E+01 -0.44979410047E+02  0.52101856784E+02  0.00000000000E+00 0. -1.
         21    1    1    2  504  501  0.25394181048E+02 -0.68258128501E+01  0.13980141194E+02  0.29780874735E+02  0.00000000000E+00 0. -1.
</event>
<event>
 4    1  0.3048956E+006  0.2695428E+02  0.7546771E-02  0.1448068E+00
         21   -1    0    0  502  501  0.00000000000E+00  0.00000000000E+00  0.63045893656E+01  0.63045893656E+01  0.00000000000E+00 0. -1.
         21   -1    0    0  503  502 -0.00000000000E+00 -0.00000000000E+00 -0.19510919433E+03  0.19510919433E+03  0.00000000000E+00 0. -1.
         21    1    1    2  503  504  0.11099484242E+02  0.24562867515E+02 -0.15883604675E+03  0.16110686751E+03  0.00000000000E+00 0. -1.
         21    1    1    2  504  501 -0.11099484242E+02 -0.24562867515E+02 -0.29968558207E+02  0.40306916181E+02  0.00000000000E+00 0. -1.
</event>
<event>
 4    1  0.3048956E+006  0.2050681E+02  0.7546771E-02  0.1526424E+00
         21   -1    0    0  503  501  0.00000000000E+00  0.00000000000E+00  0.20824912608E+02  0.20824912608E+02  0.00000000000E+00 0. -1.
         21   -1    0    0  504  502 -0.00000000000E+00 -0.00000000000E+00 -0.23451650909E+02  0.23451650909E+02  0.00000000000E+00 0.  1.
         21    1    1    2  503  502 -0.30543546393E+01 -0.20278068438E+02  0.69382416634E+01  0.21648749138E+02  0.00000000000E+00 0.  1.
         21    1    1    2  504  501  0.30543546393E+01  0.20278068438E+02 -0.95649799647E+01  0.22627814379E+02  0.00000000000E+00 0. -1.
</event>
<event>
 4    1  0.3048956E+006  0.2103105E+02  0.7546771E-02  0.1518822E+00
         21   -1    0    0  503  501  0.00000000000E+00  0.00000000000E+00  0.11632156408E+04  0.11632156408E+04  0.00000000000E+00 0.  1.
         21   -1    0    0  501  502 -0.00000000000E+00 -0.00000000000E+00 -0.88699683268E+01  0.88699683268E+01  0.00000000000E+00 0. -1.
         21    1    1    2  503  504  0.47135101421E+01  0.20496047395E+02  0.11505166245E+04  0.11507088286E+04  0.00000000000E+00 0.  1.
         21    1    1    2  504  502 -0.47135101421E+01 -0.20496047395E+02  0.38290480455E+01  0.21376780525E+02  0.00000000000E+00 0. -1.
</event>
<event>
 4    1  0.3048956E+006  0.4189917E+02  0.7546771E-02  0.1337702E+00
         21   -1    0    0  503  501  0.00000000000E+00  0.00000000000E+00  0.27718887463E+03  0.27718887463E+03  0.00000000000E+00 0.  1.
         21   -1    0    0  501  502 -0.00000000000E+00 -0.00000000000E+00 -0.25255228711E+02  0.25255228711E+02  0.00000000000E+00 0.  1.
         21    1    1    2  503  504 -0.23881655526E+02 -0.34426836376E+02  0.25686130421E+03  0.26025616253E+03  0.00000000000E+00 0.  1.
         21    1    1    2  504  502  0.23881655526E+02  0.34426836376E+02 -0.49276582941E+01  0.42187940810E+02  0.00000000000E+00 0.  1.
</event>
<event>
 4    1  0.3048956E+006  0.3015188E+02  0.7546771E-02  0.1418281E+00
         21   -1    0    0  503  501  0.00000000000E+00  0.00000000000E+00  0.51703554405E+02  0.51703554405E+02  0.00000000000E+00 0.  1.
         21   -1    0    0  504  502 -0.00000000000E+00 -0.00000000000E+00 -0.22451891735E+02  0.22451891735E+02  0.00000000000E+00 0.  1.
         21    1    1    2  503  502 -0.29757598385E+02 -0.48601924860E+01  0.31891109468E+02  0.43888255784E+02  0.00000000000E+00 0.  1.
         21    1    1    2  504  501  0.29757598385E+02  0.48601924860E+01 -0.26394467991E+01  0.30267190356E+02  0.00000000000E+00 0.  1.
</event>
<event>
 4    1  0.3048956E+006  0.2942549E+02  0.7546771E-02  0.1424656E+00
         21   -1    0    0  504  501  0.00000000000E+00  0.00000000000E+00  0.30515601937E+02  0.30515601937E+02  0.00000000000E+00 0. -1.
         21   -1    0    0  503  502 -0.00000000000E+00 -0.00000000000E+00 -0.38941022926E+02  0.38941022926E+02  0.00000000000E+00 0. -1.
         21    1    1    2  503  501  0.94683275471E+01  0.27860552209E+02 -0.22303172392E+02  0.36922772034E+02  0.00000000000E+00 0. -1.
         21    1    1    2  504  502 -0.94683275471E+01 -0.27860552209E+02  0.13877751403E+02  0.32533852829E+02  0.00000000000E+00 0. -1.
</event>
<event>
 4    1  0.3048956E+006  0.2313283E+02  0.7546771E-02  0.1490837E+00
         21   -1    0    0  503  501  0.00000000000E+00  0.00000000000E+00  0.35778509126E+01  0.35778509126E+01  0.00000000000E+00 0. -1.
         21   -1    0    0  504  502 -0.00000000000E+00 -0.00000000000E+00 -0.15088480275E+03  0.15088480275E+03  0.00000000000E+00 0. -1.
         21    1    1    2  503  502  0.18170436908E+02 -0.14316525278E+02 -0.66435246622E+02  0.70347492260E+02  0.00000000000E+00 0. -1.
         21    1    1    2  504  501 -0.18170436908E+02  0.14316525278E+02 -0.80871705218E+02  0.84115161406E+02  0.00000000000E+00 0. -1.
</event>
<event>
 4    1  0.3048956E+006  0.3987157E+02  0.7546771E-02  0.1349240E+00
         21   -1    0    0  503  501  0.00000000000E+00  0.00000000000E+00  0.36957075055E+02  0.36957075055E+02  0.00000000000E+00 0. -1.
         21   -1    0    0  501  502 -0.00000000000E+00 -0.00000000000E+00 -0.28512276088E+03  0.28512276088E+03  0.00000000000E+00 0. -1.
         21    1    1    2  503  504 -0.27173193813E+02  0.29178061327E+02  0.24312799456E+02  0.46699613940E+02  0.00000000000E+00 0. -1.
         21    1    1    2  504  502  0.27173193813E+02 -0.29178061327E+02 -0.27247848528E+03  0.27538022200E+03  0.00000000000E+00 0. -1.
</event>
<event>
 4    1  0.3048956E+006  0.4597497E+02  0.7546771E-02  0.1316635E+00
         21   -1    0    0  502  501  0.00000000000E+00  0.00000000000E+00  0.28455633931E+02  0.28455633931E+02  0.00000000000E+00 0.  1.
         21   -1    0    0  504  502 -0.00000000000E+00 -0.00000000000E+00 -0.26103199904E+03  0.26103199904E+03  0.00000000000E+00 0.  1.
         21    1    1    2  503  501 -0.44565057635E+02 -0.11298382582E+02  0.61410790460E+01  0.46383301552E+02  0.00000000000E+00 0.  1.
         21    1    1    2  504  503  0.44565057635E+02  0.11298382582E+02 -0.23871744416E+03  0.24310433142E+03  0.00000000000E+00 0.  1.
</event>
<event>
 4    1  0.3048956E+006  0.3087217E+02  0.7546771E-02  0.1412165E+00
         21   -1    0    0  502  501  0.00000000000E+00  0.00000000000E+00  0.14542931769E+03  0.14542931769E+03  0.00000000000E+00 0.  1.
         21   -1    0    0  504  502 -0.00000000000E+00 -0.00000000000E+00 -0.24682744911E+02  0.24682744911E+02  0.00000000000E+00 0.  1.
         21    1    1    2  503  501 -0.24773771748E+02  0.18421486982E+02  0.13326809583E+03  0.13679720872E+03  0.00000000000E+00 0.  1.
         21    1    1    2  504  503  0.24773771748E+02 -0.18421486982E+02 -0.12521523050E+02  0.33314853875E+02  0.00000000000E+00 0.  1.
</event>
<event>
 4    1  0.3048956E+006  0.4223340E+02  0.7546771E-02  0.1335873E+00
         21   -1    0    0  504  501  0.00000000000E+00  0.00000000000E+00  0.61608663476E+01  0.61608663476E+01  0.00000000000E+00 0.  1.
         21   -1    0    0  501  502 -0.00000000000E+00 -0.00000000000E+00 -0.55909590748E+03  0.55909590748E+03  0.00000000000E+00 0.  1.
         21    1    1    2  503  502  0.14536876930E+02  0.39652736272E+02 -0.47272109366E+03  0.47460393243E+03  0.00000000000E+00 0.  1.
         21    1    1    2  504  503 -0.14536876930E+02 -0.39652736272E+02 -0.80213947470E+02  0.90652841397E+02  0.00000000000E+00 0.  1.
</event>
<event>
 4    1  0.3048956E+006  0.2578964E+02  0.7546771E-02  0.1460160E+00
         21   -1    0    0  502  501  0.00000000000E+00  0.00000000000E+00  0.10580735945E+03  0.10580735945E+03  0.00000000000E+00 0. -1.
         21   -1    0    0  504  502 -0.00000000000E+00 -0.00000000000E+00 -0.14358751970E+02  0.14358751970E+02  0.00000000000E+00 0.  1.
         21    1    1    2  503  501 -0.16732835354E+01 -0.25735298300E+02  0.90775296884E+02  0.94367685044E+02  0.00000000000E+00 0. -1.
         21    1    1    2  504  503  0.16732835354E+01  0.25735298300E+02  0.67331059864E+00  0.25798426377E+02  0.00000000000E+00 0.  1.
</event>
<event>
 4    1  0.3048956E+006  0.2376064E+02  0.7546771E-02  0.1483161E+00
         21   -1    0    0  503  501  0.00000000000E+00  0.00000000000E+00  0.27690103968E+03  0.27690103968E+03  0.00000000000E+00 0. -1.
         21   -1    0    0  504  502 -0.00000000000E+00 -0.00000000000E+00 -0.26136620413E+03  0.26136620413E+03  0.00000000000E+00 0. -1.
         21    1    1    2  503  502  0.22208542650E+02 -0.84468086991E+01 -0.26031441273E+03  0.26139655969E+03  0.00000000000E+00 0. -1.
         21    1    1    2  504  501 -0.22208542650E+02  0.84468086991E+01  0.27584924828E+03  0.27687068411E+03  0.00000000000E+00 0. -1.
</event>
<event>
 4    1  0.3048956E+006  0.2034440E+02  0.7546771E-02  0.1528834E+00
         21   -1    0    0  503  501  0.00000000000E+00  0.00000000000E+00  0.35195036214E+03  0.35195036214E+03  0.00000000000E+00 0.  1.
         21   -1    0    0  501  502 -0.00000000000E+00 -0.00000000000E+00 -0.16239666036E+02  0.16239666036E+02  0.00000000000E+00 0. -1.
         21    1    1    2  503  504  0.18166818862E+02 -0.91575809434E+01  0.34515944838E+03  0.34575849867E+03  0.00000000000E+00 0.  1.
         21    1    1    2  504  502 -0.18166818862E+02  0.91575809434E+01 -0.94487522785E+01  0.22431529505E+02  0.00000000000E+00 0. -1.
</event>
<event>
 4    1  0.3048956E+006  0.2943573E+02  0.7546771E-02  0.1424564E+00
         21   -1    0    0  503  501  0.00000000000E+00  0.00000000000E+00  0.60578682304E+02  0.60578682304E+02  0.00000000000E+00 0. -1.
         21   -1    0    0  504  502 -0.00000000000E+00 -0.00000000000E+00 -0.10371829476E+03  0.10371829476E+03  0.00000000000E+00 0.  1.
         21    1    1    2  503  502  0.27148875853E+02  0.11375437126E+02 -0.97843994342E+02  0.10217587415E+03  0.00000000000E+00 0.  1.
         21    1    1    2  504  501 -0.27148875853E+02 -0.11375437126E+02  0.54704381885E+02  0.62121102914E+02  0.00000000000E+00 0. -1.
</event>
<event>
 4    1  0.3048956E+006  0.2437951E+02  0.7546771E-02  0.1475866E+00
         21   -1    0    0  503  501  0.00000000000E+00  0.00000000000E+00  0.77637225077E+03  0.77637225077E+03  0.00000000000E+00 0.  1.
         21   -1    0    0  504  502 -0.00000000000E+00 -0.00000000000E+00 -0.81130931424E+00  0.81130931424E+00  0.00000000000E+00 0.  1.
         21    1    1    2  503  502  0.36722173574E+01 -0.24101351688E+02  0.48005627167E+03  0.48067492581E+03  0.00000000000E+00 0.  1.
         21    1    1    2  504  501 -0.36722173574E+01  0.24101351688E+02  0.29550466979E+03  0.29650863428E+03  0.00000000000E+00 0.  1.
</event>
<event>
 4    1  0.3048956E+006  0.2001854E+02  0.7546771E-02  0.1533752E+00
         21   -1    0    0  504  501  0.00000000000E+00  0.00000000000E+00  0.11780488024E+03  0.11780488024E+03  0.00000000000E+00 0. -1.
         21   -1    0    0  503  502 -0.00000000000E+00 -0.00000000000E+00 -0.56336628380E+01  0.56336628380E+01  0.00000000000E+00 0. -1.
         21    1    1    2  503  501 -0.33933605813E+01  0.19728841447E+02  0.17237978185E+02  0.26417607249E+02  0.00000000000E+00 0. -1.
         21    1    1    2  504  502  0.33933605813E+01 -0.19728841447E+02  0.94933239219E+02  0.97020935830E+02  0.00000000000E+00 0. -1.
</event>
<event>
 4    1  0.3048956E+006  0.2167770E+02  0.7546771E-02  0.1509805E+00
         21   -1    0    0  502  501  0.00000000000E+00  0.00000000000E+00  0.27416218939E+01  0.27416218939E+01  0.00000000000E+00 0.  1.
         21   -1    0    0  503  502 -0.00000000000E+00 -0.00000000000E+00 -0.17742111688E+03  0.17742111688E+03  0.00000000000E+00 0.  1.
         21    1    1    2  503  504  0.19062584902E+02 -0.10321857267E+02 -0.10393003478E+03  0.10616673212E+03  0.00000000000E+00 0.  1.
         21    1    1    2  504  501 -0.19062584902E+02  0.10321857267E+02 -0.70749460205E+02  0.73996006648E+02  0.00000000000E+00 0.  1.
</event>
<event>
 4    1  0.3048956E+006  0.2301169E+02  0.7546771E-02  0.1492351E+00
         21   -1    0    0  504  501  0.00000000000E+00  0.00000000000E+00  0.68540701858E+02  0.68540701858E+02  0.00000000000E+00 0.  1.
         21   -1    0    0  503  502 -0.00000000000E+00 -0.00000000000E+00 -0.11741605352E+02  0.11741605352E+02  0.00000000000E+00 0.  1.
         21    1    1    2  503  501  0.20601391767E+02 -0.10252825020E+02  0.49244350045E+01  0.23532696907E+02  0.00000000000E+00 0.  1.
         21    1    1    2  504  502 -0.20601391767E+02  0.10252825020E+02  0.51874661502E+02  0.56749610303E+02  0.00000000000E+00 0.  1.
</event>
<event>
 4    1  0.3048956E+006  0.2115374E+02  0.7546771E-02  0.1517081E+00
         21   -1    0    0  503  501  0.00000000000E+00  0.00000000000E+00  0.56753730435E+03  0.56753730435E+03  0.00000000000E+00 0. -1.
         21   -1    0    0  504  502 -0.00000000000E+00 -0.00000000000E+00 -0.12767193099E+02  0.12767193099E+02  0.00000000000E+00 0.  1.
         21    1    1    2  503  502 -0.24836703934E+01  0.21007430967E+02 -0.36649909040E+01  0.21468882896E+02  0.00000000000E+00 0.  1.
         21    1    1    2  504  501  0.24836703934E+01 -0.21007430967E+02  0.55843510215E+03  0.55883561455E+03  0.00000000000E+00 0. -1.
</event>
<event>
 4    1  0.3048956E+006  0.2745369E+02  0.7546771E-02  0.1443103E+00
         21   -1    0    0  502  501  0.00000000000E+00  0.00000000000E+00  0.56465266703E+03  0.56465266703E+03  0.00000000000E+00 0. -1.
         21   -1    0    0  503  502 -0.00000000000E+00 -0.00000000000E+00 -0.11127256463E+02  0.11127256463E+02  0.00000000000E+00 0. -1.
         21    1    1    2  503  504  0.27201100971E+02  0.37155621474E+01  0.66916594951E+01  0.28257452166E+02  0.00000000000E+00 0. -1.
         21    1    1    2  504  501 -0.27201100971E+02 -0.37155621474E+01  0.54683375108E+03  0.54752247133E+03  0.00000000000E+00 0. -1.
</event>
<event>
 4    1  0.3048956E+006  0.2195999E+02  0.7546771E-02  0.1505987E+00
         21   -1    0    0  504  501  0.00000000000E+00  0.00000000000E+00  0.28460566082E+03  0.28460566082E+03  0.00000000000E+00 0.  1.
         21   -1    0    0  501  502 -0.00000000000E+00 -0.00000000000E+00 -0.59248749775E+02  0.59248749775E+02  0.00000000000E+00 0.  1.
         21    1    1    2  503  502  0.16393725784E+02  0.14611189977E+02 -0.56772496918E+02  0.60871647948E+02  0.00000000000E+00 0.  1.
         21    1    1    2  504  503 -0.16393725784E+02 -0.14611189977E+02  0.28212940796E+03  0.28298276265E+03  0.00000000000E+00 0.  1.
</event>
<event>
 4    1  0.3048956E+006  0.2448883E+02  0.7546771E-02  0.1474604E+00
         21   -1    0    0  503  501  0.00000000000E+00  0.00000000000E+00  0.71649776932E+01  0.71649776932E+01  0.00000000000E+00 0. -1.
         21   -1    0    0  504  502 -0.00000000000E+00 -0.00000000000E+00 -0.98695977977E+02  0.98695977977E+02  0.00000000000E+00 0. -1.
         21    1    1    2  503  502 -0.17838928625E+02  0.16777233782E+02 -0.66398148349E+02  0.70770170638E+02  0.00000000000E+00 0. -1.
         21    1    1    2  504  501  0.17838928625E+02 -0.16777233782E+02 -0.25132851935E+02  0.35090785033E+02  0.00000000000E+00 0. -1.
</event>
<event>
 4    1  0.3048956E+006  0.2712063E+02  0.7546771E-02  0.1446400E+00
         21   -1    0    0  503  501  0.00000000000E+00  0.00000000000E+00  0.37223185839E+02  0.37223185839E+02  0.00000000000E+00 0.  1.
         21   -1    0    0  504  502 -0.00000000000E+00 -0.00000000000E+00 -0.39328901875E+02  0.39328901875E+02  0.00000000000E+00 0. -1.
         21    1    1    2  503  502  0.77333305105E+01 -0.25994695086E+02  0.25946586662E+02  0.37533370922E+02  0.00000000000E+00 0.  1.
         21    1    1    2  504  501 -0.77333305105E+01  0.25994695086E+02 -0.28052302698E+02  0.39018716792E+02  0.00000000000E+00 0. -1.
</event>
<event>
 4    1  0.3048956E+006  0.2344737E+02  0.7546771E-02  0.1486956E+00
         21   -1    0    0  503  501  0.00000000000E+00  0.00000000000E+00  0.19961656117E+03  0.19961656117E+03  0.00000000000E+00 0. -1.
         21   -1    0    0  501  502 -0.00000000000E+00 -0.00000000000E+00 -0.77058820268E+01  0.77058820268E+01  0.00000000000E+00 0.  1.
         21    1    1    2  503  504  0.51457758067E+01  0.22875750544E+02  0.17905181603E+03  0.18058054102E+03  0.00000000000E+00 0. -1.
         21    1    1    2  504  502 -0.51457758067E+01 -0.22875750544E+02  0.12858863118E+02  0.26741902181E+02  0.00000000000E+00 0.  1.
</event>
<event>
 4    1  0.3048956E+006  0.2596615E+02  0.7546771E-02  0.1458279E+00
         21   -1    0    0  502  501  0.00000000000E+00  0.00000000000E+00  0.34578388850E+00  0.34578388850E+00  0.00000000000E+00 0. -1.
         21   -1    0    0  504  502 -0.00000000000E+00 -0.00000000000E+00 -0.22215756835E+04  0.22215756835E+04  0.00000000000E+00 0. -1.
         21    1    1    2  503  501  0.93349863079E+01  0.24230125065E+02 -0.72210634438E+03  0.72257305065E+03  0.00000000000E+00 0. -1.
         21    1    1    2  504  503 -0.93349863079E+01 -0.24230125065E+02 -0.14991235552E+04  0.14993484167E+04  0.00000000000E+00 0. -1.
</event>
<event>
 4    1  0.3048956E+006  0.2156621E+02  0.7546771E-02  0.1511332E+00
         21   -1    0    0  504  501  0.00000000000E+00  0.00000000000E+00  0.79747053121E+02  0.79747053121E+02  0.00000000000E+00 0. -1.
         21   -1    0    0  501  502 -0.00000000000E+00 -0.00000000000E+00 -0.20753045932E+02  0.20753045932E+02  0.00000000000E+00 0.  1.
         21    1    1    2  503  502  0.14689325966E+02  0.15790029453E+02 -0.13111098580E+02  0.25238903174E+02  0.00000000000E+00 0.  1.
         21    1    1    2  504  503 -0.14689325966E+02 -0.15790029453E+02  0.72105105768E+02  0.75261195880E+02  0.00000000000E+00 0. -1.
</event>
<event>
 4    1  0.3048956E+006  0.2105542E+02  0.7546771E-02  0.1518475E+00
         21   -1    0    0  504  501  0.00000000000E+00  0.00000000000E+00  0.28812334072E+01  0.28812334072E+01  0.00000000000E+00 0.  1.
         21   -1    0    0  501  502 -0.00000000000E+00 -0.00000000000E+00 -0.16809464580E+03  0.16809464580E+03  0.00000000000E+00 0.  1.
         21    1    1    2  503  502 -0.85042631237E+01  0.19261572137E+02 -0.10747658734E+03  0.10951962143E+03  0.00000000000E+00 0.  1.
         21    1    1    2  504  503  0.85042631237E+01 -0.19261572137E+02 -0.57736825047E+02  0.61456257769E+02  0.00000000000E+00 0.  1.
</event>
<event>
 4    1  0.3048956E+006  0.2391168E+02  0.7546771E-02  0.1481357E+00
         21   -1    0    0  503  501  0.00000000000E+00  0.00000000000E+00  0.89214623335E+00  0.89214623335E+00  0.00000000000E+00 0.  1.
         21   -1    0    0  504  502 -0.00000000000E+00 -0.00000000000E+00 -0.70379130135E+03  0.70379130135E+03  0.00000000000E+00 0.  1.
         21    1    1    2  503  502  0.14680271581E+02 -0.18874802800E+02 -0.24611565739E+03  0.24727451419E+03  0.00000000000E+00 0.  1.
         21    1    1    2  504  501 -0.14680271581E+02  0.18874802800E+02 -0.45678349773E+03  0.45740893340E+03  0.00000000000E+00 0.  1.
</event>
<event>
 4    1  0.3048956E+006  0.2521017E+02  0.7546771E-02  0.1466466E+00
         21   -1    0    0  504  501  0.00000000000E+00  0.00000000000E+00  0.32508797050E+02  0.32508797050E+02  0.00000000000E+00 0. -1.
         21   -1    0    0  503  502 -0.00000000000E+00 -0.00000000000E+00 -0.36212021253E+02  0.36212021253E+02  0.00000000000E+00 0.  1.
         21    1    1    2  503  501  0.10673219855E+02  0.22839335261E+02  0.21455766464E+02  0.33104422239E+02  0.00000000000E+00 0. -1.
         21    1    1    2  504  502 -0.10673219855E+02 -0.22839335261E+02 -0.25158990666E+02  0.35616396064E+02  0.00000000000E+00 0.  1.
</event>
<event>
 4    1  0.3048956E+006  0.2743423E+02  0.7546771E-02  0.1443294E+00
         21   -1    0    0  504  501  0.00000000000E+00  0.00000000000E+00  0.22930706069E+02  0.22930706069E+02  0.00000000000E+00 0.  1.
         21   -1    0    0  503  502 -0.00000000000E+00 -0.00000000000E+00 -0.23342485036E+03  0.23342485036E+03  0.00000000000E+00 0. -1.
         21    1    1    2  503  501  0.21882161036E+00 -0.27433353138E+02 -0.22407198469E+03  0.22574519058E+03  0.00000000000E+00 0. -1.
         21    1    1    2  504  502 -0.21882161036E+00  0.27433353138E+02  0.13577840401E+02  0.30610365846E+02  0.00000000000E+00 0.  1.
</event>
<event>
 4    1  0.3048956E+006  0.2955053E+02  0.7546771E-02  0.1423543E+00
         21   -1    0    0  504  501  0.00000000000E+00  0.00000000000E+00  0.51939790791E+02  0.51939790791E+02  0.00000000000E+00 0.  1.
         21   -1    0    0  503  502 -0.00000000000E+00 -0.00000000000E+00 -0.19154829339E+02  0.19154829339E+02  0.00000000000E+00 0. -1.
         21    1    1    2  503  501  0.19183123764E+02 -0.22477584806E+02  0.28823253853E+02  0.41279704683E+02  0.00000000000E+00 0.  1.
         21    1    1    2  504  502 -0.19183123764E+02  0.22477584806E+02  0.39617075991E+01  0.29814915447E+02  0.00000000000E+00 0. -1.
</event>
<event>
 4    1  0.3048956E+006  0.2335190E+02  0.7546771E-02  0.1488126E+00
         21   -1    0    0  503  501  0.00000000000E+00  0.00000000000E+00  0.12981963724E+03  0.12981963724E+03  0.00000000000E+00 0.  1.
         21   -1    0    0  504  502 -0.00000000000E+00 -0.00000000000E+00 -0.53013783227E+01  0.53013783227E+01  0.00000000000E+00 0.  1.
         21    1    1    2  503  502 -0.13733483431E+02  0.18886574086E+02  0.31472489078E+02  0.39189651907E+02  0.00000000000E+00 0.  1.
         21    1    1    2  504  501  0.13733483431E+02 -0.18886574086E+02  0.93045769842E+02  0.95931363658E+02  0.00000000000E+00 0.  1.
</event>
<event>
 4    1  0.3048956E+006  0.2576798E+02  0.7546771E-02  0.1460392E+00
         21   -1    0    0  502  501  0.00000000000E+00  0.00000000000E+00  0.23228251449E+03  0.23228251449E+03  0.00000000000E+00 0. -1.
         21   -1    0    0  503  502 -0.00000000000E+00 -0.00000000000E+00 -0.29163945027E+01  0.29163945027E+01  0.00000000000E+00 0. -1.
         21    1    1    2  503  504  0.23287040596E+02  0.11031895822E+02  0.98119689545E+02  0.10144684550E+03  0.00000000000E+00 0. -1.
         21    1    1    2  504  501 -0.23287040596E+02 -0.11031895822E+02  0.13124643044E+03  0.13375206349E+03  0.00000000000E+00 0. -1.
</event>
<event>
 4    1  0.3048956E+006  0.2825588E+02  0.7546771E-02  0.1435385E+00
         21   -1    0    0  504  501  0.00000000000E+00  0.00000000000E+00  0.49077117812E+03  0.49077117812E+03  0.00000000000E+00 0.  1.
         21   -1    0    0  503  502 -0.00000000000E+00 -0.00000000000E+00 -0.32285495115E+01  0.32285495115E+01  0.00000000000E+00 0.  1.
         21    1    1    2  503  501 -0.28121388558E+02 -0.27536051897E+01  0.69795851582E+02  0.75298444434E+02  0.00000000000E+00 0.  1.
         21    1    1    2  504  502  0.28121388558E+02  0.27536051897E+01  0.41774677703E+03  0.41870128320E+03  0.00000000000E+00 0.  1.
</event>
<event>
 4    1  0.3048956E+006  0.2237200E+02  0.7546771E-02  0.1500538E+00
         21   -1    0    0  502  501  0.00000000000E+00  0.00000000000E+00  0.25312835568E+01  0.25312835568E+01  0.00000000000E+00 0. -1.
         21   -1    0    0  504  502 -0.00000000000E+00 -0.00000000000E+00 -0.20169202620E+03  0.20169202620E+03  0.00000000000E+00 0.  1.
         21    1    1    2  503  501 -0.12286603069E+01  0.22338234897E+02 -0.11389512427E+03  0.11607155412E+03  0.00000000000E+00 0.  1.
         21    1    1    2  504  503  0.12286603069E+01 -0.22338234897E+02 -0.85265618376E+02  0.88151755635E+02  0.00000000000E+00 0. -1.
</event>
<event>
 4    1  0.3048956E+006  0.2016432E+02  0.7546771E-02  0.1531539E+00
         21   -1    0    0  502  501  0.00000000000E+00  0.00000000000E+00  0.72245835630E+02  0.72245835630E+02  0.00000000000E+00 0. -1.
         21   -1    0    0  504  502 -0.00000000000E+00 -0.00000000000E+00 -0.60501700592E+02  0.60501700592E+02  0.00000000000E+00 0.  1.
         21    1    1    2  503  501 -0.73444148988E+01 -0.18779226172E+02  0.69083378307E+02  0.71966053971E+02  0.00000000000E+00 0. -1.
         21    1    1    2  504  503  0.73444148988E+01  0.18779226172E+02 -0.57339243270E+02  0.60781482251E+02  0.00000000000E+00 0.  1.
</event>
<event>
 4    1  0.3048956E+006  0.2027841E+02  0.7546771E-02  0.1529821E+00
         21   -1    0    0  503  501  0.00000000000E+00  0.00000000000E+00  0.39656582482E+02  0.39656582482E+02  0.00000000000E+00 0. -1.
         21   -1    0    0  504  502 -0.00000000000E+00 -0.00000000000E+00 -0.37255040833E+03  0.37255040833E+03  0.00000000000E+00 0. -1.
         21    1    1    2  503  502  0.20261992538E+02  0.81593099083E+00 -0.36966187731E+03  0.37021766249E+03  0.00000000000E+00 0. -1.
         21    1    1    2  504  501 -0.20261992538E+02 -0.81593099083E+00  0.36768051459E+02  0.41989328324E+02  0.00000000000E+00 0. -1.
</event>
<event>
 4    1  0.3048956E+006  0.2152594E+02  0.7546771E-02  0.1511887E+00
         21   -1    0    0  503  501  0.00000000000E+00  0.00000000000E+00  0.19031333396E+02  0.19031333396E+02  0.00000000000E+00 0. -1.
         21   -1    0    0  501  502 -0.00000000000E+00 -0.00000000000E+00 -0.11909888779E+03  0.11909888779E+03  0.00000000000E+00 0. -1.
         21    1    1    2  503  504 -0.15382023084E+02  0.15058528910E+02  0.11568615909E+02  0.24437651302E+02  0.00000000000E+00 0. -1.
         21    1    1    2  504  502  0.15382023084E+02 -0.15058528910E+02 -0.11163617030E+03  0.11369256988E+03  0.00000000000E+00 0. -1.
</event>
<event>
 4    1  0.3048956E+006  0.4713273E+02  0.7546771E-02  0.1311107E+00
         21   -1    0    0  502  501  0.00000000000E+00  0.00000000000E+00  0.55178206471E+03  0.55178206471E+03  0.00000000000E+00 0.  1.
         21   -1    0    0  503  502 -0.00000000000E+00 -0.00000000000E+00 -0.48144108942E+01  0.48144108942E+01  0.00000000000E+00 0.  1.
         21    1    1    2  503  504  0.46595998682E+02  0.70927600365E+01  0.16086646962E+03  0.16762910066E+03  0.00000000000E+00 0.  1.
         21    1    1    2  504  501 -0.46595998682E+02 -0.70927600365E+01  0.38610118419E+03  0.38896737495E+03  0.00000000000E+00 0.  1.
</event>
<event>
 4    1  0.3048956E+006  0.2820090E+02  0.7546771E-02  0.1435904E+00
         21   -1    0    0  504  501  0.00000000000E+00  0.00000000000E+00  0.64641966856E+02  0.64641966856E+02  0.00000000000E+00 0. -1.
         21   -1    0    0  503  502 -0.00000000000E+00 -0.00000000000E+00 -0.23732138783E+02  0.23732138783E+02  0.00000000000E+00 0.  1.
         21    1    1    2  503  501  0.25792099062E+02  0.11404313998E+02  0.51119221674E+02  0.58382065537E+02  0.00000000000E+00 0. -1.
         21    1    1    2  504  502 -0.25792099062E+02 -0.11404313998E+02 -0.10209393602E+02  0.29992040102E+02  0.00000000000E+00 0.  1.
</event>
<event>
 4    1  0.3048956E+006  0.2259991E+02  0.7546771E-02  0.1497584E+00
         21   -1    0    0  503  501  0.00000000000E+00  0.00000000000E+00  0.19246108530E+02  0.19246108530E+02  0.00000000000E+00 0.  1.
         21   -1    0    0  504  502 -0.00000000000E+00 -0.00000000000E+00 -0.92965292559E+02  0.92965292559E+02  0.00000000000E+00 0.  1.
         21    1    1    2  503  502  0.18089939303E+02  0.13546584344E+02  0.10566724961E+02  0.24948176843E+02  0.00000000000E+00 0.  1.
         21    1    1    2  504  501 -0.18089939303E+02 -0.13546584344E+02 -0.84285908991E+02  0.87263224246E+02  0.00000000000E+00 0.  1.
</event>
<event>
 4    1  0.3048956E+006  0.2328612E+02  0.7546771E-02  0.1488936E+00
         21   -1    0    0  504  501  0.00000000000E+00  0.00000000000E+00  0.39449651295E+03  0.39449651295E+03  0.00000000000E+00 0. -1.
         21   -1    0    0  501  502 -0.00000000000E+00 -0.00000000000E+00 -0.43533842726E+02  0.43533842726E+02  0.00000000000E+00 0. -1.
         21    1    1    2  503  502  0.23167017211E+02 -0.23521893707E+01 -0.40048562035E+02  0.46326351058E+02  0.00000000000E+00 0. -1.
         21    1    1    2  504  503 -0.23167017211E+02  0.23521893707E+01  0.39101123226E+03  0.39170400462E+03  0.00000000000E+00 0. -1.
</event>
<event>
 4    1  0.3048956E+006  0.2671391E+02  0.7546771E-02  0.1450503E+00
         21   -1    0    0  504  501  0.00000000000E+00  0.00000000000E+00  0.16857596492E+03  0.16857596492E+03  0.00000000000E+00 0.  1.
         21   -1    0    0  503  502 -0.00000000000E+00 -0.00000000000E+00 -0.96510145316E+01  0.96510145316E+01  0.00000000000E+00 0. -1.
         21    1    1    2  503  501 -0.20191325655E+02 -0.17491231212E+02  0.12694995180E+02  0.29576945475E+02  0.00000000000E+00 0. -1.
         21    1    1    2  504  502  0.20191325655E+02  0.17491231212E+02  0.14622995521E+03  0.14865003398E+03  0.00000000000E+00 0.  1.
</event>
<event>
 4    1  0.3048956E+006  0.3157758E+02  0.7546771E-02  0.1406365E+00
         21   -1    0    0  503  501  0.00000000000E+00  0.00000000000E+00  0.14314205717E+03  0.14314205717E+03  0.00000000000E+00 0.  1.
         21   -1    0    0  504  502 -0.00000000000E+00 -0.00000000000E+00 -0.13927935108E+03  0.13927935108E+03  0.00000000000E+00 0.  1.
         21    1    1    2  503  502  0.31562708467E+02 -0.96900150664E+00  0.13956540721E+03  0.14309313896E+03  0.00000000000E+00 0.  1.
         21    1    1    2  504  501 -0.31562708467E+02  0.96900150664E+00 -0.13570270112E+03  0.13932826928E+03  0.00000000000E+00 0.  1.
</event>
<event>
 4    1  0.3048956E+006  0.2032796E+02  0.7546771E-02  0.1529080E+00
         21   -1    0    0  504  501  0.00000000000E+00  0.00000000000E+00  0.15270368906E+03  0.15270368906E+03  0.00000000000E+00 0.  1.
         21   -1    0    0  501  502 -0.00000000000E+00 -0.00000000000E+00 -0.77718311941E+01  0.77718311941E+01  0.00000000000E+00 0.  1.
         21    1    1    2  503  502  0.19297545825E+02  0.63898797334E+01  0.76861049286E+01  0.21732511287E+02  0.00000000000E+00 0.  1.
         21    1    1    2  504  503 -0.19297545825E+02 -0.63898797334E+01  0.13724575293E+03  0.13874300896E+03  0.00000000000E+00 0.  1.
</event>
<event>
 4    1  0.3048956E+006  0.2323157E+02  0.7546771E-02  0.1489611E+00
         21   -1    0    0  503  501  0.00000000000E+00  0.00000000000E+00  0.39486622922E+03  0.39486622922E+03  0.00000000000E+00 0.  1.
         21   -1    0    0  504  502 -0.00000000000E+00 -0.00000000000E+00 -0.25846727783E+01  0.25846727783E+01  0.00000000000E+00 0.  1.
         21    1    1    2  503  502 -0.16114735127E+02  0.16733827828E+02  0.33255213566E+03  0.33336260830E+03  0.00000000000E+00 0.  1.
         21    1    1    2  504  501  0.16114735127E+02 -0.16733827828E+02  0.59729420787E+02  0.64088293702E+02  0.00000000000E+00 0.  1.
</event>
<event>
 4    1  0.3048956E+006  0.3239712E+02  0.7546771E-02  0.1399848E+00
         21   -1    0    0  504  501  0.00000000000E+00  0.00000000000E+00  0.32381605441E+02  0.32381605441E+02  0.00000000000E+00 0. -1.
         21   -1    0    0  503  502 -0.00000000000E+00 -0.00000000000E+00 -0.41825519445E+02  0.41825519445E+02  0.00000000000E+00 0. -1.
         21    1    1    2  503  501 -0.32126693736E+02  0.41771871839E+01  0.12879806020E+02  0.34863487294E+02  0.00000000000E+00 0. -1.
         21    1    1    2  504  502  0.32126693736E+02 -0.41771871839E+01 -0.22323720024E+02  0.39343637591E+02  0.00000000000E+00 0. -1.
</event>
<event>
 4    1  0.3048956E+006  0.2348759E+02  0.7546771E-02  0.1486465E+00
         21   -1    0    0  503  501  0.00000000000E+00  0.00000000000E+00  0.10521266227E+04  0.10521266227E+04  0.00000000000E+00 0. -1.
         21   -1    0    0  504  502 -0.00000000000E+00 -0.00000000000E+00 -0.60896824953E+02  0.60896824953E+02  0.00000000000E+00 0. -1.
         21    1    1    2  503  502 -0.17929711588E+02 -0.15172090747E+02  0.10497255989E+04  0.10499883332E+04  0.00000000000E+00 0. -1.
         21    1    1    2  504  501  0.17929711588E+02  0.15172090747E+02 -0.58495801173E+02  0.63035114422E+02  0.00000000000E+00 0. -1.
</event>
<event>
 4    1  0.3048956E+006  0.2114265E+02  0.7546771E-02  0.1517238E+00
         21   -1    0    0  504  501  0.00000000000E+00  0.00000000000E+00  0.24572419906E+03  0.24572419906E+03  0.00000000000E+00 0. -1.
         21   -1    0    0  501  502 -0.00000000000E+00 -0.00000000000E+00 -0.81946765912E+01  0.81946765912E+01  0.00000000000E+00 0. -1.
         21    1    1    2  503  502 -0.20634223685E+02  0.46087558429E+01  0.67805626940E+01  0.22203329659E+02  0.00000000000E+00 0. -1.
         21    1    1    2  504  503  0.20634223685E+02 -0.46087558429E+01  0.23074895977E+03  0.23171554599E+03  0.00000000000E+00 0. -1.
</event>
<event>
 4    1  0.3048956E+006  0.2314224E+02  0.7546771E-02  0.1490720E+00
         21   -1    0    0  504  501  0.00000000000E+00  0.00000000000E+00  0.43682258053E+03  0.43682258053E+03  0.00000000000E+00 0. -1.
         21   -1    0    0  503  502 -0.00000000000E+00 -0.00000000000E+00 -0.24667643872E+01  0.24667643872E+01  0.00000000000E+00 0.  1.
         21    1    1    2  503  501 -0.13754122735E+02  0.18611484572E+02  0.37295155224E+03  0.37366886888E+03  0.00000000000E+00 0. -1.
         21    1    1    2  504  502  0.13754122735E+02 -0.18611484572E+02  0.61404263901E+02  0.65620476037E+02  0.00000000000E+00 0.  1.
</event>
<event>
 4    1  0.3048956E+006  0.2182674E+02  0.7546771E-02  0.1507781E+00
         21   -1    0    0  503  501  0.00000000000E+00  0.00000000000E+00  0.19956044940E+02  0.19956044940E+02  0.00000000000E+00 0. -1.
         21   -1    0    0  504  502 -0.00000000000E+00 -0.00000000000E+00 -0.24546586945E+02  0.24546586945E+02  0.00000000000E+00 0. -1.
         21    1    1    2  503  502 -0.15211273463E+02 -0.15653239566E+02 -0.59818212096E+01  0.22631591510E+02  0.00000000000E+00 0. -1.
         21    1    1    2  504  501  0.15211273463E+02  0.15653239566E+02  0.13912792046E+01  0.21871040375E+02  0.00000000000E+00 0. -1.
</event>
<event>
 4    1  0.3048956E+006  0.3914708E+02  0.7546771E-02  0.1353558E+00
         21   -1    0    0  504  501  0.00000000000E+00  0.00000000000E+00  0.10893899490E+03  0.10893899490E+03  0.00000000000E+00 0.  1.
         21   -1    0    0  503  502 -0.00000000000E+00 -0.00000000000E+00 -0.38815102830E+02  0.38815102830E+02  0.00000000000E+00 0. -1.
         21    1    1    2  503  501 -0.38696002152E+02  0.59256600004E+01 -0.23927750524E+02  0.45880619810E+02  0.00000000000E+00 0. -1.
         21    1    1    2  504  502  0.38696002152E+02 -0.59256600004E+01  0.94051642598E+02  0.10187347792E+03  0.00000000000E+00 0.  1.
</event>
<event>
 4    1  0.3048956E+006  0.2141810E+02  0.7546771E-02  0.1513378E+00
         21   -1    0    0  503  501  0.00000000000E+00  0.00000000000E+00  0.48926009213E+00  0.48926009213E+00  0.00000000000E+00 0.  1.
         21   -1    0    0  504  502 -0.00000000000E+00 -0.00000000000E+00 -0.10296430834E+04  0.10296430834E+04  0.00000000000E+00 0.  1.
         21    1    1    2  503  502  0.54451906301E+01 -0.20714363090E+02 -0.66856697621E+03  0.66890996152E+03  0.00000000000E+00 0.  1.
         21    1    1    2  504  501 -0.54451906301E+01  0.20714363090E+02 -0.36058684713E+03  0.36122238200E+03  0.00000000000E+00 0.  1.
</event>
<event>
 4    1  0.3048956E+006  0.2183333E+02  0.7546771E-02  0.1507692E+00
         21   -1    0    0  504  501  0.00000000000E+00  0.00000000000E+00  0.21781398057E+03  0.21781398057E+03  0.00000000000E+00 0.  1.
         21   -1    0    0  503  502 -0.00000000000E+00 -0.00000000000E+00 -0.26565371914E+01  0.26565371914E+01  0.00000000000E+00 0.  1.
         21    1    1    2  503  501 -0.17554711647E+02 -0.12981770077E+02  0.15384717192E+03  0.15538869509E+03  0.00000000000E+00 0.  1.
         21    1    1    2  504  502  0.17554711647E+02  0.12981770077E+02  0.61310271456E+02  0.65081822665E+02  0.00000000000E+00 0.  1.
</event>
<event>
 4    1  0.3048956E+006  0.2459632E+02  0.7546771E-02  0.1473370E+00
         21   -1    0    0  503  501  0.00000000000E+00  0.00000000000E+00  0.18572449548E+03  0.18572449548E+03  0.00000000000E+00 0. -1.
         21   -1    0    0  501  502 -0.00000000000E+00 -0.00000000000E+00 -0.14939605566E+03  0.14939605566E+03  0.00000000000E+00 0.  1.
         21    1    1    2  503  504 -0.23702856509E+02 -0.65691249819E+01  0.18388770414E+03  0.18552537978E+03  0.00000000000E+00 0. -1.
         21    1    1    2  504  502  0.23702856509E+02  0.65691249819E+01 -0.14755926432E+03  0.14959517136E+03  0.00000000000E+00 0.  1.
</event>
<event>
 4    1  0.3048956E+006  0.2139726E+02  0.7546771E-02  0.1513668E+00
         21   -1    0    0  504  501  0.00000000000E+00  0.00000000000E+00  0.85292434078E+01  0.85292434078E+01  0.00000000000E+00 0.  1.
         21   -1    0    0  501  502 -0.00000000000E+00 -0.00000000000E+00 -0.15082385819E+03  0.15082385819E+03  0.00000000000E+00 0.  1.
         21    1    1    2  503  502  0.17728205492E+02  0.11981372799E+02 -0.13509208316E+03  0.13677614374E+03  0.00000000000E+00 0.  1.
         21    1    1    2  504  503 -0.17728205492E+02 -0.11981372799E+02 -0.72025316168E+01  0.22576957852E+02  0.00000000000E+00 0.  1.
</event>
<event>
 4    1  0.3048956E+006  0.2419116E+02  0.7546771E-02  0.1478059E+00
         21   -1    0    0  504  501  0.00000000000E+00  0.00000000000E+00  0.15084243881E+02  0.15084243881E+02  0.00000000000E+00 0.  1.
         21   -1    0    0  503  502 -0.00000000000E+00 -0.00000000000E+00 -0.19605435127E+03  0.19605435127E+03  0.00000000000E+00 0.  1.
         21    1    1    2  503  501  0.38612855351E+01 -0.23881006829E+02  0.40637222288E+01  0.24530100927E+02  0.00000000000E+00 0.  1.
         21    1    1    2  504  502 -0.38612855351E+01  0.23881006829E+02 -0.18503382962E+03  0.18660849422E+03  0.00000000000E+00 0.  1.
</event>
<event>
 4    1  0.3048956E+006  0.2011689E+02  0.7546771E-02  0.1532256E+00
         21   -1    0    0  504  501  0.00000000000E+00  0.00000000000E+00  0.10127871215E+03  0.10127871215E+03  0.00000000000E+00 0. -1.
         21   -1    0    0  503  502 -0.00000000000E+00 -0.00000000000E+00 -0.43793542797E+01  0.43793542797E+01  0.00000000000E+00 0. -1.
         21    1    1    2  503  501 -0.71533175054E+01  0.18802104176E+02  0.64084154024E+02  0.67167461391E+02  0.00000000000E+00 0. -1.
         21    1    1    2  504  502  0.71533175054E+01 -0.18802104176E+02  0.32815203850E+02  0.38490605042E+02  0.00000000000E+00 0. -1.
</event>
<event>
 4    1  0.3048956E+006  0.2718143E+02  0.7546771E-02  0.1445794E+00
         21   -1    0    0  504  501  0.00000000000E+00  0.00000000000E+00  0.73297910960E+02  0.73297910960E+02  0.00000000000E+00 0. -1.
         21   -1    0    0  503  502 -0.00000000000E+00 -0.00000000000E+00 -0.11782659998E+03  0.11782659998E+03  0.00000000000E+00 0.  1.
         21    1    1    2  503  501 -0.25865021812E+02  0.83564914691E+01  0.69118958918E+02  0.74271534149E+02  0.00000000000E+00 0. -1.
         21    1    1    2  504  502  0.25865021812E+02 -0.83564914691E+01 -0.11364764794E+03  0.11685297679E+03  0.00000000000E+00 0.  1.
</event>
<event>
 4    1  0.3048956E+006  0.3991789E+02  0.7546771E-02  0.1348968E+00
         21   -1    0    0  504  501  0.00000000000E+00  0.00000000000E+00  0.53068271606E+01  0.53068271606E+01  0.00000000000E+00 0.  1.
         21   -1    0    0  503  502 -0.00000000000E+00 -0.00000000000E+00 -0.31884664909E+03  0.31884664909E+03  0.00000000000E+00 0.  1.
         21    1    1    2  503  501  0.38920372078E+02  0.88680491040E+01 -0.11763999837E+03  0.12422804383E+03  0.00000000000E+00 0.  1.
         21    1    1    2  504  502 -0.38920372078E+02 -0.88680491040E+01 -0.19589982356E+03  0.19992543242E+03  0.00000000000E+00 0.  1.
</event>
<event>
 4    1  0.3048956E+006  0.3170071E+02  0.7546771E-02  0.1405371E+00
         21   -1    0    0  504  501  0.00000000000E+00  0.00000000000E+00  0.85415327511E+02  0.85415327511E+02  0.00000000000E+00 0.  1.
         21   -1    0    0  503  502 -0.00000000000E+00 -0.00000000000E+00 -0.12012903849E+02  0.12012903849E+02  0.00000000000E+00 0.  1.
         21    1    1    2  503  501 -0.27550516156E+02  0.15681322621E+02  0.43695305094E+02  0.53983465125E+02  0.00000000000E+00 0.  1.
         21    1    1    2  504  502  0.27550516156E+02 -0.15681322621E+02  0.29707118568E+02  0.43444766236E+02  0.00000000000E+00 0.  1.
</event>
<event>
 4    1  0.3048956E+006  0.2038012E+02  0.7546771E-02  0.1528302E+00
         21   -1    0    0  504  501  0.00000000000E+00  0.00000000000E+00  0.22012389911E+03  0.22012389911E+03  0.00000000000E+00 0. -1.
         21   -1    0    0  503  502 -0.00000000000E+00 -0.00000000000E+00 -0.24256266218E+01  0.24256266218E+01  0.00000000000E+00 0. -1.
         21    1    1    2  503  501 -0.13129725927E+02 -0.15587156484E+02  0.16129047208E+03  0.16257295449E+03  0.00000000000E+00 0. -1.
         21    1    1    2  504  502  0.13129725927E+02  0.15587156484E+02  0.56407800408E+02  0.59976571235E+02  0.00000000000E+00 0. -1.
</event>
<event>
 4    1  0.3048956E+006  0.2557629E+02  0.7546771E-02  0.1462459E+00
         21   -1    0    0  502  501  0.00000000000E+00  0.00000000000E+00  0.50899389256E+03  0.50899389256E+03  0.00000000000E+00 0. -1.
         21   -1    0    0  504  502 -0.00000000000E+00 -0.00000000000E+00 -0.14770135037E+01  0.14770135037E+01  0.00000000000E+00 0. -1.
         21    1    1    2  503  501 -0.22923369230E+02 -0.11343083479E+02  0.34574328199E+03  0.34668799148E+03  0.00000000000E+00 0. -1.
         21    1    1    2  504  503  0.22923369230E+02  0.11343083479E+02  0.16177359707E+03  0.16378291458E+03  0.00000000000E+00 0. -1.
</event>
<event>
 4    1  0.3048956E+006  0.2203698E+02  0.7546771E-02  0.1504958E+00
         21   -1    0    0  502  501  0.00000000000E+00  0.00000000000E+00  0.19763739043E+03  0.19763739043E+03  0.00000000000E+00 0.  1.
         21   -1    0    0  504  502 -0.00000000000E+00 -0.00000000000E+00 -0.40642517953E+02  0.40642517953E+02  0.00000000000E+00 0. -1.
         21    1    1    2  503  501 -0.63903430692E+01 -0.21090090189E+02  0.19397975881E+03  0.19522749606E+03  0.00000000000E+00 0.  1.
         21    1    1    2  504  503  0.63903430692E+01  0.21090090189E+02 -0.36984886341E+02  0.43052412318E+02  0.00000000000E+00 0. -1.
</event>
<event>
 4    1  0.3048956E+006  0.2039445E+02  0.7546771E-02  0.1528089E+00
         21   -1    0    0  504  501  0.00000000000E+00  0.00000000000E+00  0.22927803892E+02  0.22927803892E+02  0.00000000000E+00 0.  1.
         21   -1    0    0  503  502 -0.00000000000E+00 -0.00000000000E+00 -0.25512910055E+02  0.25512910055E+02  0.00000000000E+00 0.  1.
         21    1    1    2  503  501  0.29267362781E+01  0.20183358672E+02  0.11726816662E+02  0.23525560175E+02  0.00000000000E+00 0.  1.
         21    1    1    2  504  502 -0.29267362781E+01 -0.20183358672E+02 -0.14311922825E+02  0.24915153772E+02  0.00000000000E+00 0.  1.
</event>
<event>
 4    1  0.3048956E+006  0.2403269E+02  0.7546771E-02  0.1479922E+00
         21   -1    0    0  504  501  0.00000000000E+00  0.00000000000E+00  0.23966972895E+02  0.23966972895E+02  0.00000000000E+00 0. -1.
         21   -1    0    0  503  502 -0.00000000000E+00 -0.00000000000E+00 -0.12215914233E+03  0.12215914233E+03  0.00000000000E+00 0. -1.
         21    1    1    2  503  501  0.23549136715E+02 -0.47967156701E+01 -0.11455699148E+03  0.11705073524E+03  0.00000000000E+00 0. -1.
         21    1    1    2  504  502 -0.23549136715E+02  0.47967156701E+01  0.16364822045E+02  0.29075379994E+02  0.00000000000E+00 0. -1.
</event>
<event>
 4    1  0.3048956E+006  0.2206271E+02  0.7546771E-02  0.1504615E+00
         21   -1    0    0  503  501  0.00000000000E+00  0.00000000000E+00  0.69426505396E+01  0.69426505396E+01  0.00000000000E+00 0. -1.
         21   -1    0    0  501  502 -0.00000000000E+00 -0.00000000000E+00 -0.77704754687E+02  0.77704754687E+02  0.00000000000E+00 0. -1.
         21    1    1    2  503  504 -0.96450691849E+01 -0.19842776225E+02 -0.22151062959E+02  0.31263920389E+02  0.00000000000E+00 0. -1.
         21    1    1    2  504  502  0.96450691849E+01  0.19842776225E+02 -0.48611041189E+02  0.53383484837E+02  0.00000000000E+00 0. -1.
</event>
<event>
 4    1  0.3048956E+006  0.2348297E+02  0.7546771E-02  0.1486521E+00
         21   -1    0    0  503  501  0.00000000000E+00  0.00000000000E+00  0.55289420183E+01  0.55289420183E+01  0.00000000000E+00 0. -1.
         21   -1    0    0  504  502 -0.00000000000E+00 -0.00000000000E+00 -0.27364319385E+03  0.27364319385E+03  0.00000000000E+00 0. -1.
         21    1    1    2  503  502 -0.79937216478E+01  0.22080544759E+02 -0.24533402777E+03  0.24645534124E+03  0.00000000000E+00 0. -1.
         21    1    1    2  504  501  0.79937216478E+01 -0.22080544759E+02 -0.22780224064E+02  0.32716794633E+02  0.00000000000E+00 0. -1.
</event>
<event>
 4    1  0.3048956E+006  0.2466308E+02  0.7546771E-02  0.1472608E+00
         21   -1    0    0  503  501  0.00000000000E+00  0.00000000000E+00  0.48888317221E+01  0.48888317221E+01  0.00000000000E+00 0.  1.
         21   -1    0    0  504  502 -0.00000000000E+00 -0.00000000000E+00 -0.36222843412E+03  0.36222843412E+03  0.00000000000E+00 0.  1.
         21    1    1    2  503  502  0.13838690468E+02 -0.20414659887E+02 -0.32739936772E+03  0.32832699200E+03  0.00000000000E+00 0.  1.
         21    1    1    2  504  501 -0.13838690468E+02  0.20414659887E+02 -0.29940234677E+02  0.38790273841E+02  0.00000000000E+00 0.  1.
</event>
<event>
 4    1  0.3048956E+006  0.2039847E+02  0.7546771E-02  0.1528029E+00
         21   -1    0    0  503  501  0.00000000000E+00  0.00000000000E+00  0.22726559571E+03  0.22726559571E+03  0.00000000000E+00 0. -1.
         21   -1    0    0  504  502 -0.00000000000E+00 -0.00000000000E+00 -0.28998386870E+01  0.28998386870E+01  0.00000000000E+00 0.  1.
         21    1    1    2  503  502 -0.20369159883E+02  0.10930809122E+01  0.42311013197E+02  0.46971473662E+02  0.00000000000E+00 0.  1.
         21    1    1    2  504  501  0.20369159883E+02 -0.10930809122E+01  0.18205474383E+03  0.18319396074E+03  0.00000000000E+00 0. -1.
</event>
<event>
 4    1  0.3048956E+006  0.2019504E+02  0.7546771E-02  0.1531075E+00
         21   -1    0    0  504  501  0.00000000000E+00  0.00000000000E+00  0.23421134909E+02  0.23421134909E+02  0.00000000000E+00 0. -1.
         21   -1    0    0  503  502 -0.00000000000E+00 -0.00000000000E+00 -0.23473679488E+02  0.23473679488E+02  0.00000000000E+00 0.  1.
         21    1    1    2  503  501 -0.19993681942E+02 -0.28447166257E+01 -0.11940157551E+02  0.23460756437E+02  0.00000000000E+00 0.  1.
         21    1    1    2  504  502  0.19993681942E+02  0.28447166257E+01  0.11887612972E+02  0.23434057960E+02  0.00000000000E+00 0. -1.
</event>
<event>
 4    1  0.3048956E+006  0.3460607E+02  0.7546771E-02  0.1383354E+00
         21   -1    0    0  504  501  0.00000000000E+00  0.00000000000E+00  0.10211465651E+03  0.10211465651E+03  0.00000000000E+00 0.  1.
         21   -1    0    0  503  502 -0.00000000000E+00 -0.00000000000E+00 -0.24972614058E+02  0.24972614058E+02  0.00000000000E+00 0. -1.
         21    1    1    2  503  501 -0.16136576241E+01 -0.34568427263E+02  0.84847789383E+02  0.91633658759E+02  0.00000000000E+00 0.  1.
         21    1    1    2  504  502  0.16136576241E+01  0.34568427263E+02 -0.77057469329E+01  0.35453611807E+02  0.00000000000E+00 0. -1.
</event>
<event>
 4    1  0.3048956E+006  0.2000195E+02  0.7546771E-02  0.1534006E+00
         21   -1    0    0  503  501  0.00000000000E+00  0.00000000000E+00  0.22429287998E+03  0.22429287998E+03  0.00000000000E+00 0. -1.
         21   -1    0    0  504  502 -0.00000000000E+00 -0.00000000000E+00 -0.38038490851E+01  0.38038490851E+01  0.00000000000E+00 0. -1.
         21    1    1    2  503  502 -0.18875174815E+02 -0.66186032978E+01  0.19335691384E+03  0.19438871949E+03  0.00000000000E+00 0. -1.
         21    1    1    2  504  501  0.18875174815E+02  0.66186032978E+01  0.27132117057E+02  0.33708009581E+02  0.00000000000E+00 0. -1.
</event>
<event>
 4    1  0.3048956E+006  0.2090004E+02  0.7546771E-02  0.1520697E+00
         21   -1    0    0  503  501  0.00000000000E+00  0.00000000000E+00  0.15984171580E+01  0.15984171580E+01  0.00000000000E+00 0. -1.
         21   -1    0    0  504  502 -0.00000000000E+00 -0.00000000000E+00 -0.60271308774E+03  0.60271308774E+03  0.00000000000E+00 0.  1.
         21    1    1    2  503  502 -0.12428475431E+02 -0.16803110142E+02 -0.52394582109E+03  0.52436250338E+03  0.00000000000E+00 0.  1.
         21    1    1    2  504  501  0.12428475431E+02  0.16803110142E+02 -0.77168849492E+02  0.79949001519E+02  0.00000000000E+00 0. -1.
</event>
<event>
 4    1  0.3048956E+006  0.3684210E+02  0.7546771E-02  0.1368056E+00
         21   -1    0    0  502  501  0.00000000000E+00  0.00000000000E+00  0.12636731150E+03  0.12636731150E+03  0.00000000000E+00 0. -1.
         21   -1    0    0  504  502 -0.00000000000E+00 -0.00000000000E+00 -0.30229195961E+03  0.30229195961E+03  0.00000000000E+00 0.  1.
         21    1    1    2  503  501  0.56537359478E+01 -0.36405709729E+02  0.12252502252E+03  0.12794421274E+03  0.00000000000E+00 0. -1.
         21    1    1    2  504  503 -0.56537359478E+01  0.36405709729E+02 -0.29844967063E+03  0.30071505837E+03  0.00000000000E+00 0.  1.
</event>
<event>
 4    1  0.3048956E+006  0.2746685E+02  0.7546771E-02  0.1442974E+00
         21   -1    0    0  504  501  0.00000000000E+00  0.00000000000E+00  0.11973098494E+02  0.11973098494E+02  0.00000000000E+00 0.  1.
         21   -1    0    0  503  502 -0.00000000000E+00 -0.00000000000E+00 -0.10373389538E+03  0.10373389538E+03  0.00000000000E+00 0.  1.
         21    1    1    2  503  501 -0.18236053223E+02  0.20539577822E+02 -0.96316838567E+01  0.29106652644E+02  0.00000000000E+00 0.  1.
         21    1    1    2  504  502  0.18236053223E+02 -0.20539577822E+02 -0.82129113030E+02  0.86600341231E+02  0.00000000000E+00 0.  1.
</event>
<event>
 4    1  0.3048956E+006  0.4374974E+02  0.7546771E-02  0.1327811E+00
         21   -1    0    0  502  501  0.00000000000E+00  0.00000000000E+00  0.14587007757E+02  0.14587007757E+02  0.00000000000E+00 0. -1.
         21   -1    0    0  503  502 -0.00000000000E+00 -0.00000000000E+00 -0.13128375315E+03  0.13128375315E+03  0.00000000000E+00 0. -1.
         21    1    1    2  503  504  0.23317416723E+01 -0.43687554599E+02 -0.60013108006E+02  0.74267170261E+02  0.00000000000E+00 0. -1.
         21    1    1    2  504  501 -0.23317416723E+01  0.43687554599E+02 -0.56683637388E+02  0.71603590648E+02  0.00000000000E+00 0. -1.
</event>
<event>
 4    1  0.3048956E+006  0.2192034E+02  0.7546771E-02  0.1506519E+00
         21   -1    0    0  504  501  0.00000000000E+00  0.00000000000E+00  0.33203378558E+01  0.33203378558E+01  0.00000000000E+00 0.  1.
         21   -1    0    0  501  502 -0.00000000000E+00 -0.00000000000E+00 -0.49327470055E+03  0.49327470055E+03  0.00000000000E+00 0. -1.
         21    1    1    2  503  502  0.11279486940E+02 -0.18795600385E+02 -0.45369848827E+03  0.45422771786E+03  0.00000000000E+00 0. -1.
         21    1    1    2  504  503 -0.11279486940E+02  0.18795600385E+02 -0.36255874426E+02  0.42367320541E+02  0.00000000000E+00 0.  1.
</event>
<event>
 4    1  0.3048956E+006  0.2064610E+02  0.7546771E-02  0.1524378E+00
         21   -1    0    0  504  501  0.00000000000E+00  0.00000000000E+00  0.27358735217E+02  0.27358735217E+02  0.00000000000E+00 0.  1.
         21   -1    0    0  503  502 -0.00000000000E+00 -0.00000000000E+00 -0.22197023244E+02  0.22197023244E+02  0.00000000000E+00 0.  1.
         21    1    1    2  503  501  0.15375857542E+02 -0.13778411471E+02  0.16108839697E+02  0.26186949693E+02  0.00000000000E+00 0.  1.
         21    1    1    2  504  502 -0.15375857542E+02  0.13778411471E+02 -0.10947127724E+02  0.23368808768E+02  0.00000000000E+00 0.  1.
</event>
<event>
 4    1  0.3048956E+006  0.2021285E+02  0.7546771E-02  0.1530806E+00
         21   -1    0    0  502  501  0.00000000000E+00  0.00000000000E+00  0.10413873261E+03  0.10413873261E+03  0.00000000000E+00 0.  1.
         21   -1    0    0  503  502 -0.00000000000E+00 -0.00000000000E+00 -0.45515230954E+01  0.45515230954E+01  0.00000000000E+00 0.  1.
         21    1    1    2  503  504 -0.19461437287E+02 -0.54600080511E+01  0.29602196753E+02  0.35844794347E+02  0.00000000000E+00 0.  1.
         21    1    1    2  504  501  0.19461437287E+02  0.54600080511E+01  0.69985012766E+02  0.72845461362E+02  0.00000000000E+00 0.  1.
</event>
<event>
 4    1  0.3048956E+006  0.3451818E+02  0.7546771E-02  0.1383983E+00
         21   -1    0    0  502  501  0.00000000000E+00  0.00000000000E+00  0.17220522437E+03  0.17220522437E+03  0.00000000000E+00 0. -1.
         21   -1    0    0  504  502 -0.00000000000E+00 -0.00000000000E+00 -0.40708700488E+02  0.40708700488E+02  0.00000000000E+00 0. -1.
         21    1    1    2  503  501  0.91088009448E+01 -0.33294660076E+02  0.16273715409E+03  0.16635770486E+03  0.00000000000E+00 0. -1.
         21    1    1    2  504  503 -0.91088009448E+01  0.33294660076E+02 -0.31240630212E+02  0.46556219996E+02  0.00000000000E+00 0. -1.
</event>
<event>
 4    1  0.3048956E+006  0.2700619E+02  0.7546771E-02  0.1447546E+00
         21   -1    0    0  504  501  0.00000000000E+00  0.00000000000E+00  0.30355894961E+01  0.30355894961E+01  0.00000000000E+00 0. -1.
         21   -1    0    0  503  502 -0.00000000000E+00 -0.00000000000E+00 -0.27534759401E+03  0.27534759401E+03  0.00000000000E+00 0. -1.
         21    1    1    2  503  501 -0.16803135177E+02  0.21142118154E+02 -0.86469154212E+02  0.90588349924E+02  0.00000000000E+00 0. -1.
         21    1    1    2  504  502  0.16803135177E+02 -0.21142118154E+02 -0.18584285031E+03  0.18779483359E+03  0.00000000000E+00 0. -1.
</event>
<event>
 4    1  0.3048956E+006  0.2399590E+02  0.7546771E-02  0.1480357E+00
         21   -1    0    0  504  501  0.00000000000E+00  0.00000000000E+00  0.24938661373E+03  0.24938661373E+03  0.00000000000E+00 0.  1.
         21   -1    0    0  503  502 -0.00000000000E+00 -0.00000000000E+00 -0.14887029064E+02  0.14887029064E+02  0.00000000000E+00 0. -1.
         21    1    1    2  503  501 -0.21534039575E+02  0.10587185716E+02 -0.42087973125E+01  0.24362211242E+02  0.00000000000E+00 0. -1.
         21    1    1    2  504  502  0.21534039575E+02 -0.10587185716E+02  0.23870838197E+03  0.23991143155E+03  0.00000000000E+00 0.  1.
</event>
<event>
 4    1  0.3048956E+006  0.2103403E+02  0.7546771E-02  0.1518779E+00
         21   -1    0    0  502  501  0.00000000000E+00  0.00000000000E+00  0.15122144457E+03  0.15122144457E+03  0.00000000000E+00 0.  1.
         21   -1    0    0  504  502 -0.00000000000E+00 -0.00000000000E+00 -0.12337808406E+02  0.12337808406E+02  0.00000000000E+00 0.  1.
         21    1    1    2  503  501 -0.20020584444E+02 -0.64503290114E+01  0.14086994674E+03  0.14243164129E+03  0.00000000000E+00 0.  1.
         21    1    1    2  504  503  0.20020584444E+02  0.64503290114E+01 -0.19863105773E+01  0.21127611686E+02  0.00000000000E+00 0.  1.
</event>
<event>
 4    1  0.3048956E+006  0.2386637E+02  0.7546771E-02  0.1481897E+00
         21   -1    0    0  503  501  0.00000000000E+00  0.00000000000E+00  0.53429700951E+03  0.53429700951E+03  0.00000000000E+00 0.  1.
         21   -1    0    0  501  502 -0.00000000000E+00 -0.00000000000E+00 -0.58467365782E+01  0.58467365782E+01  0.00000000000E+00 0. -1.
         21    1    1    2  503  504  0.22348071621E+02  0.83765803602E+01  0.50843677762E+03  0.50899662105E+03  0.00000000000E+00 0.  1.
         21    1    1    2  504  502 -0.22348071621E+02 -0.83765803602E+01  0.20013495318E+02  0.31147125044E+02  0.00000000000E+00 0. -1.
</event>
<event>
 4    1  0.3048956E+006  0.2580299E+02  0.7546771E-02  0.1460018E+00
         21   -1    0    0  502  501  0.00000000000E+00  0.00000000000E+00  0.55336066814E+02  0.55336066814E+02  0.00000000000E+00 0.  1.
         21   -1    0    0  504  502 -0.00000000000E+00 -0.00000000000E+00 -0.25181940212E+03  0.25181940212E+03  0.00000000000E+00 0. -1.
         21    1    1    2  503  501  0.24901926520E+02 -0.67593053697E+01  0.51622221061E+02  0.57711765358E+02  0.00000000000E+00 0.  1.
         21    1    1    2  504  503 -0.24901926520E+02  0.67593053697E+01 -0.24810555637E+03  0.24944370358E+03  0.00000000000E+00 0. -1.
</event>
<event>
 4    1  0.3048956E+006  0.4890578E+02  0.7546771E-02  0.1302988E+00
         21   -1    0    0  502  501  0.00000000000E+00  0.00000000000E+00  0.41750639832E+02  0.41750639832E+02  0.00000000000E+00 0. -1.
         21   -1    0    0  503  502 -0.00000000000E+00 -0.00000000000E+00 -0.10754495489E+03  0.10754495489E+03  0.00000000000E+00 0. -1.
         21    1    1    2  503  504  0.12221899226E+02  0.47353992272E+02 -0.83926939175E+02  0.97136535475E+02  0.00000000000E+00 0. -1.
         21    1    1    2  504  501 -0.12221899226E+02 -0.47353992272E+02  0.18132624113E+02  0.52159059252E+02  0.00000000000E+00 0. -1.
</event>
<event>
 4    1  0.3048956E+006  0.3499092E+02  0.7546771E-02  0.1380627E+00
         21   -1    0    0  504  501  0.00000000000E+00  0.00000000000E+00  0.31524291164E+03  0.31524291164E+03  0.00000000000E+00 0. -1.
         21   -1    0    0  501  502 -0.00000000000E+00 -0.00000000000E+00 -0.66552925550E+02  0.66552925550E+02  0.00000000000E+00 0.  1.
         21    1    1    2  503  502 -0.25235196338E+02  0.24239410684E+02 -0.60899017152E+02  0.70235706408E+02  0.00000000000E+00 0.  1.
         21    1    1    2  504  503  0.25235196338E+02 -0.24239410684E+02  0.30958900324E+03  0.31156013078E+03  0.00000000000E+00 0. -1.
</event>
<event>
 4    1  0.3048956E+006  0.2027254E+02  0.7546771E-02  0.1529909E+00
         21   -1    0    0  503  501  0.00000000000E+00  0.00000000000E+00  0.47940350965E+02  0.47940350965E+02  0.00000000000E+00 0. -1.
         21   -1    0    0  504  502 -0.00000000000E+00 -0.00000000000E+00 -0.29091329050E+03  0.29091329050E+03  0.00000000000E+00 0.  1.
         21    1    1    2  503  502  0.15883726593E+02  0.12596947576E+02  0.45425344502E+02  0.49743721029E+02  0.00000000000E+00 0. -1.
         21    1    1    2  504  501 -0.15883726593E+02 -0.12596947576E+02 -0.28839828404E+03  0.28910992043E+03  0.00000000000E+00 0.  1.
</event>
<event>
 4    1  0.3048956E+006  0.2548083E+02  0.7546771E-02  0.1463496E+00
         21   -1    0    0  504  501  0.00000000000E+00  0.00000000000E+00  0.84257204070E+03  0.84257204070E+03  0.00000000000E+00 0.  1.
         21   -1    0    0  503  502 -0.00000000000E+00 -0.00000000000E+00 -0.17608859896E+01  0.17608859896E+01  0.00000000000E+00 0.  1.
         21    1    1    2  503  501  0.23544062315E+02  0.97442177246E+01  0.73699901375E+03  0.73743936626E+03  0.00000000000E+00 0.  1.
         21    1    1    2  504  502 -0.23544062315E+02 -0.97442177246E+01  0.10381214096E+03  0.10689356042E+03  0.00000000000E+00 0.  1.
</event>
<event>
 4    1  0.3048956E+006  0.3168602E+02  0.7546771E-02  0.1405490E+00
         21   -1    0    0  502  501  0.00000000000E+00  0.00000000000E+00  0.13064028455E+02  0.13064028455E+02  0.00000000000E+00 0. -1.
         21   -1    0    0  504  502 -0.00000000000E+00 -0.00000000000E+00 -0.15628121666E+03  0.15628121666E+03  0.00000000000E+00 0. -1.
         21    1    1    2  503  501  0.27527148900E+02  0.15692665364E+02 -0.11244553404E+02  0.33622070936E+02  0.00000000000E+00 0. -1.
         21    1    1    2  504  503 -0.27527148900E+02 -0.15692665364E+02 -0.13197263480E+03  0.13572317418E+03  0.00000000000E+00 0. -1.
</event>
<event>
 4    1  0.3048956E+006  0.3154687E+02  0.7546771E-02  0.1406614E+00
         21   -1    0    0  503  501  0.00000000000E+00  0.00000000000E+00  0.18388894882E+03  0.18388894882E+03  0.00000000000E+00 0. -1.
         21   -1    0    0  501  502 -0.00000000000E+00 -0.00000000000E+00 -0.69524087368E+01  0.69524087368E+01  0.00000000000E+00 0.  1.
         21    1    1    2  503  504  0.11188829445E+02  0.29496016678E+02  0.13338358398E+03  0.13706343561E+03  0.00000000000E+00 0.  1.
         21    1    1    2  504  502 -0.11188829445E+02 -0.29496016678E+02  0.43552956100E+02  0.53777921950E+02  0.00000000000E+00 0. -1.
</event>
<event>
 4    1  0.3048956E+006  0.4927242E+02  0.7546771E-02  0.1301358E+00
         21   -1    0    0  503  501  0.00000000000E+00  0.00000000000E+00  0.13689078087E+03  0.13689078087E+03  0.00000000000E+00 0. -1.
         21   -1    0    0  504  502 -0.00000000000E+00 -0.00000000000E+00 -0.40966644299E+03  0.40966644299E+03  0.00000000000E+00 0.  1.
         21    1    1    2  503  502  0.12841305725E+02 -0.47569654810E+02  0.13091000779E+03  0.13987566382E+03  0.00000000000E+00 0. -1.
         21    1    1    2  504  501 -0.12841305725E+02  0.47569654810E+02 -0.40368566991E+03  0.40668156004E+03  0.00000000000E+00 0.  1.
</event>
<event>
 4    1  0.3048956E+006  0.3295487E+02  0.7546771E-02  0.1395541E+00
         21   -1    0    0  503  501  0.00000000000E+00  0.00000000000E+00  0.73488474233E+03  0.73488474233E+03  0.00000000000E+00 0. -1.
         21   -1    0    0  501  502 -0.00000000000E+00 -0.00000000000E+00 -0.24900047654E+01  0.24900047654E+01  0.00000000000E+00 0.  1.
         21    1    1    2  503  504  0.11366225287E+02  0.30932702549E+02  0.60126308956E+03  0.60216553043E+03  0.00000000000E+00 0. -1.
         21    1    1    2  504  502 -0.11366225287E+02 -0.30932702549E+02  0.13113164800E+03  0.13520921667E+03  0.00000000000E+00 0.  1.
</event>
<event>
 4    1  0.3048956E+006  0.3125038E+02  0.7546771E-02  0.1409033E+00
         21   -1    0    0  503  501  0.00000000000E+00  0.00000000000E+00  0.33935017988E+02  0.33935017988E+02  0.00000000000E+00 0.  1.
         21   -1    0    0  504  502 -0.00000000000E+00 -0.00000000000E+00 -0.35020351382E+02  0.35020351382E+02  0.00000000000E+00 0.  1.
         21    1    1    2  503  502  0.24168728649E+02 -0.19810568187E+02 -0.15098857436E+02  0.34706794036E+02  0.00000000000E+00 0.  1.
         21    1    1    2  504  501 -0.24168728649E+02  0.19810568187E+02  0.14013524041E+02  0.34248575334E+02  0.00000000000E+00 0.  1.
</event>
<event>
 4    1  0.3048956E+006  0.2181074E+02  0.7546771E-02  0.1507997E+00
         21   -1    0    0  503  501  0.00000000000E+00  0.00000000000E+00  0.18238106023E+03  0.18238106023E+03  0.00000000000E+00 0. -1.
         21   -1    0    0  504  502 -0.00000000000E+00 -0.00000000000E+00 -0.30783450057E+01  0.30783450057E+01  0.00000000000E+00 0. -1.
         21    1    1    2  503  502 -0.16366005100E+02 -0.14417427456E+02  0.12588569061E+03  0.12776116561E+03  0.00000000000E+00 0. -1.
         21    1    1    2  504  501  0.16366005100E+02  0.14417427456E+02  0.53417024611E+02  0.57698239624E+02  0.00000000000E+00 0. -1.
</event>
<event>
 4    1  0.3048956E+006  0.2505002E+02  0.7546771E-02  0.1468245E+00
         21   -1    0    0  502  501  0.00000000000E+00  0.00000000000E+00  0.11830111091E+03  0.11830111091E+03  0.00000000000E+00 0. -1.
         21   -1    0    0  503  502 -0.00000000000E+00 -0.00000000000E+00 -0.14567212271E+02  0.14567212271E+02  0.00000000000E+00 0. -1.
         21    1    1    2  503  504 -0.22779747385E+02  0.10420490801E+02 -0.11088136527E+01  0.25074548593E+02  0.00000000000E+00 0. -1.
         21    1    1    2  504  501  0.22779747385E+02 -0.10420490801E+02  0.10484271229E+03  0.10779377459E+03  0.00000000000E+00 0. -1.
</event>
<event>
 4    1  0.3048956E+006  0.2054590E+02  0.7546771E-02  0.1525848E+00
         21   -1    0    0  502  501  0.00000000000E+00  0.00000000000E+00  0.14132915238E+02  0.14132915238E+02  0.00000000000E+00 0.  1.
         21   -1    0    0  504  502 -0.00000000000E+00 -0.00000000000E+00 -0.31539944754E+02  0.31539944754E+02  0.00000000000E+00 0.  1.
         21    1    1    2  503  501 -0.79382721445E+01  0.18950403519E+02 -0.34469988462E+01  0.20833044886E+02  0.00000000000E+00 0.  1.
         21    1    1    2  504  503  0.79382721445E+01 -0.18950403519E+02 -0.13960030670E+02  0.24839815106E+02  0.00000000000E+00 0.  1.
</event>
<event>
 4    1  0.3048956E+006  0.2923130E+02  0.7546771E-02  0.1426396E+00
         21   -1    0    0  504  501  0.00000000000E+00  0.00000000000E+00  0.24294861292E+02  0.24294861292E+02  0.00000000000E+00 0.  1.
         21   -1    0    0  501  502 -0.00000000000E+00 -0.00000000000E+00 -0.58626231630E+02  0.58626231630E+02  0.00000000000E+00 0. -1.
         21    1    1    2  503  502 -0.99265454243E+01  0.27494232467E+02 -0.43390411786E+02  0.52318227779E+02  0.00000000000E+00 0. -1.
         21    1    1    2  504  503  0.99265454243E+01 -0.27494232467E+02  0.90590414481E+01  0.30602865143E+02  0.00000000000E+00 0.  1.
</event>
<event>
 4    1  0.3048956E+006  0.2335244E+02  0.7546771E-02  0.1488119E+00
         21   -1    0    0  503  501  0.00000000000E+00  0.00000000000E+00  0.66701049092E+03  0.66701049092E+03  0.00000000000E+00 0.  1.
         21   -1    0    0  504  502 -0.00000000000E+00 -0.00000000000E+00 -0.65543408464E+01  0.65543408464E+01  0.00000000000E+00 0.  1.
         21    1    1    2  503  502  0.65558265825E+01  0.22413339108E+02  0.15150027935E+02  0.27836306842E+02  0.00000000000E+00 0.  1.
         21    1    1    2  504  501 -0.65558265825E+01 -0.22413339108E+02  0.64530612214E+03  0.64572852493E+03  0.00000000000E+00 0.  1.
</event>
<event>
 4    1  0.3048956E+006  0.2042959E+02  0.7546771E-02  0.1527567E+00
         21   -1    0    0  503  501  0.00000000000E+00  0.00000000000E+00  0.37339980083E+01  0.37339980083E+01  0.00000000000E+00 0.  1.
         21   -1    0    0  504  502 -0.00000000000E+00 -0.00000000000E+00 -0.60178567191E+03  0.60178567191E+03  0.00000000000E+00 0.  1.
         21    1    1    2  503  502 -0.17558048141E+02 -0.10444289076E+02 -0.25826251449E+02  0.32929674956E+02  0.00000000000E+00 0.  1.
         21    1    1    2  504  501  0.17558048141E+02  0.10444289076E+02 -0.57222542246E+03  0.57258999497E+03  0.00000000000E+00 0.  1.
</event>
<event>
 4    1  0.3048956E+006  0.2587799E+02  0.7546771E-02  0.1459216E+00
         21   -1    0    0  504  501  0.00000000000E+00  0.00000000000E+00  0.50656698900E+02  0.50656698900E+02  0.00000000000E+00 0.  1.
         21   -1    0    0  501  502 -0.00000000000E+00 -0.00000000000E+00 -0.14563788642E+03  0.14563788642E+03  0.00000000000E+00 0. -1.
         21    1    1    2  503  502  0.10878253055E+02 -0.23480507309E+02 -0.14107744180E+03  0.14343122114E+03  0.00000000000E+00 0. -1.
         21    1    1    2  504  503 -0.10878253055E+02  0.23480507309E+02  0.46096254283E+02  0.52863364176E+02  0.00000000000E+00 0.  1.
</event>
<event>
 4    1  0.3048956E+006  0.2295919E+02  0.7546771E-02  0.1493011E+00
         21   -1    0    0  504  501  0.00000000000E+00  0.00000000000E+00  0.39580471101E+03  0.39580471101E+03  0.00000000000E+00 0.  1.
         21   -1    0    0  501  502 -0.00000000000E+00 -0.00000000000E+00 -0.25290817364E+01  0.25290817364E+01  0.00000000000E+00 0. -1.
         21    1    1    2  503  502 -0.16857471182E+02  0.15586848681E+02  0.59600825059E+02  0.63870044107E+02  0.00000000000E+00 0. -1.
         21    1    1    2  504  503  0.16857471182E+02 -0.15586848681E+02  0.33367480422E+03  0.33446374864E+03  0.00000000000E+00 0.  1.
</event>
<event>
 4    1  0.3048956E+006  0.2547169E+02  0.7546771E-02  0.1463595E+00
         21   -1    0    0  504  501  0.00000000000E+00  0.00000000000E+00  0.22505290733E+02  0.22505290733E+02  0.00000000000E+00 0. -1.
         21   -1    0    0  503  502 -0.00000000000E+00 -0.00000000000E+00 -0.32900891180E+02  0.32900891180E+02  0.00000000000E+00 0. -1.
         21    1    1    2  503  501 -0.14137091110E+02 -0.21188437152E+02 -0.14943595745E+02  0.29531648579E+02  0.00000000000E+00 0. -1.
         21    1    1    2  504  502  0.14137091110E+02  0.21188437152E+02  0.45479952984E+01  0.25874533333E+02  0.00000000000E+00 0. -1.
</event>
<event>
 4    1  0.3048956E+006  0.2602724E+02  0.7546771E-02  0.1457632E+00
         21   -1    0    0  503  501  0.00000000000E+00  0.00000000000E+00  0.74848698403E+03  0.74848698403E+03  0.00000000000E+00 0. -1.
         21   -1    0    0  504  502 -0.00000000000E+00 -0.00000000000E+00 -0.41481704315E+02  0.41481704315E+02  0.00000000000E+00 0.  1.
         21    1    1    2  503  502  0.24737169671E+02  0.80925560864E+01 -0.37149054069E+02  0.45359334713E+02  0.00000000000E+00 0.  1.
         21    1    1    2  504  501 -0.24737169671E+02 -0.80925560864E+01  0.74415433378E+03  0.74460935363E+03  0.00000000000E+00 0. -1.
</event>
<event>
 4    1  0.3048956E+006  0.2729331E+02  0.7546771E-02  0.1444684E+00
         21   -1    0    0  503  501  0.00000000000E+00  0.00000000000E+00  0.40817560441E+01  0.40817560441E+01  0.00000000000E+00 0.  1.
         21   -1    0    0  504  502 -0.00000000000E+00 -0.00000000000E+00 -0.18328226596E+03  0.18328226596E+03  0.00000000000E+00 0.  1.
         21    1    1    2  503  502  0.12448967883E+02  0.24288840625E+02 -0.83483880875E+02  0.87832129350E+02  0.00000000000E+00 0.  1.
         21    1    1    2  504  501 -0.12448967883E+02 -0.24288840625E+02 -0.95716629045E+02  0.99531892657E+02  0.00000000000E+00 0.  1.
</event>
<event>
 4    1  0.3048956E+006  0.2257732E+02  0.7546771E-02  0.1497875E+00
         21   -1    0    0  503  501  0.00000000000E+00  0.00000000000E+00  0.58217850051E+01  0.58217850051E+01  0.00000000000E+00 0.  1.
         21   -1    0    0  504  502 -0.00000000000E+00 -0.00000000000E+00 -0.19852354958E+03  0.19852354958E+03  0.00000000000E+00 0.  1.
         21    1    1    2  503  502  0.20136322256E+02  0.10210972661E+02 -0.19962796367E+02  0.30137164357E+02  0.00000000000E+00 0.  1.
         21    1    1    2  504  501 -0.20136322256E+02 -0.10210972661E+02 -0.17273896821E+03  0.17420817023E+03  0.00000000000E+00 0.  1.
</event>
<event>
 4    1  0.3048956E+006  0.3781788E+02  0.7546771E-02  0.1361770E+00
         21   -1    0    0  504  501  0.00000000000E+00  0.00000000000E+00  0.20243613452E+03  0.20243613452E+03  0.00000000000E+00 0.  1.
         21   -1    0    0  503  502 -0.00000000000E+00 -0.00000000000E+00 -0.79018406244E+01  0.79018406244E+01  0.00000000000E+00 0.  1.
         21    1    1    2  503  501 -0.58549234240E+01  0.37361906352E+02  0.13149419456E+03  0.13682439614E+03  0.00000000000E+00 0.  1.
         21    1    1    2  504  502  0.58549234240E+01 -0.37361906352E+02  0.63040099334E+02  0.73513579008E+02  0.00000000000E+00 0.  1.
</event>
<event>
 4    1  0.3048956E+006  0.2350742E+02  0.7546771E-02  0.1486223E+00
         21   -1    0    0  502  501  0.00000000000E+00  0.00000000000E+00  0.70009519496E+03  0.70009519496E+03  0.00000000000E+00 0.  1.
         21   -1    0    0  503  502 -0.00000000000E+00 -0.00000000000E+00 -0.85767722253E+00  0.85767722253E+00  0.00000000000E+00 0.  1.
         21    1    1    2  503  504 -0.20265915377E+02 -0.11911826115E+02  0.25067462507E+03  0.25177443591E+03  0.00000000000E+00 0.  1.
         21    1    1    2  504  501  0.20265915377E+02  0.11911826115E+02  0.44856289267E+03  0.44917843627E+03  0.00000000000E+00 0.  1.
</event>
<event>
 4    1  0.3048956E+006  0.2087890E+02  0.7546771E-02  0.1521001E+00
         21   -1    0    0  503  501  0.00000000000E+00  0.00000000000E+00  0.89663065272E+02  0.89663065272E+02  0.00000000000E+00 0.  1.
         21   -1    0    0  501  502 -0.00000000000E+00 -0.00000000000E+00 -0.11495830310E+02  0.11495830310E+02  0.00000000000E+00 0.  1.
         21    1    1    2  503  504  0.48903569772E+01 -0.20298096535E+02  0.77506595480E+02  0.80269550000E+02  0.00000000000E+00 0.  1.
         21    1    1    2  504  502 -0.48903569772E+01  0.20298096535E+02  0.66063948190E+00  0.20889345582E+02  0.00000000000E+00 0.  1.
</event>
<event>
 4    1  0.3048956E+006  0.2466423E+02  0.7546771E-02  0.1472595E+00
         21   -1    0    0  502  501  0.00000000000E+00  0.00000000000E+00  0.38749475351E+03  0.38749475351E+03  0.00000000000E+00 0.  1.
         21   -1    0    0  504  502 -0.00000000000E+00 -0.00000000000E+00 -0.30098321386E+01  0.30098321386E+01  0.00000000000E+00 0.  1.
         21    1    1    2  503  501 -0.11836185892E+02 -0.21638593884E+02  0.32729338567E+03  0.32822139532E+03  0.00000000000E+00 0.  1.
         21    1    1    2  504  503  0.11836185892E+02  0.21638593884E+02  0.57191535699E+02  0.62283190327E+02  0.00000000000E+00 0.  1.
</event>
<event>
 4    1  0.3048956E+006  0.2186894E+02  0.7546771E-02  0.1507211E+00
         21   -1    0    0  502  501  0.00000000000E+00  0.00000000000E+00  0.74215369045E+01  0.74215369045E+01  0.00000000000E+00 0. -1.
         21   -1    0    0  503  502 -0.00000000000E+00 -0.00000000000E+00 -0.20459779279E+03  0.20459779279E+03  0.00000000000E+00 0.  1.
         21    1    1    2  503  504 -0.18189002555E+02  0.12141282987E+02 -0.18632905313E+03  0.18760801318E+03  0.00000000000E+00 0.  1.
         21    1    1    2  504  501  0.18189002555E+02 -0.12141282987E+02 -0.10847202750E+02  0.24411316516E+02  0.00000000000E+00 0. -1.
</event>
<event>
 4    1  0.3048956E+006  0.2180345E+02  0.7546771E-02  0.1508096E+00
         21   -1    0    0  502  501  0.00000000000E+00  0.00000000000E+00  0.56588314002E+01  0.56588314002E+01  0.00000000000E+00 0. -1.
         21   -1    0    0  503  502 -0.00000000000E+00 -0.00000000000E+00 -0.16924596346E+03  0.16924596346E+03  0.00000000000E+00 0.  1.
         21    1    1    2  503  504 -0.21622541337E+02 -0.28028853535E+01 -0.14385582561E+03  0.14549875952E+03  0.00000000000E+00 0.  1.
         21    1    1    2  504  501  0.21622541337E+02  0.28028853535E+01 -0.19731306451E+02  0.29406035341E+02  0.00000000000E+00 0. -1.
</event>
<event>
 4    1  0.3048956E+006  0.2089115E+02  0.7546771E-02  0.1520825E+00
         21   -1    0    0  503  501  0.00000000000E+00  0.00000000000E+00  0.73951718458E+02  0.73951718458E+02  0.00000000000E+00 0.  1.
         21   -1    0    0  504  502 -0.00000000000E+00 -0.00000000000E+00 -0.59946383773E+01  0.59946383773E+01  0.00000000000E+00 0.  1.
         21    1    1    2  503  502 -0.16150834487E+02 -0.13251066987E+02  0.38955962505E+02  0.44204154168E+02  0.00000000000E+00 0.  1.
         21    1    1    2  504  501  0.16150834487E+02  0.13251066987E+02  0.29001117576E+02  0.35742202668E+02  0.00000000000E+00 0.  1.
</event>
<event>
 4    1  0.3048956E+006  0.2181117E+02  0.7546771E-02  0.1507991E+00
         21   -1    0    0  503  501  0.00000000000E+00  0.00000000000E+00  0.17049335518E+03  0.17049335518E+03  0.00000000000E+00 0.  1.
         21   -1    0    0  504  502 -0.00000000000E+00 -0.00000000000E+00 -0.32802952503E+01  0.32802952503E+01  0.00000000000E+00 0.  1.
         21    1    1    2  503  502  0.21369658282E+02 -0.43663184493E+01  0.11718762828E+03  0.11920011432E+03  0.00000000000E+00 0.  1.
         21    1    1    2  504  501 -0.21369658282E+02  0.43663184493E+01  0.50025431647E+02  0.54573536108E+02  0.00000000000E+00 0.  1.
</event>
<event>
 4    1  0.3048956E+006  0.2098754E+02  0.7546771E-02  0.1519443E+00
         21   -1    0    0  504  501  0.00000000000E+00  0.00000000000E+00  0.12088111678E+03  0.12088111678E+03  0.00000000000E+00 0. -1.
         21   -1    0    0  503  502 -0.00000000000E+00 -0.00000000000E+00 -0.95195420293E+01  0.95195420293E+01  0.00000000000E+00 0. -1.
         21    1    1    2  503  501 -0.19361507700E+02  0.80999253698E+01  0.10690437782E+03  0.10894504472E+03  0.00000000000E+00 0. -1.
         21    1    1    2  504  502  0.19361507700E+02 -0.80999253698E+01  0.44571969264E+01  0.21455614087E+02  0.00000000000E+00 0. -1.
</event>
<event>
 4    1  0.3048956E+006  0.2343251E+02  0.7546771E-02  0.1487137E+00
         21   -1    0    0  504  501  0.00000000000E+00  0.00000000000E+00  0.25843790226E+02  0.25843790226E+02  0.00000000000E+00 0.  1.
         21   -1    0    0  503  502 -0.00000000000E+00 -0.00000000000E+00 -0.47612972277E+02  0.47612972277E+02  0.00000000000E+00 0. -1.
         21    1    1    2  503  501 -0.14717505554E+01  0.23386247527E+02 -0.38216346950E+02  0.44828247761E+02  0.00000000000E+00 0. -1.
         21    1    1    2  504  502  0.14717505554E+01 -0.23386247527E+02  0.16447164900E+02  0.28628514742E+02  0.00000000000E+00 0.  1.
</event>
<event>
 4    1  0.3048956E+006  0.2633090E+02  0.7546771E-02  0.1454448E+00
         21   -1    0    0  504  501  0.00000000000E+00  0.00000000000E+00  0.32256367777E+03  0.32256367777E+03  0.00000000000E+00 0. -1.
         21   -1    0    0  503  502 -0.00000000000E+00 -0.00000000000E+00 -0.22474573400E+01  0.22474573400E+01  0.00000000000E+00 0. -1.
         21    1    1    2  503  501  0.23370675344E+02 -0.12129632165E+02  0.19408222038E+03  0.19586021727E+03  0.00000000000E+00 0. -1.
         21    1    1    2  504  502 -0.23370675344E+02  0.12129632165E+02  0.12623400006E+03  0.12895091784E+03  0.00000000000E+00 0. -1.
</event>
<event>
 4    1  0.3048956E+006  0.2611672E+02  0.7546771E-02  0.1456688E+00
         21   -1    0    0  502  501  0.00000000000E+00  0.00000000000E+00  0.16360383175E+03  0.16360383175E+03  0.00000000000E+00 0.  1.
         21   -1    0    0  503  502 -0.00000000000E+00 -0.00000000000E+00 -0.40882289314E+02  0.40882289314E+02  0.00000000000E+00 0.  1.
         21    1    1    2  503  504 -0.24889092225E+02 -0.79130394229E+01 -0.35528838984E+02  0.44095141504E+02  0.00000000000E+00 0.  1.
         21    1    1    2  504  501  0.24889092225E+02  0.79130394229E+01  0.15825038142E+03  0.16039097956E+03  0.00000000000E+00 0.  1.
</event>
<event>
 4    1  0.3048956E+006  0.2268217E+02  0.7546771E-02  0.1496528E+00
         21   -1    0    0  502  501  0.00000000000E+00  0.00000000000E+00  0.37424005020E+02  0.37424005020E+02  0.00000000000E+00 0.  1.
         21   -1    0    0  504  502 -0.00000000000E+00 -0.00000000000E+00 -0.44645871621E+02  0.44645871621E+02  0.00000000000E+00 0.  1.
         21    1    1    2  503  501  0.55309690652E+01 -0.21997481030E+02  0.30526589397E+02  0.38030953849E+02  0.00000000000E+00 0.  1.
         21    1    1    2  504  503 -0.55309690652E+01  0.21997481030E+02 -0.37748455998E+02  0.44038922792E+02  0.00000000000E+00 0.  1.
</event>
<event>
 4    1  0.3048956E+006  0.2241318E+02  0.7546771E-02  0.1500001E+00
         21   -1    0    0  504  501  0.00000000000E+00  0.00000000000E+00  0.24521967248E+02  0.24521967248E+02  0.00000000000E+00 0. -1.
         21   -1    0    0  503  502 -0.00000000000E+00 -0.00000000000E+00 -0.85434272579E+02  0.85434272579E+02  0.00000000000E+00 0. -1.
         21    1    1    2  503  501  0.15069114901E+02 -0.16591337779E+02  0.17479482195E+02  0.28423282904E+02  0.00000000000E+00 0. -1.
         21    1    1    2  504  502 -0.15069114901E+02  0.16591337779E+02 -0.78391787526E+02  0.81532956924E+02  0.00000000000E+00 0. -1.
</event>
<event>
 4    1  0.3048956E+006  0.4253331E+02  0.7546771E-02  0.1334248E+00
         21   -1    0    0  504  501  0.00000000000E+00  0.00000000000E+00  0.68969307572E+02  0.68969307572E+02  0.00000000000E+00 0. -1.
         21   -1    0    0  503  502 -0.00000000000E+00 -0.00000000000E+00 -0.49605591434E+02  0.49605591434E+02  0.00000000000E+00 0. -1.
         21    1    1    2  503  501 -0.37060038705E+02  0.20871903528E+02 -0.31016449201E+02  0.52641266576E+02  0.00000000000E+00 0. -1.
         21    1    1    2  504  502  0.37060038705E+02 -0.20871903528E+02  0.50380165339E+02  0.65933632429E+02  0.00000000000E+00 0. -1.
</event>
<event>
 4    1  0.3048956E+006  0.2136987E+02  0.7546771E-02  0.1514049E+00
         21   -1    0    0  503  501  0.00000000000E+00  0.00000000000E+00  0.28934320002E+02  0.28934320002E+02  0.00000000000E+00 0. -1.
         21   -1    0    0  504  502 -0.00000000000E+00 -0.00000000000E+00 -0.86528878028E+03  0.86528878028E+03  0.00000000000E+00 0. -1.
         21    1    1    2  503  502  0.21336102766E+02 -0.12008249005E+01 -0.86119231469E+03  0.86145741284E+03  0.00000000000E+00 0. -1.
         21    1    1    2  504  501 -0.21336102766E+02  0.12008249005E+01  0.24837854411E+02  0.32765687440E+02  0.00000000000E+00 0. -1.
</event>
<event>
 4    1  0.3048956E+006  0.3842255E+02  0.7546771E-02  0.1357986E+00
         21   -1    0    0  503  501  0.00000000000E+00  0.00000000000E+00  0.24167320312E+03  0.24167320312E+03  0.00000000000E+00 0.  1.
         21   -1    0    0  504  502 -0.00000000000E+00 -0.00000000000E+00 -0.63304994705E+01  0.63304994705E+01  0.00000000000E+00 0.  1.
         21    1    1    2  503  502  0.10744493042E+02 -0.36889680031E+02  0.94457021873E+02  0.10197265126E+03  0.00000000000E+00 0.  1.
         21    1    1    2  504  501 -0.10744493042E+02  0.36889680031E+02  0.14088568178E+03  0.14603105133E+03  0.00000000000E+00 0.  1.
</event>
<event>
 4    1  0.3048956E+006  0.3550545E+02  0.7546771E-02  0.1377044E+00
         21   -1    0    0  502  501  0.00000000000E+00  0.00000000000E+00  0.14243643332E+03  0.14243643332E+03  0.00000000000E+00 0. -1.
         21   -1    0    0  504  502 -0.00000000000E+00 -0.00000000000E+00 -0.37998668610E+02  0.37998668610E+02  0.00000000000E+00 0. -1.
         21    1    1    2  503  501  0.13598075326E+02  0.32798308614E+02  0.13123438746E+03  0.13595256950E+03  0.00000000000E+00 0. -1.
         21    1    1    2  504  503 -0.13598075326E+02 -0.32798308614E+02 -0.26796622752E+02  0.44482532431E+02  0.00000000000E+00 0. -1.
</event>
<event>
 4    1  0.3048956E+006  0.2464796E+02  0.7546771E-02  0.1472780E+00
         21   -1    0    0  502  501  0.00000000000E+00  0.00000000000E+00  0.12498752162E+03  0.12498752162E+03  0.00000000000E+00 0.  1.
         21   -1    0    0  504  502 -0.00000000000E+00 -0.00000000000E+00 -0.13522417895E+02  0.13522417895E+02  0.00000000000E+00 0.  1.
         21    1    1    2  503  501 -0.96666983888E+01  0.22673264180E+02  0.11116023987E+03  0.11386009351E+03  0.00000000000E+00 0.  1.
         21    1    1    2  504  503  0.96666983888E+01 -0.22673264180E+02  0.30486386016E+00  0.24649846009E+02  0.00000000000E+00 0.  1.
</event>
<event>
 4    1  0.3048956E+006  0.2633997E+02  0.7546771E-02  0.1454353E+00
         21   -1    0    0  504  501  0.00000000000E+00  0.00000000000E+00  0.94726599030E+01  0.94726599030E+01  0.00000000000E+00 0. -1.
         21   -1    0    0  501  502 -0.00000000000E+00 -0.00000000000E+00 -0.55287525435E+03  0.55287525435E+03  0.00000000000E+00 0. -1.
         21    1    1    2  503  502  0.24267094924E+02  0.10242185414E+02 -0.53358970181E+03  0.53423942585E+03  0.00000000000E+00 0. -1.
         21    1    1    2  504  503 -0.24267094924E+02 -0.10242185414E+02 -0.98128926331E+01  0.28108488396E+02  0.00000000000E+00 0. -1.
</event>
<event>
 4    1  0.3048956E+006  0.2119752E+02  0.7546771E-02  0.1516463E+00
         21   -1    0    0  502  501  0.00000000000E+00  0.00000000000E+00  0.10828509113E+02  0.10828509113E+02  0.00000000000E+00 0. -1.
         21   -1    0    0  503  502 -0.00000000000E+00 -0.00000000000E+00 -0.28668484370E+03  0.28668484370E+03  0.00000000000E+00 0. -1.
         21    1    1    2  503  504 -0.21103735611E+02 -0.19917509429E+01 -0.27549852563E+03  0.27631281612E+03  0.00000000000E+00 0. -1.
         21    1    1    2  504  501  0.21103735611E+02  0.19917509429E+01 -0.35780895161E+00  0.21200536687E+02  0.00000000000E+00 0. -1.
</event>
<event>
 4    1  0.3048956E+006  0.2824712E+02  0.7546771E-02  0.1435467E+00
         21   -1    0    0  502  501  0.00000000000E+00  0.00000000000E+00  0.44686353724E+02  0.44686353724E+02  0.00000000000E+00 0.  1.
         21   -1    0    0  503  502 -0.00000000000E+00 -0.00000000000E+00 -0.53030339863E+03  0.53030339863E+03  0.00000000000E+00 0.  1.
         21    1    1    2  503  504  0.45640122827E+01 -0.27875968290E+02 -0.52542191413E+03  0.52618066067E+03  0.00000000000E+00 0.  1.
         21    1    1    2  504  501 -0.45640122827E+01  0.27875968290E+02  0.39804869229E+02  0.48809091679E+02  0.00000000000E+00 0.  1.
</event>
<event>
 4    1  0.3048956E+006  0.3232914E+02  0.7546771E-02  0.1400380E+00
         21   -1    0    0  504  501  0.00000000000E+00  0.00000000000E+00  0.29502598395E+03  0.29502598395E+03  0.00000000000E+00 0.  1.
         21   -1    0    0  503  502 -0.00000000000E+00 -0.00000000000E+00 -0.10458487548E+02  0.10458487548E+02  0.00000000000E+00 0. -1.
         21    1    1    2  503  501 -0.29025320355E+02 -0.14237420337E+02  0.18076442806E+02  0.37039588876E+02  0.00000000000E+00 0. -1.
         21    1    1    2  504  502  0.29025320355E+02  0.14237420337E+02  0.26649105360E+03  0.26844488263E+03  0.00000000000E+00 0.  1.
</event>
<event>
 4    1  0.3048956E+006  0.2446445E+02  0.7546771E-02  0.1474885E+00
         21   -1    0    0  504  501  0.00000000000E+00  0.00000000000E+00  0.78860125028E+01  0.78860125028E+01  0.00000000000E+00 0. -1.
         21   -1    0    0  503  502 -0.00000000000E+00 -0.00000000000E+00 -0.24198614713E+03  0.24198614713E+03  0.00000000000E+00 0.  1.
         21    1    1    2  503  501 -0.22608452500E+02  0.93470541775E+01 -0.22055612334E+03  0.22190879453E+03  0.00000000000E+00 0.  1.
         21    1    1    2  504  502  0.22608452500E+02 -0.93470541775E+01 -0.13544011288E+02  0.27963365106E+02  0.00000000000E+00 0. -1.
</event>
<event>
 4    1  0.3048956E+006  0.2474397E+02  0.7546771E-02  0.1471688E+00
         21   -1    0    0  502  501  0.00000000000E+00  0.00000000000E+00  0.16627110362E+04  0.16627110362E+04  0.00000000000E+00 0.  1.
         21   -1    0    0  504  502 -0.00000000000E+00 -0.00000000000E+00 -0.59219998580E+00  0.59219998580E+00  0.00000000000E+00 0. -1.
         21    1    1    2  503  501 -0.44496580215E-01 -0.24743934446E+02  0.13425053286E+04  0.13427333397E+04  0.00000000000E+00 0.  1.
         21    1    1    2  504  503  0.44496580215E-01  0.24743934446E+02  0.31961350769E+03  0.32056989654E+03  0.00000000000E+00 0. -1.
</event>
<event>
 4    1  0.3048956E+006  0.2325489E+02  0.7546771E-02  0.1489322E+00
         21   -1    0    0  503  501  0.00000000000E+00  0.00000000000E+00  0.12121051898E+02  0.12121051898E+02  0.00000000000E+00 0. -1.
         21   -1    0    0  504  502 -0.00000000000E+00 -0.00000000000E+00 -0.57040045114E+02  0.57040045114E+02  0.00000000000E+00 0.  1.
         21    1    1    2  503  502  0.17660922317E+02  0.15128830924E+02 -0.38598547770E+02  0.45062596377E+02  0.00000000000E+00 0.  1.
         21    1    1    2  504  501 -0.17660922317E+02 -0.15128830924E+02 -0.63204454453E+01  0.24098500635E+02  0.00000000000E+00 0. -1.
</event>
<event>
 4    1  0.3048956E+006  0.2379344E+02  0.7546771E-02  0.1482768E+00
         21   -1    0    0  502  501  0.00000000000E+00  0.00000000000E+00  0.33164726975E+01  0.33164726975E+01  0.00000000000E+00 0.  1.
         21   -1    0    0  503  502 -0.00000000000E+00 -0.00000000000E+00 -0.23359635929E+03  0.23359635929E+03  0.00000000000E+00 0. -1.
         21    1    1    2  503  504 -0.23738720919E+02  0.16127570165E+01 -0.17660553913E+03  0.17820113442E+03  0.00000000000E+00 0. -1.
         21    1    1    2  504  501  0.23738720919E+02 -0.16127570165E+01 -0.53674347460E+02  0.58711697568E+02  0.00000000000E+00 0.  1.
</event>
<event>
 4    1  0.3048956E+006  0.4444803E+02  0.7546771E-02  0.1324223E+00
         21   -1    0    0  504  501  0.00000000000E+00  0.00000000000E+00  0.15626836663E+04  0.15626836663E+04  0.00000000000E+00 0. -1.
         21   -1    0    0  503  502 -0.00000000000E+00 -0.00000000000E+00 -0.14998766554E+01  0.14998766554E+01  0.00000000000E+00 0. -1.
         21    1    1    2  503  501  0.42613540622E+02  0.12637773788E+02  0.10905761177E+04  0.10914815142E+04  0.00000000000E+00 0. -1.
         21    1    1    2  504  502 -0.42613540622E+02 -0.12637773788E+02  0.47060767191E+03  0.47270202880E+03  0.00000000000E+00 0. -1.
</event>
<event>
 4    1  0.3048956E+006  0.2476164E+02  0.7546771E-02  0.1471488E+00
         21   -1    0    0  504  501  0.00000000000E+00  0.00000000000E+00  0.12607899562E+04  0.12607899562E+04  0.00000000000E+00 0. -1.
         21   -1    0    0  503  502 -0.00000000000E+00 -0.00000000000E+00 -0.58032662604E+00  0.58032662604E+00  0.00000000000E+00 0. -1.
         21    1    1    2  503  501  0.24042478435E+02  0.59243510778E+01  0.37625815026E+03  0.37707205457E+03  0.00000000000E+00 0. -1.
         21    1    1    2  504  502 -0.24042478435E+02 -0.59243510778E+01  0.88395147929E+03  0.88429822822E+03  0.00000000000E+00 0. -1.
</event>
<event>
 4    1  0.3048956E+006  0.2117834E+02  0.7546771E-02  0.1516734E+00
         21   -1    0    0  503  501  0.00000000000E+00  0.00000000000E+00  0.33354652257E+01  0.33354652257E+01  0.00000000000E+00 0. -1.
         21   -1    0    0  504  502 -0.00000000000E+00 -0.00000000000E+00 -0.18416345642E+03  0.18416345642E+03  0.00000000000E+00 0.  1.
         21    1    1    2  503  502  0.15121015953E+02  0.14828247391E+02 -0.13911231639E+03  0.14071516839E+03  0.00000000000E+00 0.  1.
         21    1    1    2  504  501 -0.15121015953E+02 -0.14828247391E+02 -0.41715674807E+02  0.46783753257E+02  0.00000000000E+00 0. -1.
</event>
<event>
 4    1  0.3048956E+006  0.4843324E+02  0.7546771E-02  0.1305112E+00
         21   -1    0    0  504  501  0.00000000000E+00  0.00000000000E+00  0.70618497243E+02  0.70618497243E+02  0.00000000000E+00 0. -1.
         21   -1    0    0  501  502 -0.00000000000E+00 -0.00000000000E+00 -0.34117997986E+02  0.34117997986E+02  0.00000000000E+00 0. -1.
         21    1    1    2  503  502  0.35165312971E+02 -0.33304351838E+02  0.97430547952E+01  0.49403503969E+02  0.00000000000E+00 0. -1.
         21    1    1    2  504  503 -0.35165312971E+02  0.33304351838E+02  0.26757444462E+02  0.55332991260E+02  0.00000000000E+00 0. -1.
</event>
<event>
 4    1  0.3048956E+006  0.2092441E+02  0.7546771E-02  0.1520347E+00
         21   -1    0    0  502  501  0.00000000000E+00  0.00000000000E+00  0.14658084319E+02  0.14658084319E+02  0.00000000000E+00 0.  1.
         21   -1    0    0  504  502 -0.00000000000E+00 -0.00000000000E+00 -0.64512119962E+03  0.64512119962E+03  0.00000000000E+00 0.  1.
         21    1    1    2  503  501 -0.20911695701E+02  0.72923309373E+00  0.69305116392E+01  0.22042295470E+02  0.00000000000E+00 0.  1.
         21    1    1    2  504  503  0.20911695701E+02 -0.72923309373E+00 -0.63739362694E+03  0.63773698847E+03  0.00000000000E+00 0.  1.
</event>
<event>
 4    1  0.3048956E+006  0.2654777E+02  0.7546771E-02  0.1452204E+00
         21   -1    0    0  503  501  0.00000000000E+00  0.00000000000E+00  0.25961698199E+02  0.25961698199E+02  0.00000000000E+00 0. -1.
         21   -1    0    0  504  502 -0.00000000000E+00 -0.00000000000E+00 -0.31354319391E+03  0.31354319391E+03  0.00000000000E+00 0. -1.
         21    1    1    2  503  502  0.50680821027E+00  0.26542936484E+02 -0.30602812306E+03  0.30717746733E+03  0.00000000000E+00 0. -1.
         21    1    1    2  504  501 -0.50680821027E+00 -0.26542936484E+02  0.18446627354E+02  0.32327424773E+02  0.00000000000E+00 0. -1.
</event>
<event>
 4    1  0.3048956E+006  0.2121906E+02  0.7546771E-02  0.1516160E+00
         21   -1    0    0  503  501  0.00000000000E+00  0.00000000000E+00  0.15253099000E+02  0.15253099000E+02  0.00000000000E+00 0.  1.
         21   -1    0    0  504  502 -0.00000000000E+00 -0.00000000000E+00 -0.54108369318E+02  0.54108369318E+02  0.00000000000E+00 0. -1.
         21    1    1    2  503  502  0.12798631378E+02  0.16924641344E+02  0.39518131442E+01  0.21583912455E+02  0.00000000000E+00 0.  1.
         21    1    1    2  504  501 -0.12798631378E+02 -0.16924641344E+02 -0.42807083461E+02  0.47777555863E+02  0.00000000000E+00 0. -1.
</event>
<event>
 4    1  0.3048956E+006  0.2316252E+02  0.7546771E-02  0.1490467E+00
         21   -1    0    0  503  501  0.00000000000E+00  0.00000000000E+00  0.98283887526E+01  0.98283887526E+01  0.00000000000E+00 0.  1.
         21   -1    0    0  504  502 -0.00000000000E+00 -0.00000000000E+00 -0.73069489673E+03  0.73069489673E+03  0.00000000000E+00 0.  1.
         21    1    1    2  503  502 -0.79390786479E+01 -0.21759445424E+02 -0.71659615897E+03  0.71697040210E+03  0.00000000000E+00 0.  1.
         21    1    1    2  504  501  0.79390786479E+01  0.21759445424E+02 -0.42703490044E+01  0.23552883381E+02  0.00000000000E+00 0.  1.
</event>
<event>
 4    1  0.3048956E+006  0.2047553E+02  0.7546771E-02  0.1526886E+00
         21   -1    0    0  504  501  0.00000000000E+00  0.00000000000E+00  0.19532381168E+02  0.19532381168E+02  0.00000000000E+00 0.  1.
         21   -1    0    0  503  502 -0.00000000000E+00 -0.00000000000E+00 -0.50810725642E+02  0.50810725642E+02  0.00000000000E+00 0. -1.
         21    1    1    2  503  501 -0.96579932544E+01  0.18054657717E+02 -0.42368742966E+02  0.47056964198E+02  0.00000000000E+00 0. -1.
         21    1    1    2  504  502  0.96579932544E+01 -0.18054657717E+02  0.11090398492E+02  0.23286142611E+02  0.00000000000E+00 0.  1.
</event>
<event>
 4    1  0.3048956E+006  0.2018453E+02  0.7546771E-02  0.1531233E+00
         21   -1    0    0  503  501  0.00000000000E+00  0.00000000000E+00  0.53430558687E+03  0.53430558687E+03  0.00000000000E+00 0.  1.
         21   -1    0    0  504  502 -0.00000000000E+00 -0.00000000000E+00 -0.68613678530E+01  0.68613678530E+01  0.00000000000E+00 0.  1.
         21    1    1    2  503  502  0.15168738521E+02 -0.13316332768E+02  0.51882774042E+03  0.51922022262E+03  0.00000000000E+00 0.  1.
         21    1    1    2  504  501 -0.15168738521E+02  0.13316332768E+02  0.86164785988E+01  0.21946732106E+02  0.00000000000E+00 0.  1.
</event>
<event>
 4    1  0.3048956E+006  0.2565195E+02  0.7546771E-02  0.1461641E+00
         21   -1    0    0  504  501  0.00000000000E+00  0.00000000000E+00  0.50073860146E+03  0.50073860146E+03  0.00000000000E+00 0. -1.
         21   -1    0    0  501  502 -0.00000000000E+00 -0.00000000000E+00 -0.40226543995E+01  0.40226543995E+01  0.00000000000E+00 0.  1.
         21    1    1    2  503  502  0.13170892292E+02 -0.22012494906E+02  0.41263667601E+02  0.48587164968E+02  0.00000000000E+00 0.  1.
         21    1    1    2  504  503 -0.13170892292E+02  0.22012494906E+02  0.45545227945E+03  0.45617409089E+03  0.00000000000E+00 0. -1.
</event>
<event>
 4    1  0.3048956E+006  0.2228752E+02  0.7546771E-02  0.1501644E+00
         21   -1    0    0  504  501  0.00000000000E+00  0.00000000000E+00  0.87951627938E+03  0.87951627938E+03  0.00000000000E+00 0. -1.
         21   -1    0    0  501  502 -0.00000000000E+00 -0.00000000000E+00 -0.77237718131E+00  0.77237718131E+00  0.00000000000E+00 0. -1.
         21    1    1    2  503  502 -0.14496625029E+01  0.22240328489E+02  0.21118516563E+03  0.21235797116E+03  0.00000000000E+00 0. -1.
         21    1    1    2  504  503  0.14496625029E+01 -0.22240328489E+02  0.66755873657E+03  0.66793068540E+03  0.00000000000E+00 0. -1.
</event>
<event>
 4    1  0.3048956E+006  0.2048394E+02  0.7546771E-02  0.1526762E+00
         21   -1    0    0  502  501  0.00000000000E+00  0.00000000000E+00  0.26439732269E+02  0.26439732269E+02  0.00000000000E+00 0.  1.
         21   -1    0    0  504  502 -0.00000000000E+00 -0.00000000000E+00 -0.16893259622E+02  0.16893259622E+02  0.00000000000E+00 0.  1.
         21    1    1    2  503  501  0.11094572277E+02  0.17219244606E+02  0.10106316292E+02  0.22841399866E+02  0.00000000000E+00 0.  1.
         21    1    1    2  504  503 -0.11094572277E+02 -0.17219244606E+02 -0.55984364590E+00  0.20491592025E+02  0.00000000000E+00 0.  1.
</event>
<event>
 4    1  0.3048956E+006  0.2159121E+02  0.7546771E-02  0.1510989E+00
         21   -1    0    0  503  501  0.00000000000E+00  0.00000000000E+00  0.45792183758E+03  0.45792183758E+03  0.00000000000E+00 0. -1.
         21   -1    0    0  501  502 -0.00000000000E+00 -0.00000000000E+00 -0.64643103684E+01  0.64643103684E+01  0.00000000000E+00 0.  1.
         21    1    1    2  503  504  0.35760373853E+01 -0.21293007517E+02  0.43885552250E+03  0.43938633325E+03  0.00000000000E+00 0. -1.
         21    1    1    2  504  502 -0.35760373853E+01  0.21293007517E+02  0.12602004710E+02  0.24999814703E+02  0.00000000000E+00 0.  1.
</event>
<event>
 4    1  0.3048956E+006  0.2167883E+02  0.7546771E-02  0.1509790E+00
         21   -1    0    0  504  501  0.00000000000E+00  0.00000000000E+00  0.75706781610E+00  0.75706781610E+00  0.00000000000E+00 0. -1.
         21   -1    0    0  503  502 -0.00000000000E+00 -0.00000000000E+00 -0.65431710148E+03  0.65431710148E+03  0.00000000000E+00 0. -1.
         21    1    1    2  503  501  0.20467480114E+02 -0.71452177673E+01 -0.40093407430E+03  0.40151974274E+03  0.00000000000E+00 0. -1.
         21    1    1    2  504  502 -0.20467480114E+02  0.71452177673E+01 -0.25262595937E+03  0.25355442656E+03  0.00000000000E+00 0. -1.
</event>
<event>
 4    1  0.3048956E+006  0.2400899E+02  0.7546771E-02  0.1480202E+00
         21   -1    0    0  503  501  0.00000000000E+00  0.00000000000E+00  0.16830695021E+03  0.16830695021E+03  0.00000000000E+00 0.  1.
         21   -1    0    0  504  502 -0.00000000000E+00 -0.00000000000E+00 -0.46834834037E+01  0.46834834037E+01  0.00000000000E+00 0.  1.
         21    1    1    2  503  502  0.10204888602E+00 -0.24008774043E+02  0.36973189695E+02  0.44084559669E+02  0.00000000000E+00 0.  1.
         21    1    1    2  504  501 -0.10204888602E+00  0.24008774043E+02  0.12665027711E+03  0.12890587394E+03  0.00000000000E+00 0.  1.
</event>
<event>
 4    1  0.3048956E+006  0.3207315E+02  0.7546771E-02  0.1402397E+00
         21   -1    0    0  504  501  0.00000000000E+00  0.00000000000E+00  0.16360187871E+03  0.16360187871E+03  0.00000000000E+00 0.  1.
         21   -1    0    0  501  502 -0.00000000000E+00 -0.00000000000E+00 -0.73035635573E+02  0.73035635573E+02  0.00000000000E+00 0. -1.
         21    1    1    2  503  502 -0.66243279271E+00 -0.32066308152E+02 -0.67827910324E+02  0.75028743523E+02  0.00000000000E+00 0. -1.
         21    1    1    2  504  503  0.66243279271E+00  0.32066308152E+02  0.15839415347E+03  0.16160877076E+03  0.00000000000E+00 0.  1.
</event>
<event>
 4    1  0.3048956E+006  0.2396722E+02  0.7546771E-02  0.1480697E+00
         21   -1    0    0  503  501  0.00000000000E+00  0.00000000000E+00  0.60455312589E+02  0.60455312589E+02  0.00000000000E+00 0.  1.
         21   -1    0    0  501  502 -0.00000000000E+00 -0.00000000000E+00 -0.13699096669E+02  0.13699096669E+02  0.00000000000E+00 0.  1.
         21    1    1    2  503  504 -0.18172522553E+02  0.15626488498E+02  0.43901610271E+02  0.50017787867E+02  0.00000000000E+00 0.  1.
         21    1    1    2  504  502  0.18172522553E+02 -0.15626488498E+02  0.28546056493E+01  0.24136621391E+02  0.00000000000E+00 0.  1.
</event>
<event>
 4    1  0.3048956E+006  0.2365034E+02  0.7546771E-02  0.1484489E+00
         21   -1    0    0  503  501  0.00000000000E+00  0.00000000000E+00  0.43644397682E+03  0.43644397682E+03  0.00000000000E+00 0. -1.
         21   -1    0    0  501  502 -0.00000000000E+00 -0.00000000000E+00 -0.13942030014E+02  0.13942030014E+02  0.00000000000E+00 0.  1.
         21    1    1    2  503  504 -0.18166519803E+02 -0.15143180379E+02  0.42584441207E+03  0.42650064672E+03  0.00000000000E+00 0. -1.
         21    1    1    2  504  502  0.18166519803E+02  0.15143180379E+02 -0.33424652712E+01  0.23885360116E+02  0.00000000000E+00 0.  1.
</event>
<event>
 4    1  0.3048956E+006  0.2505335E+02  0.7546771E-02  0.1468207E+00
         21   -1    0    0  504  501  0.00000000000E+00  0.00000000000E+00  0.18402114352E+03  0.18402114352E+03  0.00000000000E+00 0.  1.
         21   -1    0    0  503  502 -0.00000000000E+00 -0.00000000000E+00 -0.14652146604E+02  0.14652146604E+02  0.00000000000E+00 0. -1.
         21    1    1    2  503  501 -0.18351048195E+02 -0.17056064038E+02  0.17169403952E+03  0.17351228630E+03  0.00000000000E+00 0.  1.
         21    1    1    2  504  502  0.18351048195E+02  0.17056064038E+02 -0.23250426040E+01  0.25161003824E+02  0.00000000000E+00 0. -1.
</event>
<event>
 4    1  0.3048956E+006  0.2653363E+02  0.7546771E-02  0.1452350E+00
         21   -1    0    0  503  501  0.00000000000E+00  0.00000000000E+00  0.69137156452E+00  0.69137156452E+00  0.00000000000E+00 0. -1.
         21   -1    0    0  501  502 -0.00000000000E+00 -0.00000000000E+00 -0.13268397655E+04  0.13268397655E+04  0.00000000000E+00 0. -1.
         21    1    1    2  503  504 -0.14410211865E+02 -0.22279570429E+02 -0.34299969600E+03  0.34402445396E+03  0.00000000000E+00 0. -1.
         21    1    1    2  504  502  0.14410211865E+02  0.22279570429E+02 -0.98314869798E+03  0.98350668315E+03  0.00000000000E+00 0. -1.
</event>
<event>
 4    1  0.3048956E+006  0.2524211E+02  0.7546771E-02  0.1466113E+00
         21   -1    0    0  504  501  0.00000000000E+00  0.00000000000E+00  0.41782252635E+03  0.41782252635E+03  0.00000000000E+00 0.  1.
         21   -1    0    0  501  502 -0.00000000000E+00 -0.00000000000E+00 -0.67566221382E+01  0.67566221382E+01  0.00000000000E+00 0. -1.
         21    1    1    2  503  502 -0.25133403334E+02 -0.23400712027E+01  0.18730071074E+02  0.31432140538E+02  0.00000000000E+00 0. -1.
         21    1    1    2  504  503  0.25133403334E+02  0.23400712027E+01  0.39233583314E+03  0.39314700795E+03  0.00000000000E+00 0.  1.
</event>
<event>
 4    1  0.3048956E+006  0.2487767E+02  0.7546771E-02  0.1470177E+00
         21   -1    0    0  503  501  0.00000000000E+00  0.00000000000E+00  0.23048000591E+00  0.23048000591E+00  0.00000000000E+00 0. -1.
         21   -1    0    0  504  502 -0.00000000000E+00 -0.00000000000E+00 -0.27882684164E+04  0.27882684164E+04  0.00000000000E+00 0. -1.
         21    1    1    2  503  502  0.21828717282E+02  0.11933370816E+02 -0.11260317061E+04  0.11263064864E+04  0.00000000000E+00 0. -1.
         21    1    1    2  504  501 -0.21828717282E+02 -0.11933370816E+02 -0.16620062303E+04  0.16621924100E+04  0.00000000000E+00 0. -1.
</event>
<event>
 4    1  0.3048956E+006  0.2983107E+02  0.7546771E-02  0.1421070E+00
         21   -1    0    0  503  501  0.00000000000E+00  0.00000000000E+00  0.26501504125E+03  0.26501504125E+03  0.00000000000E+00 0. -1.
         21   -1    0    0  504  502 -0.00000000000E+00 -0.00000000000E+00 -0.12877777894E+03  0.12877777894E+03  0.00000000000E+00 0. -1.
         21    1    1    2  503  502  0.20756124489E+02  0.21426062659E+02 -0.12619377463E+03  0.12967174566E+03  0.00000000000E+00 0. -1.
         21    1    1    2  504  501 -0.20756124489E+02 -0.21426062659E+02  0.26243103694E+03  0.26412107454E+03  0.00000000000E+00 0. -1.
</event>
<event>
 4    1  0.3048956E+006  0.2179564E+02  0.7546771E-02  0.1508202E+00
         21   -1    0    0  502  501  0.00000000000E+00  0.00000000000E+00  0.13752070105E+03  0.13752070105E+03  0.00000000000E+00 0. -1.
         21   -1    0    0  504  502 -0.00000000000E+00 -0.00000000000E+00 -0.40197059345E+01  0.40197059345E+01  0.00000000000E+00 0. -1.
         21    1    1    2  503  501 -0.11234391309E+02 -0.18677211264E+02  0.93290437646E+02  0.95802690593E+02  0.00000000000E+00 0. -1.
         21    1    1    2  504  503  0.11234391309E+02  0.18677211264E+02  0.40210557467E+02  0.45737716389E+02  0.00000000000E+00 0. -1.
</event>
<event>
 4    1  0.3048956E+006  0.2844004E+02  0.7546771E-02  0.1433655E+00
         21   -1    0    0  504  501  0.00000000000E+00  0.00000000000E+00  0.12653245219E+02  0.12653245219E+02  0.00000000000E+00 0. -1.
         21   -1    0    0  501  502 -0.00000000000E+00 -0.00000000000E+00 -0.33534137854E+03  0.33534137854E+03  0.00000000000E+00 0.  1.
         21    1    1    2  503  502 -0.14296752970E+02  0.24585333960E+02 -0.31788158355E+03  0.31915127596E+03  0.00000000000E+00 0.  1.
         21    1    1    2  504  503  0.14296752970E+02 -0.24585333960E+02 -0.48065497782E+01  0.28843347798E+02  0.00000000000E+00 0. -1.
</event>
<event>
 4    1  0.3048956E+006  0.3109309E+02  0.7546771E-02  0.1410329E+00
         21   -1    0    0  504  501  0.00000000000E+00  0.00000000000E+00  0.13006605281E+03  0.13006605281E+03  0.00000000000E+00 0.  1.
         21   -1    0    0  501  502 -0.00000000000E+00 -0.00000000000E+00 -0.11856342613E+02  0.11856342613E+02  0.00000000000E+00 0.  1.
         21    1    1    2  503  502 -0.23538986040E+02  0.20314931161E+02  0.15761641057E+02  0.34859856865E+02  0.00000000000E+00 0.  1.
         21    1    1    2  504  503  0.23538986040E+02 -0.20314931161E+02  0.10244806914E+03  0.10706253856E+03  0.00000000000E+00 0.  1.
</event>
<event>
 4    1  0.3048956E+006  0.2315097E+02  0.7546771E-02  0.1490611E+00
         21   -1    0    0  503  501  0.00000000000E+00  0.00000000000E+00  0.74718284854E+02  0.74718284854E+02  0.00000000000E+00 0. -1.
         21   -1    0    0  504  502 -0.00000000000E+00 -0.00000000000E+00 -0.11519355836E+03  0.11519355836E+03  0.00000000000E+00 0. -1.
         21    1    1    2  503  502  0.22921949812E+02 -0.32483179605E+01  0.71714285554E+02  0.75358517139E+02  0.00000000000E+00 0. -1.
         21    1    1    2  504  501 -0.22921949812E+02  0.32483179605E+01 -0.11218955906E+03  0.11455332608E+03  0.00000000000E+00 0. -1.
</event>
<event>
 4    1  0.3048956E+006  0.2090209E+02  0.7546771E-02  0.1520667E+00
         21   -1    0    0  504  501  0.00000000000E+00  0.00000000000E+00  0.79625624980E+01  0.79625624980E+01  0.00000000000E+00 0.  1.
         21   -1    0    0  503  502 -0.00000000000E+00 -0.00000000000E+00 -0.14637454213E+03  0.14637454213E+03  0.00000000000E+00 0.  1.
         21    1    1    2  503  501 -0.12725210843E+02  0.16582109669E+02 -0.81917192969E+01  0.22449980337E+02  0.00000000000E+00 0.  1.
         21    1    1    2  504  502  0.12725210843E+02 -0.16582109669E+02 -0.13022026034E+03  0.13188712430E+03  0.00000000000E+00 0.  1.
</event>
<event>
 4    1  0.3048956E+006  0.2490244E+02  0.7546771E-02  0.1469898E+00
         21   -1    0    0  503  501  0.00000000000E+00  0.00000000000E+00  0.15093119180E+03  0.15093119180E+03  0.00000000000E+00 0.  1.
         21   -1    0    0  504  502 -0.00000000000E+00 -0.00000000000E+00 -0.70306425580E+02  0.70306425580E+02  0.00000000000E+00 0.  1.
         21    1    1    2  503  502 -0.22177964480E+02  0.11325599764E+02  0.14765025846E+03  0.14973553400E+03  0.00000000000E+00 0.  1.
         21    1    1    2  504  501  0.22177964480E+02 -0.11325599764E+02 -0.67025492238E+02  0.71502083384E+02  0.00000000000E+00 0.  1.
</event>
<event>
 4    1  0.3048956E+006  0.2070352E+02  0.7546771E-02  0.1523540E+00
         21   -1    0    0  503  501  0.00000000000E+00  0.00000000000E+00  0.23225844469E+02  0.23225844469E+02  0.00000000000E+00 0. -1.
         21   -1    0    0  504  502 -0.00000000000E+00 -0.00000000000E+00 -0.18650112804E+02  0.18650112804E+02  0.00000000000E+00 0. -1.
         21    1    1    2  503  502  0.11897219282E+02 -0.16943791386E+02  0.14696627212E+00  0.20704045312E+02  0.00000000000E+00 0. -1.
         21    1    1    2  504  501 -0.11897219282E+02  0.16943791386E+02  0.44287653932E+01  0.21171911961E+02  0.00000000000E+00 0. -1.
</event>
<event>
 4    1  0.3048956E+006  0.3359062E+02  0.7546771E-02  0.1390752E+00
         21   -1    0    0  502  501  0.00000000000E+00  0.00000000000E+00  0.36297700055E+03  0.36297700055E+03  0.00000000000E+00 0.  1.
         21   -1    0    0  504  502 -0.00000000000E+00 -0.00000000000E+00 -0.21202772298E+02  0.21202772298E+02  0.00000000000E+00 0.  1.
         21    1    1    2  503  501 -0.19390527249E+02  0.27428767143E+02  0.34833801695E+03  0.34995385963E+03  0.00000000000E+00 0.  1.
         21    1    1    2  504  503  0.19390527249E+02 -0.27428767143E+02 -0.65637886962E+01  0.34225913224E+02  0.00000000000E+00 0.  1.
</event>
<event>
 4    1  0.3048956E+006  0.3421418E+02  0.7546771E-02  0.1386173E+00
         21   -1    0    0  503  501  0.00000000000E+00  0.00000000000E+00  0.23521240987E+03  0.23521240987E+03  0.00000000000E+00 0.  1.
         21   -1    0    0  501  502 -0.00000000000E+00 -0.00000000000E+00 -0.65574767386E+02  0.65574767386E+02  0.00000000000E+00 0. -1.
         21    1    1    2  503  504  0.25159542113E+02  0.23186367750E+02  0.22939272039E+03  0.23193022739E+03  0.00000000000E+00 0.  1.
         21    1    1    2  504  502 -0.25159542113E+02 -0.23186367750E+02 -0.59755077908E+02  0.68856949864E+02  0.00000000000E+00 0. -1.
</event>
<event>
 4    1  0.3048956E+006  0.2047245E+02  0.7546771E-02  0.1526932E+00
         21   -1    0    0  502  501  0.00000000000E+00  0.00000000000E+00  0.12185032391E+01  0.12185032391E+01  0.00000000000E+00 0.  1.
         21   -1    0    0  504  502 -0.00000000000E+00 -0.00000000000E+00 -0.87022578835E+03  0.87022578835E+03  0.00000000000E+00 0. -1.
         21    1    1    2  503  501  0.13646061854E+02  0.15261267331E+02 -0.95663726535E+02  0.97829800466E+02  0.00000000000E+00 0.  1.
         21    1    1    2  504  503 -0.13646061854E+02 -0.15261267331E+02 -0.77334355857E+03  0.77361449112E+03  0.00000000000E+00 0. -1.
</event>
<event>
 4    1  0.3048956E+006  0.2178801E+02  0.7546771E-02  0.1508305E+00
         21   -1    0    0  502  501  0.00000000000E+00  0.00000000000E+00  0.99920087702E+02  0.99920087702E+02  0.00000000000E+00 0. -1.
         21   -1    0    0  503  502 -0.00000000000E+00 -0.00000000000E+00 -0.23114394781E+02  0.23114394781E+02  0.00000000000E+00 0. -1.
         21    1    1    2  503  504 -0.15128432074E+02 -0.15679541080E+02 -0.16428942196E+02  0.27287865566E+02  0.00000000000E+00 0. -1.
         21    1    1    2  504  501  0.15128432074E+02  0.15679541080E+02  0.93234635117E+02  0.95746616917E+02  0.00000000000E+00 0. -1.
</event>
<event>
 4    1  0.3048956E+006  0.2582492E+02  0.7546771E-02  0.1459783E+00
         21   -1    0    0  503  501  0.00000000000E+00  0.00000000000E+00  0.48891807201E+01  0.48891807201E+01  0.00000000000E+00 0.  1.
         21   -1    0    0  504  502 -0.00000000000E+00 -0.00000000000E+00 -0.13650525880E+03  0.13650525880E+03  0.00000000000E+00 0.  1.
         21    1    1    2  503  502  0.18691900516E+02 -0.17819634563E+02 -0.63927226315E+02  0.68946477685E+02  0.00000000000E+00 0.  1.
         21    1    1    2  504  501 -0.18691900516E+02  0.17819634563E+02 -0.67688851770E+02  0.72447961840E+02  0.00000000000E+00 0.  1.
</event>
<event>
 4    1  0.3048956E+006  0.2541731E+02  0.7546771E-02  0.1464189E+00
         21   -1    0    0  502  501  0.00000000000E+00  0.00000000000E+00  0.51784544935E+02  0.51784544935E+02  0.00000000000E+00 0. -1.
         21   -1    0    0  504  502 -0.00000000000E+00 -0.00000000000E+00 -0.21024522685E+03  0.21024522685E+03  0.00000000000E+00 0.  1.
         21    1    1    2  503  501 -0.98533657972E+01 -0.23429697741E+02  0.47838025349E+02  0.54171175204E+02  0.00000000000E+00 0. -1.
         21    1    1    2  504  503  0.98533657972E+01  0.23429697741E+02 -0.20629870726E+03  0.20785859658E+03  0.00000000000E+00 0.  1.
</event>
<event>
 4    1  0.3048956E+006  0.2388373E+02  0.7546771E-02  0.1481690E+00
         21   -1    0    0  503  501  0.00000000000E+00  0.00000000000E+00  0.29378844202E+01  0.29378844202E+01  0.00000000000E+00 0.  1.
         21   -1    0    0  504  502 -0.00000000000E+00 -0.00000000000E+00 -0.27884515313E+03  0.27884515313E+03  0.00000000000E+00 0. -1.
         21    1    1    2  503  502 -0.23600477142E+02 -0.36674005645E+01 -0.21559547927E+03  0.21691436797E+03  0.00000000000E+00 0. -1.
         21    1    1    2  504  501  0.23600477142E+02  0.36674005645E+01 -0.60311789440E+02  0.64868669585E+02  0.00000000000E+00 0.  1.
</event>
<event>
 4    1  0.3048956E+006  0.2009273E+02  0.7546771E-02  0.1532623E+00
         21   -1    0    0  502  501  0.00000000000E+00  0.00000000000E+00  0.16233108152E+02  0.16233108152E+02  0.00000000000E+00 0.  1.
         21   -1    0    0  504  502 -0.00000000000E+00 -0.00000000000E+00 -0.31357325327E+02  0.31357325327E+02  0.00000000000E+00 0. -1.
         21    1    1    2  503  501 -0.37822012477E+01  0.19733543330E+02  0.32610050061E+01  0.20355636376E+02  0.00000000000E+00 0.  1.
         21    1    1    2  504  503  0.37822012477E+01 -0.19733543330E+02 -0.18385222181E+02  0.27234797103E+02  0.00000000000E+00 0. -1.
</event>
<event>
 4    1  0.3048956E+006  0.2466362E+02  0.7546771E-02  0.1472602E+00
         21   -1    0    0  502  501  0.00000000000E+00  0.00000000000E+00  0.24616595403E+03  0.24616595403E+03  0.00000000000E+00 0.  1.
         21   -1    0    0  503  502 -0.00000000000E+00 -0.00000000000E+00 -0.78466567255E+01  0.78466567255E+01  0.00000000000E+00 0.  1.
         21    1    1    2  503  504 -0.20850695386E+02 -0.13173558615E+02  0.14037130838E+02  0.28378428195E+02  0.00000000000E+00 0.  1.
         21    1    1    2  504  501  0.20850695386E+02  0.13173558615E+02  0.22428216647E+03  0.22563418256E+03  0.00000000000E+00 0.  1.
</event>
<event>
 4    1  0.3048956E+006  0.2106833E+02  0.7546771E-02  0.1518291E+00
         21   -1    0    0  504  501  0.00000000000E+00  0.00000000000E+00  0.30804011424E+02  0.30804011424E+02  0.00000000000E+00 0. -1.
         21   -1    0    0  503  502 -0.00000000000E+00 -0.00000000000E+00 -0.16680960039E+03  0.16680960039E+03  0.00000000000E+00 0. -1.
         21    1    1    2  503  501 -0.19655809113E+02  0.75844246941E+01 -0.16244557921E+03  0.16380610653E+03  0.00000000000E+00 0. -1.
         21    1    1    2  504  502  0.19655809113E+02 -0.75844246941E+01  0.26439990244E+02  0.33807505290E+02  0.00000000000E+00 0. -1.
</event>
<event>
 4    1  0.3048956E+006  0.2061386E+02  0.7546771E-02  0.1524850E+00
         21   -1    0    0  503  501  0.00000000000E+00  0.00000000000E+00  0.40739642602E+03  0.40739642602E+03  0.00000000000E+00 0.  1.
         21   -1    0    0  504  502 -0.00000000000E+00 -0.00000000000E+00 -0.78652454619E+01  0.78652454619E+01  0.00000000000E+00 0.  1.
         21    1    1    2  503  502 -0.16474877239E+02 -0.12389894174E+02  0.63915877969E+01  0.21582016872E+02  0.00000000000E+00 0.  1.
         21    1    1    2  504  501  0.16474877239E+02  0.12389894174E+02  0.39313959276E+03  0.39367965461E+03  0.00000000000E+00 0.  1.
</event>
<event>
 4    1  0.3048956E+006  0.2631475E+02  0.7546771E-02  0.1454616E+00
         21   -1    0    0  502  501  0.00000000000E+00  0.00000000000E+00  0.11900419305E+02  0.11900419305E+02  0.00000000000E+00 0.  1.
         21   -1    0    0  504  502 -0.00000000000E+00 -0.00000000000E+00 -0.58373971674E+02  0.58373971674E+02  0.00000000000E+00 0.  1.
         21    1    1    2  503  501 -0.21655938092E+02  0.14949470555E+02 -0.21255629283E+02  0.33827032100E+02  0.00000000000E+00 0.  1.
         21    1    1    2  504  503  0.21655938092E+02 -0.14949470555E+02 -0.25217923085E+02  0.36447358879E+02  0.00000000000E+00 0.  1.
</event>
<event>
 4    1  0.3048956E+006  0.2333943E+02  0.7546771E-02  0.1488279E+00
         21   -1    0    0  502  501  0.00000000000E+00  0.00000000000E+00  0.13130218581E+02  0.13130218581E+02  0.00000000000E+00 0. -1.
         21   -1    0    0  503  502 -0.00000000000E+00 -0.00000000000E+00 -0.56820658244E+02  0.56820658244E+02  0.00000000000E+00 0. -1.
         21    1    1    2  503  504 -0.13184421318E+02  0.19258770973E+02 -0.40014486794E+02  0.46323734502E+02  0.00000000000E+00 0. -1.
         21    1    1    2  504  501  0.13184421318E+02 -0.19258770973E+02 -0.36759528693E+01  0.23627142323E+02  0.00000000000E+00 0. -1.
</event>
<event>
 4    1  0.3048956E+006  0.4449937E+02  0.7546771E-02  0.1323962E+00
         21   -1    0    0  504  501  0.00000000000E+00  0.00000000000E+00  0.49582669605E+02  0.49582669605E+02  0.00000000000E+00 0.  1.
         21   -1    0    0  503  502 -0.00000000000E+00 -0.00000000000E+00 -0.10272728950E+03  0.10272728950E+03  0.00000000000E+00 0.  1.
         21    1    1    2  503  501 -0.37512728287E+02 -0.23937183633E+02  0.32966603374E+02  0.55380416050E+02  0.00000000000E+00 0.  1.
         21    1    1    2  504  502  0.37512728287E+02  0.23937183633E+02 -0.86111223266E+02  0.96929543052E+02  0.00000000000E+00 0.  1.
</event>
<event>
 4    1  0.3048956E+006  0.3214322E+02  0.7546771E-02  0.1401842E+00
         21   -1    0    0  503  501  0.00000000000E+00  0.00000000000E+00  0.14121920260E+01  0.14121920260E+01  0.00000000000E+00 0. -1.
         21   -1    0    0  501  502 -0.00000000000E+00 -0.00000000000E+00 -0.12613901425E+04  0.12613901425E+04  0.00000000000E+00 0. -1.
         21    1    1    2  503  504 -0.10000927010E+02  0.30547795253E+02 -0.22079911264E+03  0.22312649882E+03  0.00000000000E+00 0. -1.
         21    1    1    2  504  502  0.10000927010E+02 -0.30547795253E+02 -0.10391788378E+04  0.10396758357E+04  0.00000000000E+00 0. -1.
</event>
<event>
 4    1  0.3048956E+006  0.2286764E+02  0.7546771E-02  0.1494167E+00
         21   -1    0    0  504  501  0.00000000000E+00  0.00000000000E+00  0.45051392419E+02  0.45051392419E+02  0.00000000000E+00 0.  1.
         21   -1    0    0  503  502 -0.00000000000E+00 -0.00000000000E+00 -0.49496226425E+02  0.49496226425E+02  0.00000000000E+00 0.  1.
         21    1    1    2  503  501 -0.27245135767E+01 -0.22704758929E+02  0.39138503259E+02  0.45329366747E+02  0.00000000000E+00 0.  1.
         21    1    1    2  504  502  0.27245135767E+01  0.22704758929E+02 -0.43583337266E+02  0.49218252097E+02  0.00000000000E+00 0.  1.
</event>
<event>
 4    1  0.3048956E+006  0.2531032E+02  0.7546771E-02  0.1465362E+00
         21   -1    0    0  503  501  0.00000000000E+00  0.00000000000E+00  0.20516924719E+02  0.20516924719E+02  0.00000000000E+00 0. -1.
         21   -1    0    0  504  502 -0.00000000000E+00 -0.00000000000E+00 -0.71516963521E+02  0.71516963521E+02  0.00000000000E+00 0.  1.
         21    1    1    2  503  502  0.24991752135E+02  0.40030923031E+01 -0.60040625747E+02  0.65157418325E+02  0.00000000000E+00 0.  1.
         21    1    1    2  504  501 -0.24991752135E+02 -0.40030923031E+01  0.90405869451E+01  0.26876469915E+02  0.00000000000E+00 0. -1.
</event>
<event>
 4    1  0.3048956E+006  0.2085512E+02  0.7546771E-02  0.1521344E+00
         21   -1    0    0  503  501  0.00000000000E+00  0.00000000000E+00  0.10183779932E+01  0.10183779932E+01  0.00000000000E+00 0.  1.
         21   -1    0    0  504  502 -0.00000000000E+00 -0.00000000000E+00 -0.52603134158E+03  0.52603134158E+03  0.00000000000E+00 0.  1.
         21    1    1    2  503  502 -0.17361355460E+02  0.11555050064E+02 -0.14821559579E+03  0.14967564491E+03  0.00000000000E+00 0.  1.
         21    1    1    2  504  501  0.17361355460E+02 -0.11555050064E+02 -0.37679736780E+03  0.37737407466E+03  0.00000000000E+00 0.  1.
</event>
<event>
 4    1  0.3048956E+006  0.2258004E+02  0.7546771E-02  0.1497840E+00
         21   -1    0    0  502  501  0.00000000000E+00  0.00000000000E+00  0.36323248050E+02  0.36323248050E+02  0.00000000000E+00 0. -1.
         21   -1    0    0  504  502 -0.00000000000E+00 -0.00000000000E+00 -0.26268427448E+02  0.26268427448E+02  0.00000000000E+00 0.  1.
         21    1    1    2  503  501 -0.21127955555E+02 -0.79666720259E+01  0.26383096143E+02  0.34726447143E+02  0.00000000000E+00 0. -1.
         21    1    1    2  504  503  0.21127955555E+02  0.79666720259E+01 -0.16328275541E+02  0.27865228354E+02  0.00000000000E+00 0.  1.
</event>
<event>
 4    1  0.3048956E+006  0.2468054E+02  0.7546771E-02  0.1472409E+00
         21   -1    0    0  502  501  0.00000000000E+00  0.00000000000E+00  0.33679938612E+02  0.33679938612E+02  0.00000000000E+00 0.  1.
         21   -1    0    0  503  502 -0.00000000000E+00 -0.00000000000E+00 -0.31337581565E+02  0.31337581565E+02  0.00000000000E+00 0.  1.
         21    1    1    2  503  504 -0.24201659622E+02 -0.48382685674E+01 -0.19968799895E+02  0.31747159565E+02  0.00000000000E+00 0.  1.
         21    1    1    2  504  501  0.24201659622E+02  0.48382685674E+01  0.22311156942E+02  0.33270360612E+02  0.00000000000E+00 0.  1.
</event>
<event>
 4    1  0.3048956E+006  0.4187657E+02  0.7546771E-02  0.1337827E+00
         21   -1    0    0  504  501  0.00000000000E+00  0.00000000000E+00  0.41949527090E+02  0.41949527090E+02  0.00000000000E+00 0. -1.
         21   -1    0    0  503  502 -0.00000000000E+00 -0.00000000000E+00 -0.44348289018E+02  0.44348289018E+02  0.00000000000E+00 0. -1.
         21    1    1    2  503  501  0.35600620083E+02  0.22050916857E+02  0.91362469332E+01  0.42861615608E+02  0.00000000000E+00 0. -1.
         21    1    1    2  504  502 -0.35600620083E+02 -0.22050916857E+02 -0.11535008861E+02  0.43436200500E+02  0.00000000000E+00 0. -1.
</event>
<event>
 4    1  0.3048956E+006  0.3051750E+02  0.7546771E-02  0.1415152E+00
         21   -1    0    0  504  501  0.00000000000E+00  0.00000000000E+00  0.15005295113E+03  0.15005295113E+03  0.00000000000E+00 0.  1.
         21   -1    0    0  503  502 -0.00000000000E+00 -0.00000000000E+00 -0.21099655281E+02  0.21099655281E+02  0.00000000000E+00 0.  1.
         21    1    1    2  503  501 -0.29944950811E+02 -0.58836615794E+01  0.13637316442E+03  0.13974604655E+03  0.00000000000E+00 0.  1.
         21    1    1    2  504  502  0.29944950811E+02  0.58836615794E+01 -0.74198685706E+01  0.31406559860E+02  0.00000000000E+00 0.  1.
</event>
<event>
 4    1  0.3048956E+006  0.2346837E+02  0.7546771E-02  0.1486699E+00
         21   -1    0    0  504  501  0.00000000000E+00  0.00000000000E+00  0.60121154157E+02  0.60121154157E+02  0.00000000000E+00 0. -1.
         21   -1    0    0  503  502 -0.00000000000E+00 -0.00000000000E+00 -0.98149525462E+01  0.98149525462E+01  0.00000000000E+00 0. -1.
         21    1    1    2  503  501  0.22400653563E+02 -0.69982131610E+01  0.16126348185E+02  0.28474960461E+02  0.00000000000E+00 0. -1.
         21    1    1    2  504  502 -0.22400653563E+02  0.69982131610E+01  0.34179853426E+02  0.41461146242E+02  0.00000000000E+00 0. -1.
</event>
<event>
 4    1  0.3048956E+006  0.2488259E+02  0.7546771E-02  0.1470121E+00
         21   -1    0    0  503  501  0.00000000000E+00  0.00000000000E+00  0.16799886116E+03  0.16799886116E+03  0.00000000000E+00 0. -1.
         21   -1    0    0  504  502 -0.00000000000E+00 -0.00000000000E+00 -0.51525270512E+02  0.51525270512E+02  0.00000000000E+00 0.  1.
         21    1    1    2  503  502 -0.24803830069E+02  0.19781578363E+01  0.16400061506E+03  0.16587749949E+03  0.00000000000E+00 0. -1.
         21    1    1    2  504  501  0.24803830069E+02 -0.19781578363E+01 -0.47527024418E+02  0.53646632183E+02  0.00000000000E+00 0.  1.
</event>
<event>
 4    1  0.3048956E+006  0.2852726E+02  0.7546771E-02  0.1432842E+00
         21   -1    0    0  504  501  0.00000000000E+00  0.00000000000E+00  0.12080340751E+03  0.12080340751E+03  0.00000000000E+00 0.  1.
         21   -1    0    0  501  502 -0.00000000000E+00 -0.00000000000E+00 -0.32111920251E+03  0.32111920251E+03  0.00000000000E+00 0.  1.
         21    1    1    2  503  502  0.34352833029E+01  0.28319664817E+02 -0.31878919808E+03  0.32006305223E+03  0.00000000000E+00 0.  1.
         21    1    1    2  504  503 -0.34352833029E+01 -0.28319664817E+02  0.11847340308E+03  0.12185955779E+03  0.00000000000E+00 0.  1.
</event>
<event>
 4    1  0.3048956E+006  0.2327931E+02  0.7546771E-02  0.1489020E+00
         21   -1    0    0  503  501  0.00000000000E+00  0.00000000000E+00  0.20815675906E+03  0.20815675906E+03  0.00000000000E+00 0.  1.
         21   -1    0    0  504  502 -0.00000000000E+00 -0.00000000000E+00 -0.39605157957E+01  0.39605157957E+01  0.00000000000E+00 0.  1.
         21    1    1    2  503  502  0.55679241400E+01  0.22603634944E+02  0.40015459641E+02  0.46294309609E+02  0.00000000000E+00 0.  1.
         21    1    1    2  504  501 -0.55679241400E+01 -0.22603634944E+02  0.16418078362E+03  0.16582296524E+03  0.00000000000E+00 0.  1.
</event>
<event>
 4    1  0.3048956E+006  0.2091723E+02  0.7546771E-02  0.1520450E+00
         21   -1    0    0  504  501  0.00000000000E+00  0.00000000000E+00  0.61033987802E+02  0.61033987802E+02  0.00000000000E+00 0.  1.
         21   -1    0    0  501  502 -0.00000000000E+00 -0.00000000000E+00 -0.94773932009E+01  0.94773932009E+01  0.00000000000E+00 0.  1.
         21    1    1    2  503  502  0.40866587825E+01 -0.20514135095E+02  0.83773140506E+01  0.22532419076E+02  0.00000000000E+00 0.  1.
         21    1    1    2  504  503 -0.40866587825E+01  0.20514135095E+02  0.43179280550E+02  0.47978961927E+02  0.00000000000E+00 0.  1.
</event>
<event>
 4    1  0.3048956E+006  0.2033549E+02  0.7546771E-02  0.1528967E+00
         21   -1    0    0  504  501  0.00000000000E+00  0.00000000000E+00  0.96585085470E+02  0.96585085470E+02  0.00000000000E+00 0.  1.
         21   -1    0    0  503  502 -0.00000000000E+00 -0.00000000000E+00 -0.92910899123E+01  0.92910899123E+01  0.00000000000E+00 0. -1.
         21    1    1    2  503  501  0.14956502208E+02 -0.13778063207E+02  0.47751947211E+01  0.20888620555E+02  0.00000000000E+00 0. -1.
         21    1    1    2  504  502 -0.14956502208E+02  0.13778063207E+02  0.82518800836E+02  0.84987554827E+02  0.00000000000E+00 0.  1.
</event>
<event>
 4    1  0.3048956E+006  0.2058176E+02  0.7546771E-02  0.1525321E+00
         21   -1    0    0  503  501  0.00000000000E+00  0.00000000000E+00  0.74413535689E+02  0.74413535689E+02  0.00000000000E+00 0. -1.
         21   -1    0    0  504  502 -0.00000000000E+00 -0.00000000000E+00 -0.10285863137E+03  0.10285863137E+03  0.00000000000E+00 0. -1.
         21    1    1    2  503  502  0.11368640676E+02 -0.17157004840E+02 -0.10037097452E+03  0.10245946190E+03  0.00000000000E+00 0. -1.
         21    1    1    2  504  501 -0.11368640676E+02  0.17157004840E+02  0.71925878843E+02  0.74812705160E+02  0.00000000000E+00 0. -1.
</event>
<event>
 4    1  0.3048956E+006  0.3103233E+02  0.7546771E-02  0.1410833E+00
         21   -1    0    0  503  501  0.00000000000E+00  0.00000000000E+00  0.18646034581E+02  0.18646034581E+02  0.00000000000E+00 0. -1.
         21   -1    0    0  504  502 -0.00000000000E+00 -0.00000000000E+00 -0.51877133916E+02  0.51877133916E+02  0.00000000000E+00 0. -1.
         21    1    1    2  503  502  0.22782246177E+02  0.21070710978E+02 -0.14265294923E+02  0.34154124806E+02  0.00000000000E+00 0. -1.
         21    1    1    2  504  501 -0.22782246177E+02 -0.21070710978E+02 -0.18965804412E+02  0.36369043691E+02  0.00000000000E+00 0. -1.
</event>
<event>
 4    1  0.3048956E+006  0.2005484E+02  0.7546771E-02  0.1533199E+00
         21   -1    0    0  503  501  0.00000000000E+00  0.00000000000E+00  0.40966907805E+02  0.40966907805E+02  0.00000000000E+00 0.  1.
         21   -1    0    0  504  502 -0.00000000000E+00 -0.00000000000E+00 -0.10406777692E+02  0.10406777692E+02  0.00000000000E+00 0. -1.
         21    1    1    2  503  502  0.70892091443E+01 -0.18760056739E+02  0.21391970485E+02  0.29322568380E+02  0.00000000000E+00 0.  1.
         21    1    1    2  504  501 -0.70892091443E+01  0.18760056739E+02  0.91681596280E+01  0.22051117117E+02  0.00000000000E+00 0. -1.
</event>
<event>
 4    1  0.3048956E+006  0.2383483E+02  0.7546771E-02  0.1482273E+00
         21   -1    0    0  504  501  0.00000000000E+00  0.00000000000E+00  0.37057349476E+03  0.37057349476E+03  0.00000000000E+00 0. -1.
         21   -1    0    0  503  502 -0.00000000000E+00 -0.00000000000E+00 -0.48181278587E+01  0.48181278587E+01  0.00000000000E+00 0. -1.
         21    1    1    2  503  501  0.19545761614E+02 -0.13640467808E+02  0.27892644477E+02  0.36689218784E+02  0.00000000000E+00 0. -1.
         21    1    1    2  504  502 -0.19545761614E+02  0.13640467808E+02  0.33786272242E+03  0.33870240383E+03  0.00000000000E+00 0. -1.
</event>
<event>
 4    1  0.3048956E+006  0.3280089E+02  0.7546771E-02  0.1396720E+00
         21   -1    0    0  504  501  0.00000000000E+00  0.00000000000E+00  0.66295762873E+02  0.66295762873E+02  0.00000000000E+00 0.  1.
         21   -1    0    0  503  502 -0.00000000000E+00 -0.00000000000E+00 -0.19358467534E+02  0.19358467534E+02  0.00000000000E+00 0.  1.
         21    1    1    2  503  501 -0.55528425233E+01  0.32327453703E+02  0.62485781689E+01  0.33390762976E+02  0.00000000000E+00 0.  1.
         21    1    1    2  504  502  0.55528425233E+01 -0.32327453703E+02  0.40688717170E+02  0.52263467431E+02  0.00000000000E+00 0.  1.
</event>
<event>
 4    1  0.3048956E+006  0.2197262E+02  0.7546771E-02  0.1505818E+00
         21   -1    0    0  502  501  0.00000000000E+00  0.00000000000E+00  0.12102287132E+02  0.12102287132E+02  0.00000000000E+00 0.  1.
         21   -1    0    0  504  502 -0.00000000000E+00 -0.00000000000E+00 -0.18637849973E+03  0.18637849973E+03  0.00000000000E+00 0.  1.
         21    1    1    2  503  501 -0.12230438755E+02 -0.18254101594E+02  0.84270729982E+00  0.21988770150E+02  0.00000000000E+00 0.  1.
         21    1    1    2  504  503  0.12230438755E+02  0.18254101594E+02 -0.17511891990E+03  0.17649201672E+03  0.00000000000E+00 0.  1.
</event>
<event>
 4    1  0.3048956E+006  0.2019417E+02  0.7546771E-02  0.1531088E+00
         21   -1    0    0  504  501  0.00000000000E+00  0.00000000000E+00  0.46224700643E+01  0.46224700643E+01  0.00000000000E+00 0.  1.
         21   -1    0    0  501  502 -0.00000000000E+00 -0.00000000000E+00 -0.22212464371E+03  0.22212464371E+03  0.00000000000E+00 0.  1.
         21    1    1    2  503  502  0.19450835255E+02  0.54285920664E+01 -0.19677640578E+03  0.19780990490E+03  0.00000000000E+00 0.  1.
         21    1    1    2  504  503 -0.19450835255E+02 -0.54285920664E+01 -0.20725767864E+02  0.28937208875E+02  0.00000000000E+00 0.  1.
</event>
<event>
 4    1  0.3048956E+006  0.2081412E+02  0.7546771E-02  0.1521935E+00
         21   -1    0    0  504  501  0.00000000000E+00  0.00000000000E+00  0.17260392022E+03  0.17260392022E+03  0.00000000000E+00 0. -1.
         21   -1    0    0  503  502 -0.00000000000E+00 -0.00000000000E+00 -0.80816778808E+01  0.80816778808E+01  0.00000000000E+00 0.  1.
         21    1    1    2  503  501  0.51186724502E+01  0.20174907437E+02  0.15727430733E+03  0.15864562851E+03  0.00000000000E+00 0. -1.
         21    1    1    2  504  502 -0.51186724502E+01 -0.20174907437E+02  0.72479350051E+01  0.22039969591E+02  0.00000000000E+00 0.  1.
</event>
<event>
 4    1  0.3048956E+006  0.3189264E+02  0.7546771E-02  0.1403832E+00
         21   -1    0    0  503  501  0.00000000000E+00  0.00000000000E+00  0.13713839512E+03  0.13713839512E+03  0.00000000000E+00 0.  1.
         21   -1    0    0  504  502 -0.00000000000E+00 -0.00000000000E+00 -0.10732273164E+02  0.10732273164E+02  0.00000000000E+00 0.  1.
         21    1    1    2  503  502 -0.47016018819E+00  0.31889170729E+02  0.22109563349E+02  0.38806868617E+02  0.00000000000E+00 0.  1.
         21    1    1    2  504  501  0.47016018819E+00 -0.31889170729E+02  0.10429655860E+03  0.10906379966E+03  0.00000000000E+00 0.  1.
</event>
<event>
 4    1  0.3048956E+006  0.2931787E+02  0.7546771E-02  0.1425618E+00
         21   -1    0    0  503  501  0.00000000000E+00  0.00000000000E+00  0.64943270425E+01  0.64943270425E+01  0.00000000000E+00 0. -1.
         21   -1    0    0  504  502 -0.00000000000E+00 -0.00000000000E+00 -0.18219096465E+03  0.18219096465E+03  0.00000000000E+00 0. -1.
         21    1    1    2  503  502 -0.26640673075E+02 -0.12239777833E+02 -0.13719169229E+03  0.14028933693E+03  0.00000000000E+00 0. -1.
         21    1    1    2  504  501  0.26640673075E+02  0.12239777833E+02 -0.38504945317E+02  0.48395954761E+02  0.00000000000E+00 0. -1.
</event>
<event>
 4    1  0.3048956E+006  0.2125391E+02  0.7546771E-02  0.1515670E+00
         21   -1    0    0  503  501  0.00000000000E+00  0.00000000000E+00  0.11574537481E+03  0.11574537481E+03  0.00000000000E+00 0. -1.
         21   -1    0    0  504  502 -0.00000000000E+00 -0.00000000000E+00 -0.69937194372E+01  0.69937194372E+01  0.00000000000E+00 0. -1.
         21    1    1    2  503  502  0.21209162693E+02  0.13783919640E+01  0.95174325897E+02  0.97518617999E+02  0.00000000000E+00 0. -1.
         21    1    1    2  504  501 -0.21209162693E+02 -0.13783919640E+01  0.13577329479E+02  0.25220476251E+02  0.00000000000E+00 0. -1.
</event>
<event>
 4    1  0.3048956E+006  0.2114332E+02  0.7546771E-02  0.1517228E+00
         21   -1    0    0  503  501  0.00000000000E+00  0.00000000000E+00  0.86129978787E+02  0.86129978787E+02  0.00000000000E+00 0.  1.
         21   -1    0    0  501  502 -0.00000000000E+00 -0.00000000000E+00 -0.60379843748E+01  0.60379843748E+01  0.00000000000E+00 0.  1.
         21    1    1    2  503  504 -0.15531708024E+02  0.14345937783E+02  0.57313228583E+02  0.61088837406E+02  0.00000000000E+00 0.  1.
         21    1    1    2  504  502  0.15531708024E+02 -0.14345937783E+02  0.22778765829E+02  0.31079125756E+02  0.00000000000E+00 0.  1.
</event>
<event>
 4    1  0.3048956E+006  0.3139071E+02  0.7546771E-02  0.1407884E+00
         21   -1    0    0  504  501  0.00000000000E+00  0.00000000000E+00  0.81353792324E+03  0.81353792324E+03  0.00000000000E+00 0. -1.
         21   -1    0    0  503  502 -0.00000000000E+00 -0.00000000000E+00 -0.67735183088E+01  0.67735183088E+01  0.00000000000E+00 0. -1.
         21    1    1    2  503  501 -0.25148502827E+02  0.18786411491E+02  0.77506170476E+03  0.77569712043E+03  0.00000000000E+00 0. -1.
         21    1    1    2  504  502  0.25148502827E+02 -0.18786411491E+02  0.31702700171E+02  0.44614321123E+02  0.00000000000E+00 0. -1.
</event>
<event>
 4    1  0.3048956E+006  0.2044355E+02  0.7546771E-02  0.1527360E+00
         21   -1    0    0  504  501  0.00000000000E+00  0.00000000000E+00  0.41469013643E+01  0.41469013643E+01  0.00000000000E+00 0.  1.
         21   -1    0    0  503  502 -0.00000000000E+00 -0.00000000000E+00 -0.11700848929E+03  0.11700848929E+03  0.00000000000E+00 0.  1.
         21    1    1    2  503  501 -0.14185797258E+02 -0.14720799872E+02 -0.33872944558E+02  0.39564064070E+02  0.00000000000E+00 0.  1.
         21    1    1    2  504  502  0.14185797258E+02  0.14720799872E+02 -0.78988643371E+02  0.81591326588E+02  0.00000000000E+00 0.  1.
</event>
<event>
 4    1  0.3048956E+006  0.2429199E+02  0.7546771E-02  0.1476882E+00
         21   -1    0    0  504  501  0.00000000000E+00  0.00000000000E+00  0.51451635865E+01  0.51451635865E+01  0.00000000000E+00 0. -1.
         21   -1    0    0  503  502 -0.00000000000E+00 -0.00000000000E+00 -0.14183749579E+03  0.14183749579E+03  0.00000000000E+00 0. -1.
         21    1    1    2  503  501 -0.69677231258E+01  0.23271256367E+02 -0.10049778019E+03  0.10339199370E+03  0.00000000000E+00 0. -1.
         21    1    1    2  504  502  0.69677231258E+01 -0.23271256367E+02 -0.36194552007E+02  0.43590665668E+02  0.00000000000E+00 0. -1.
</event>
<event>
 4    1  0.3048956E+006  0.2378535E+02  0.7546771E-02  0.1482865E+00
         21   -1    0    0  503  501  0.00000000000E+00  0.00000000000E+00  0.22781498408E+04  0.22781498408E+04  0.00000000000E+00 0. -1.
         21   -1    0    0  504  502 -0.00000000000E+00 -0.00000000000E+00 -0.28698070617E+00  0.28698070617E+00  0.00000000000E+00 0.  1.
         21    1    1    2  503  502  0.20316450509E+02  0.12368694521E+02  0.72087476287E+03  0.72126705631E+03  0.00000000000E+00 0.  1.
         21    1    1    2  504  501 -0.20316450509E+02 -0.12368694521E+02  0.15569880972E+04  0.15571697652E+04  0.00000000000E+00 0. -1.
</event>
<event>
 4    1  0.3048956E+006  0.2317119E+02  0.7546771E-02  0.1490360E+00
         21   -1    0    0  504  501  0.00000000000E+00  0.00000000000E+00  0.55270703588E+03  0.55270703588E+03  0.00000000000E+00 0. -1.
         21   -1    0    0  501  502 -0.00000000000E+00 -0.00000000000E+00 -0.21002379889E+01  0.21002379889E+01  0.00000000000E+00 0.  1.
         21    1    1    2  503  502 -0.12066934990E+02  0.19781125384E+02  0.71930896352E+02  0.75570878594E+02  0.00000000000E+00 0.  1.
         21    1    1    2  504  503  0.12066934990E+02 -0.19781125384E+02  0.47867590154E+03  0.47923639528E+03  0.00000000000E+00 0. -1.
</event>
<event>
 4    1  0.3048956E+006  0.3570286E+02  0.7546771E-02  0.1375688E+00
         21   -1    0    0  503  501  0.00000000000E+00  0.00000000000E+00  0.17876306855E+02  0.17876306855E+02  0.00000000000E+00 0.  1.
         21   -1    0    0  504  502 -0.00000000000E+00 -0.00000000000E+00 -0.71507959538E+02  0.71507959538E+02  0.00000000000E+00 0.  1.
         21    1    1    2  503  502 -0.21245650231E+02  0.28693497480E+02 -0.29188805256E+02  0.46115949558E+02  0.00000000000E+00 0.  1.
         21    1    1    2  504  501  0.21245650231E+02 -0.28693497480E+02 -0.24442847427E+02  0.43268316835E+02  0.00000000000E+00 0.  1.
</event>
<event>
 4    1  0.3048956E+006  0.2218917E+02  0.7546771E-02  0.1502939E+00
         21   -1    0    0  502  501  0.00000000000E+00  0.00000000000E+00  0.24456231513E+02  0.24456231513E+02  0.00000000000E+00 0. -1.
         21   -1    0    0  504  502 -0.00000000000E+00 -0.00000000000E+00 -0.83730390688E+02  0.83730390688E+02  0.00000000000E+00 0. -1.
         21    1    1    2  503  501  0.17496669589E+02  0.13646464747E+02  0.17506673070E+02  0.28263811646E+02  0.00000000000E+00 0. -1.
         21    1    1    2  504  503 -0.17496669589E+02 -0.13646464747E+02 -0.76780832244E+02  0.79922810554E+02  0.00000000000E+00 0. -1.
</event>
<event>
 4    1  0.3048956E+006  0.2063191E+02  0.7546771E-02  0.1524586E+00
         21   -1    0    0  502  501  0.00000000000E+00  0.00000000000E+00  0.23090835068E+03  0.23090835068E+03  0.00000000000E+00 0. -1.
         21   -1    0    0  504  502 -0.00000000000E+00 -0.00000000000E+00 -0.83054697744E+01  0.83054697744E+01  0.00000000000E+00 0. -1.
         21    1    1    2  503  501  0.19281763163E+02  0.73409349426E+01  0.21680258926E+03  0.21778208932E+03  0.00000000000E+00 0. -1.
         21    1    1    2  504  503 -0.19281763163E+02 -0.73409349426E+01  0.58002916472E+01  0.21431731141E+02  0.00000000000E+00 0. -1.
</event>
<event>
 4    1  0.3048956E+006  0.2925179E+02  0.7546771E-02  0.1426212E+00
         21   -1    0    0  504  501  0.00000000000E+00  0.00000000000E+00  0.15715542891E+03  0.15715542891E+03  0.00000000000E+00 0. -1.
         21   -1    0    0  503  502 -0.00000000000E+00 -0.00000000000E+00 -0.70589662254E+01  0.70589662254E+01  0.00000000000E+00 0. -1.
         21    1    1    2  503  501 -0.26206708684E+02  0.12995205910E+02  0.35784111476E+02  0.46218714725E+02  0.00000000000E+00 0. -1.
         21    1    1    2  504  502  0.26206708684E+02 -0.12995205910E+02  0.11431235121E+03  0.11799568041E+03  0.00000000000E+00 0. -1.
</event>
<event>
 4    1  0.3048956E+006  0.8117521E+02  0.7546771E-02  0.1201145E+00
         21   -1    0    0  503  501  0.00000000000E+00  0.00000000000E+00  0.14794857172E+03  0.14794857172E+03  0.00000000000E+00 0.  1.
         21   -1    0    0  504  502 -0.00000000000E+00 -0.00000000000E+00 -0.61527129242E+02  0.61527129242E+02  0.00000000000E+00 0.  1.
         21    1    1    2  503  502  0.77927247499E+02  0.22732338889E+02  0.98246971527E+02  0.12744364460E+03  0.00000000000E+00 0.  1.
         21    1    1    2  504  501 -0.77927247499E+02 -0.22732338889E+02 -0.11825529048E+02  0.82032056365E+02  0.00000000000E+00 0.  1.
</event>
<event>
 4    1  0.3048956E+006  0.2224441E+02  0.7546771E-02  0.1502210E+00
         21   -1    0    0  503  501  0.00000000000E+00  0.00000000000E+00  0.95997096555E+02  0.95997096555E+02  0.00000000000E+00 0.  1.
         21   -1    0    0  504  502 -0.00000000000E+00 -0.00000000000E+00 -0.17565758883E+02  0.17565758883E+02  0.00000000000E+00 0.  1.
         21    1    1    2  503  502  0.18212588630E+02  0.12771672070E+02  0.86944557415E+02  0.89745028030E+02  0.00000000000E+00 0.  1.
         21    1    1    2  504  501 -0.18212588630E+02 -0.12771672070E+02 -0.85132197418E+01  0.23817827408E+02  0.00000000000E+00 0.  1.
</event>
<event>
 4    1  0.3048956E+006  0.2185491E+02  0.7546771E-02  0.1507400E+00
         21   -1    0    0  504  501  0.00000000000E+00  0.00000000000E+00  0.22676187070E+02  0.22676187070E+02  0.00000000000E+00 0. -1.
         21   -1    0    0  503  502 -0.00000000000E+00 -0.00000000000E+00 -0.21103288192E+02  0.21103288192E+02  0.00000000000E+00 0. -1.
         21    1    1    2  503  501  0.17817973137E+02  0.12655305863E+02  0.17384723088E+01  0.21923941689E+02  0.00000000000E+00 0. -1.
         21    1    1    2  504  502 -0.17817973137E+02 -0.12655305863E+02 -0.16557343123E+00  0.21855533573E+02  0.00000000000E+00 0. -1.
</event>
<event>
 4    1  0.3048956E+006  0.2863168E+02  0.7546771E-02  0.1431872E+00
         21   -1    0    0  504  501  0.00000000000E+00  0.00000000000E+00  0.94338323654E+03  0.94338323654E+03  0.00000000000E+00 0.  1.
         21   -1    0    0  503  502 -0.00000000000E+00 -0.00000000000E+00 -0.12808762950E+01  0.12808762950E+01  0.00000000000E+00 0.  1.
         21    1    1    2  503  501  0.80033393467E+01 -0.27490355287E+02  0.73890157511E+03  0.73945609117E+03  0.00000000000E+00 0.  1.
         21    1    1    2  504  502 -0.80033393467E+01  0.27490355287E+02  0.20320078514E+03  0.20520802166E+03  0.00000000000E+00 0.  1.
</event>
<event>
 4    1  0.3048956E+006  0.2457122E+02  0.7546771E-02  0.1473658E+00
         21   -1    0    0  504  501  0.00000000000E+00  0.00000000000E+00  0.84803276905E+02  0.84803276905E+02  0.00000000000E+00 0. -1.
         21   -1    0    0  501  502 -0.00000000000E+00 -0.00000000000E+00 -0.25953144119E+02  0.25953144119E+02  0.00000000000E+00 0. -1.
         21    1    1    2  503  502  0.23838564895E+02 -0.59554632508E+01 -0.17750027013E+02  0.30311848802E+02  0.00000000000E+00 0. -1.
         21    1    1    2  504  503 -0.23838564895E+02  0.59554632508E+01  0.76600159799E+02  0.80444572223E+02  0.00000000000E+00 0. -1.
</event>
<event>
 4    1  0.3048956E+006  0.2817594E+02  0.7546771E-02  0.1436140E+00
         21   -1    0    0  504  501  0.00000000000E+00  0.00000000000E+00  0.21238428371E+03  0.21238428371E+03  0.00000000000E+00 0. -1.
         21   -1    0    0  503  502 -0.00000000000E+00 -0.00000000000E+00 -0.38404040418E+01  0.38404040418E+01  0.00000000000E+00 0. -1.
         21    1    1    2  503  501  0.72668403372E+01  0.27222719993E+02  0.86614195891E+02  0.91081844416E+02  0.00000000000E+00 0. -1.
         21    1    1    2  504  502 -0.72668403372E+01 -0.27222719993E+02  0.12192968378E+03  0.12514284334E+03  0.00000000000E+00 0. -1.
</event>
<event>
 4    1  0.3048956E+006  0.2540807E+02  0.7546771E-02  0.1464290E+00
         21   -1    0    0  503  501  0.00000000000E+00  0.00000000000E+00  0.58575099080E+02  0.58575099080E+02  0.00000000000E+00 0.  1.
         21   -1    0    0  504  502 -0.00000000000E+00 -0.00000000000E+00 -0.59325652877E+02  0.59325652877E+02  0.00000000000E+00 0. -1.
         21    1    1    2  503  502 -0.10763093387E+02 -0.23015774539E+02  0.52818243458E+02  0.58611747107E+02  0.00000000000E+00 0.  1.
         21    1    1    2  504  501  0.10763093387E+02  0.23015774539E+02 -0.53568797255E+02  0.59289004851E+02  0.00000000000E+00 0. -1.
</event>
<event>
 4    1  0.3048956E+006  0.2095022E+02  0.7546771E-02  0.1519977E+00
         21   -1    0    0  504  501  0.00000000000E+00  0.00000000000E+00  0.68357465211E+01  0.68357465211E+01  0.00000000000E+00 0. -1.
         21   -1    0    0  503  502 -0.00000000000E+00 -0.00000000000E+00 -0.11285538120E+03  0.11285538120E+03  0.00000000000E+00 0. -1.
         21    1    1    2  503  501 -0.49531002109E+00 -0.20944365523E+02 -0.13718268783E+02  0.25042018241E+02  0.00000000000E+00 0. -1.
         21    1    1    2  504  502  0.49531002109E+00  0.20944365523E+02 -0.92301365895E+02  0.94649109480E+02  0.00000000000E+00 0. -1.
</event>
<event>
 4    1  0.3048956E+006  0.2249779E+02  0.7546771E-02  0.1498903E+00
         21   -1    0    0  503  501  0.00000000000E+00  0.00000000000E+00  0.13016879298E+02  0.13016879298E+02  0.00000000000E+00 0. -1.
         21   -1    0    0  504  502 -0.00000000000E+00 -0.00000000000E+00 -0.15381272293E+03  0.15381272293E+03  0.00000000000E+00 0. -1.
         21    1    1    2  503  502 -0.67764887251E+01 -0.21452971004E+02  0.17063385334E+01  0.22562410233E+02  0.00000000000E+00 0. -1.
         21    1    1    2  504  501  0.67764887251E+01  0.21452971004E+02 -0.14250218216E+03  0.14426719199E+03  0.00000000000E+00 0. -1.
</event>
<event>
 4    1  0.3048956E+006  0.2253499E+02  0.7546771E-02  0.1498421E+00
         21   -1    0    0  504  501  0.00000000000E+00  0.00000000000E+00  0.12735130668E+03  0.12735130668E+03  0.00000000000E+00 0.  1.
         21   -1    0    0  503  502 -0.00000000000E+00 -0.00000000000E+00 -0.87959202581E+02  0.87959202581E+02  0.00000000000E+00 0. -1.
         21    1    1    2  503  501  0.22150470881E+02 -0.41451892030E+01 -0.85490643996E+02  0.88410837371E+02  0.00000000000E+00 0. -1.
         21    1    1    2  504  502 -0.22150470881E+02  0.41451892030E+01  0.12488274810E+03  0.12689967189E+03  0.00000000000E+00 0.  1.
</event>
<event>
 4    1  0.3048956E+006  0.2333307E+02  0.7546771E-02  0.1488358E+00
         21   -1    0    0  503  501  0.00000000000E+00  0.00000000000E+00  0.75811042075E+01  0.75811042075E+01  0.00000000000E+00 0.  1.
         21   -1    0    0  504  502 -0.00000000000E+00 -0.00000000000E+00 -0.17106070433E+03  0.17106070433E+03  0.00000000000E+00 0.  1.
         21    1    1    2  503  502 -0.14612951571E+02  0.18190486137E+02 -0.14977524740E+03  0.15158184876E+03  0.00000000000E+00 0.  1.
         21    1    1    2  504  501  0.14612951571E+02 -0.18190486137E+02 -0.13704352717E+02  0.27059959773E+02  0.00000000000E+00 0.  1.
</event>
<event>
 4    1  0.3048956E+006  0.3320100E+02  0.7546771E-02  0.1393672E+00
         21   -1    0    0  503  501  0.00000000000E+00  0.00000000000E+00  0.28980992122E+02  0.28980992122E+02  0.00000000000E+00 0. -1.
         21   -1    0    0  504  502 -0.00000000000E+00 -0.00000000000E+00 -0.37319834900E+03  0.37319834900E+03  0.00000000000E+00 0.  1.
         21    1    1    2  503  502 -0.25129011448E+02  0.21698825299E+02  0.18458388158E+02  0.37987081082E+02  0.00000000000E+00 0. -1.
         21    1    1    2  504  501  0.25129011448E+02 -0.21698825299E+02 -0.36267574504E+03  0.36419226004E+03  0.00000000000E+00 0.  1.
</event>
<event>
 4    1  0.3048956E+006  0.2998582E+02  0.7546771E-02  0.1419720E+00
         21   -1    0    0  502  501  0.00000000000E+00  0.00000000000E+00  0.24084249249E+03  0.24084249249E+03  0.00000000000E+00 0. -1.
         21   -1    0    0  503  502 -0.00000000000E+00 -0.00000000000E+00 -0.44879540586E+01  0.44879540586E+01  0.00000000000E+00 0. -1.
         21    1    1    2  503  504 -0.21030509657E+02 -0.21374453303E+02  0.67878599765E+02  0.74206831872E+02  0.00000000000E+00 0. -1.
         21    1    1    2  504  501  0.21030509657E+02  0.21374453303E+02  0.16847593867E+03  0.17112361468E+03  0.00000000000E+00 0. -1.
</event>
<event>
 4    1  0.3048956E+006  0.7288591E+02  0.7546771E-02  0.1221402E+00
         21   -1    0    0  503  501  0.00000000000E+00  0.00000000000E+00  0.18470168329E+04  0.18470168329E+04  0.00000000000E+00 0. -1.
         21   -1    0    0  501  502 -0.00000000000E+00 -0.00000000000E+00 -0.10834973658E+02  0.10834973658E+02  0.00000000000E+00 0. -1.
         21    1    1    2  503  504  0.34318420447E+02 -0.64300864964E+02  0.17142332890E+04  0.17157820737E+04  0.00000000000E+00 0. -1.
         21    1    1    2  504  502 -0.34318420447E+02  0.64300864964E+02  0.12194857021E+03  0.14206973285E+03  0.00000000000E+00 0. -1.
</event>
<event>
 4    1  0.3048956E+006  0.2119525E+02  0.7546771E-02  0.1516495E+00
         21   -1    0    0  504  501  0.00000000000E+00  0.00000000000E+00  0.30810492421E+02  0.30810492421E+02  0.00000000000E+00 0.  1.
         21   -1    0    0  503  502 -0.00000000000E+00 -0.00000000000E+00 -0.72098919513E+02  0.72098919513E+02  0.00000000000E+00 0. -1.
         21    1    1    2  503  501  0.20314200188E+02  0.60474860373E+01  0.25314028336E+02  0.33015736358E+02  0.00000000000E+00 0.  1.
         21    1    1    2  504  502 -0.20314200188E+02 -0.60474860373E+01 -0.66602455428E+02  0.69893675577E+02  0.00000000000E+00 0. -1.
</event>
<event>
 4    1  0.3048956E+006  0.2425708E+02  0.7546771E-02  0.1477289E+00
         21   -1    0    0  504  501  0.00000000000E+00  0.00000000000E+00  0.13546693971E+02  0.13546693971E+02  0.00000000000E+00 0.  1.
         21   -1    0    0  503  502 -0.00000000000E+00 -0.00000000000E+00 -0.95691301971E+02  0.95691301971E+02  0.00000000000E+00 0.  1.
         21    1    1    2  503  501  0.23661493124E+01 -0.24141404786E+02 -0.71007279930E+00  0.24267473931E+02  0.00000000000E+00 0.  1.
         21    1    1    2  504  502 -0.23661493124E+01  0.24141404786E+02 -0.81434535201E+02  0.84970522012E+02  0.00000000000E+00 0.  1.
</event>
<event>
 4    1  0.3048956E+006  0.4337696E+02  0.7546771E-02  0.1329758E+00
         21   -1    0    0  503  501  0.00000000000E+00  0.00000000000E+00  0.18706538889E+02  0.18706538889E+02  0.00000000000E+00 0.  1.
         21   -1    0    0  504  502 -0.00000000000E+00 -0.00000000000E+00 -0.45535031838E+03  0.45535031838E+03  0.00000000000E+00 0. -1.
         21    1    1    2  503  502  0.36970914064E+02  0.22687273053E+02 -0.91037272142E+01  0.44321988837E+02  0.00000000000E+00 0.  1.
         21    1    1    2  504  501 -0.36970914064E+02 -0.22687273053E+02 -0.42754005228E+03  0.42973486844E+03  0.00000000000E+00 0. -1.
</event>
<event>
 4    1  0.3048956E+006  0.2832823E+02  0.7546771E-02  0.1434703E+00
         21   -1    0    0  502  501  0.00000000000E+00  0.00000000000E+00  0.26850960019E+01  0.26850960019E+01  0.00000000000E+00 0.  1.
         21   -1    0    0  503  502 -0.00000000000E+00 -0.00000000000E+00 -0.41338895890E+03  0.41338895890E+03  0.00000000000E+00 0.  1.
         21    1    1    2  503  504  0.96604071047E+01  0.26630158151E+02 -0.31484938827E+03  0.31612122055E+03  0.00000000000E+00 0.  1.
         21    1    1    2  504  501 -0.96604071047E+01 -0.26630158151E+02 -0.95854474634E+02  0.99952834356E+02  0.00000000000E+00 0.  1.
</event>
<event>
 4    1  0.3048956E+006  0.2372444E+02  0.7546771E-02  0.1483596E+00
         21   -1    0    0  504  501  0.00000000000E+00  0.00000000000E+00  0.33781510266E+01  0.33781510266E+01  0.00000000000E+00 0. -1.
         21   -1    0    0  503  502 -0.00000000000E+00 -0.00000000000E+00 -0.22853509447E+03  0.22853509447E+03  0.00000000000E+00 0.  1.
         21    1    1    2  503  501 -0.18422054805E+02 -0.14949141193E+02 -0.52220215354E+02  0.57356776559E+02  0.00000000000E+00 0. -1.
         21    1    1    2  504  502  0.18422054805E+02  0.14949141193E+02 -0.17293672809E+03  0.17455646894E+03  0.00000000000E+00 0.  1.
</event>
<event>
 4    1  0.3048956E+006  0.2473204E+02  0.7546771E-02  0.1471823E+00
         21   -1    0    0  504  501  0.00000000000E+00  0.00000000000E+00  0.26797781059E+02  0.26797781059E+02  0.00000000000E+00 0. -1.
         21   -1    0    0  503  502 -0.00000000000E+00 -0.00000000000E+00 -0.34093287114E+02  0.34093287114E+02  0.00000000000E+00 0. -1.
         21    1    1    2  503  501 -0.22609236179E+02 -0.10024783353E+02 -0.21150559528E+02  0.32542587639E+02  0.00000000000E+00 0. -1.
         21    1    1    2  504  502  0.22609236179E+02  0.10024783353E+02  0.13855053473E+02  0.28348480534E+02  0.00000000000E+00 0. -1.
</event>
<event>
 4    1  0.3048956E+006  0.2254463E+02  0.7546771E-02  0.1498297E+00
         21   -1    0    0  503  501  0.00000000000E+00  0.00000000000E+00  0.13279045026E+03  0.13279045026E+03  0.00000000000E+00 0. -1.
         21   -1    0    0  504  502 -0.00000000000E+00 -0.00000000000E+00 -0.12061052748E+02  0.12061052748E+02  0.00000000000E+00 0. -1.
         21    1    1    2  503  502 -0.18201199538E+02  0.13303249754E+02  0.12020490894E+03  0.12230077781E+03  0.00000000000E+00 0. -1.
         21    1    1    2  504  501  0.18201199538E+02 -0.13303249754E+02  0.52448856717E+00  0.22550725197E+02  0.00000000000E+00 0. -1.
</event>
<event>
 4    1  0.3048956E+006  0.2306244E+02  0.7546771E-02  0.1491716E+00
         21   -1    0    0  503  501  0.00000000000E+00  0.00000000000E+00  0.58330231773E+03  0.58330231773E+03  0.00000000000E+00 0.  1.
         21   -1    0    0  504  502 -0.00000000000E+00 -0.00000000000E+00 -0.38021330687E+01  0.38021330687E+01  0.00000000000E+00 0. -1.
         21    1    1    2  503  502  0.21385276085E+02 -0.86340063910E+01  0.54569291542E+03  0.54618003812E+03  0.00000000000E+00 0.  1.
         21    1    1    2  504  501 -0.21385276085E+02  0.86340063910E+01  0.33807269236E+02  0.40924412675E+02  0.00000000000E+00 0. -1.
</event>
<event>
 4    1  0.3048956E+006  0.2483077E+02  0.7546771E-02  0.1470705E+00
         21   -1    0    0  503  501  0.00000000000E+00  0.00000000000E+00  0.44087677509E+01  0.44087677509E+01  0.00000000000E+00 0.  1.
         21   -1    0    0  504  502 -0.00000000000E+00 -0.00000000000E+00 -0.20050295704E+03  0.20050295704E+03  0.00000000000E+00 0.  1.
         21    1    1    2  503  502  0.23897702733E+01  0.24715508229E+02 -0.15439807219E+03  0.15638200678E+03  0.00000000000E+00 0.  1.
         21    1    1    2  504  501 -0.23897702733E+01 -0.24715508229E+02 -0.41696117103E+02  0.48529718013E+02  0.00000000000E+00 0.  1.
</event>
<event>
 4    1  0.3048956E+006  0.2171278E+02  0.7546771E-02  0.1509327E+00
         21   -1    0    0  504  501  0.00000000000E+00  0.00000000000E+00  0.31989064013E+02  0.31989064013E+02  0.00000000000E+00 0. -1.
         21   -1    0    0  503  502 -0.00000000000E+00 -0.00000000000E+00 -0.26572185171E+02  0.26572185171E+02  0.00000000000E+00 0.  1.
         21    1    1    2  503  501 -0.21615464540E+02  0.20534432944E+01  0.22249204060E+02  0.31088133072E+02  0.00000000000E+00 0. -1.
         21    1    1    2  504  502  0.21615464540E+02 -0.20534432944E+01 -0.16832325217E+02  0.27473116111E+02  0.00000000000E+00 0.  1.
</event>
<event>
 4    1  0.3048956E+006  0.2364220E+02  0.7546771E-02  0.1484588E+00
         21   -1    0    0  504  501  0.00000000000E+00  0.00000000000E+00  0.10085221959E+02  0.10085221959E+02  0.00000000000E+00 0. -1.
         21   -1    0    0  501  502 -0.00000000000E+00 -0.00000000000E+00 -0.14699963726E+03  0.14699963726E+03  0.00000000000E+00 0.  1.
         21    1    1    2  503  502  0.11938852889E+02 -0.20406309243E+02 -0.13044960761E+03  0.13257471023E+03  0.00000000000E+00 0.  1.
         21    1    1    2  504  503 -0.11938852889E+02  0.20406309243E+02 -0.64648076890E+01  0.24510148994E+02  0.00000000000E+00 0. -1.
</event>
<event>
 4    1  0.3048956E+006  0.2169975E+02  0.7546771E-02  0.1509504E+00
         21   -1    0    0  504  501  0.00000000000E+00  0.00000000000E+00  0.97513333868E+03  0.97513333868E+03  0.00000000000E+00 0. -1.
         21   -1    0    0  503  502 -0.00000000000E+00 -0.00000000000E+00 -0.22553695860E+01  0.22553695860E+01  0.00000000000E+00 0.  1.
         21    1    1    2  503  501 -0.13172353050E+02 -0.17244366174E+02  0.53208038704E+02  0.57462809123E+02  0.00000000000E+00 0.  1.
         21    1    1    2  504  502  0.13172353050E+02  0.17244366174E+02  0.91966993039E+03  0.91992589915E+03  0.00000000000E+00 0. -1.
</event>
<event>
 4    1  0.3048956E+006  0.2467397E+02  0.7546771E-02  0.1472484E+00
         21   -1    0    0  504  501  0.00000000000E+00  0.00000000000E+00  0.71944236481E+01  0.71944236481E+01  0.00000000000E+00 0. -1.
         21   -1    0    0  501  502 -0.00000000000E+00 -0.00000000000E+00 -0.15678996060E+03  0.15678996060E+03  0.00000000000E+00 0.  1.
         21    1    1    2  503  502  0.11574914595E+02 -0.21790503922E+02 -0.13042485895E+03  0.13273827083E+03  0.00000000000E+00 0.  1.
         21    1    1    2  504  503 -0.11574914595E+02  0.21790503922E+02 -0.19170678001E+02  0.31246113423E+02  0.00000000000E+00 0. -1.
</event>
<event>
 4    1  0.3048956E+006  0.2362337E+02  0.7546771E-02  0.1484815E+00
         21   -1    0    0  503  501  0.00000000000E+00  0.00000000000E+00  0.23248529563E+01  0.23248529563E+01  0.00000000000E+00 0. -1.
         21   -1    0    0  504  502 -0.00000000000E+00 -0.00000000000E+00 -0.30866348551E+03  0.30866348551E+03  0.00000000000E+00 0. -1.
         21    1    1    2  503  502 -0.21482991872E+02 -0.98257177281E+01 -0.79853149962E+02  0.83274181037E+02  0.00000000000E+00 0. -1.
         21    1    1    2  504  501  0.21482991872E+02  0.98257177281E+01 -0.22648548259E+03  0.22771415742E+03  0.00000000000E+00 0. -1.
</event>
<event>
 4    1  0.3048956E+006  0.3001171E+02  0.7546771E-02  0.1419495E+00
         21   -1    0    0  502  501  0.00000000000E+00  0.00000000000E+00  0.38291539024E+01  0.38291539024E+01  0.00000000000E+00 0. -1.
         21   -1    0    0  503  502 -0.00000000000E+00 -0.00000000000E+00 -0.56059554116E+03  0.56059554116E+03  0.00000000000E+00 0.  1.
         21    1    1    2  503  504 -0.29516007935E+02  0.54321473609E+01 -0.49338495146E+03  0.49429688779E+03  0.00000000000E+00 0.  1.
         21    1    1    2  504  501  0.29516007935E+02 -0.54321473609E+01 -0.63381435797E+02  0.70127807274E+02  0.00000000000E+00 0. -1.
</event>
<event>
 4    1  0.3048956E+006  0.2266145E+02  0.7546771E-02  0.1496794E+00
         21   -1    0    0  503  501  0.00000000000E+00  0.00000000000E+00  0.17715368345E+03  0.17715368345E+03  0.00000000000E+00 0. -1.
         21   -1    0    0  504  502 -0.00000000000E+00 -0.00000000000E+00 -0.34186046380E+01  0.34186046380E+01  0.00000000000E+00 0. -1.
         21    1    1    2  503  502 -0.18891709369E+02  0.12515770649E+02  0.51663083238E+02  0.56414673335E+02  0.00000000000E+00 0. -1.
         21    1    1    2  504  501  0.18891709369E+02 -0.12515770649E+02  0.12207199557E+03  0.12415761475E+03  0.00000000000E+00 0. -1.
</event>
<event>
 4    1  0.3048956E+006  0.2247805E+02  0.7546771E-02  0.1499158E+00
         21   -1    0    0  504  501  0.00000000000E+00  0.00000000000E+00  0.13452933800E+01  0.13452933800E+01  0.00000000000E+00 0.  1.
         21   -1    0    0  501  502 -0.00000000000E+00 -0.00000000000E+00 -0.49445205945E+03  0.49445205945E+03  0.00000000000E+00 0.  1.
         21    1    1    2  503  502 -0.20248120106E+02  0.97609622116E+01 -0.36810351946E+03  0.36878918610E+03  0.00000000000E+00 0.  1.
         21    1    1    2  504  503  0.20248120106E+02 -0.97609622116E+01 -0.12500324661E+03  0.12700816672E+03  0.00000000000E+00 0.  1.
</event>
<event>
 4    1  0.3048956E+006  0.3866124E+02  0.7546771E-02  0.1356515E+00
         21   -1    0    0  503  501  0.00000000000E+00  0.00000000000E+00  0.46358739317E+03  0.46358739317E+03  0.00000000000E+00 0.  1.
         21   -1    0    0  501  502 -0.00000000000E+00 -0.00000000000E+00 -0.46177993253E+01  0.46177993253E+01  0.00000000000E+00 0.  1.
         21    1    1    2  503  504 -0.30531497442E+02  0.23717482616E+02  0.35809045347E+03  0.36017143721E+03  0.00000000000E+00 0.  1.
         21    1    1    2  504  502  0.30531497442E+02 -0.23717482616E+02  0.10087914038E+03  0.10803375528E+03  0.00000000000E+00 0.  1.
</event>
<event>
 4    1  0.3048956E+006  0.2382038E+02  0.7546771E-02  0.1482446E+00
         21   -1    0    0  504  501  0.00000000000E+00  0.00000000000E+00  0.12117007805E+02  0.12117007805E+02  0.00000000000E+00 0. -1.
         21   -1    0    0  501  502 -0.00000000000E+00 -0.00000000000E+00 -0.24505286070E+03  0.24505286070E+03  0.00000000000E+00 0.  1.
         21    1    1    2  503  502 -0.56232233851E+00  0.23813737210E+02 -0.23211634742E+03  0.23333540028E+03  0.00000000000E+00 0.  1.
         21    1    1    2  504  503  0.56232233851E+00 -0.23813737210E+02 -0.81950547810E+00  0.23834468224E+02  0.00000000000E+00 0. -1.
</event>
<event>
 4    1  0.3048956E+006  0.2302568E+02  0.7546771E-02  0.1492176E+00
         21   -1    0    0  502  501  0.00000000000E+00  0.00000000000E+00  0.11038905341E+02  0.11038905341E+02  0.00000000000E+00 0. -1.
         21   -1    0    0  503  502 -0.00000000000E+00 -0.00000000000E+00 -0.95275491279E+02  0.95275491279E+02  0.00000000000E+00 0.  1.
         21    1    1    2  503  504 -0.22872975618E+02  0.26474555462E+01 -0.79551632736E+02  0.82816932480E+02  0.00000000000E+00 0.  1.
         21    1    1    2  504  501  0.22872975618E+02 -0.26474555462E+01 -0.46849532032E+01  0.23497464140E+02  0.00000000000E+00 0. -1.
</event>
<event>
 4    1  0.3048956E+006  0.2243255E+02  0.7546771E-02  0.1499749E+00
         21   -1    0    0  504  501  0.00000000000E+00  0.00000000000E+00  0.99572484621E+01  0.99572484621E+01  0.00000000000E+00 0.  1.
         21   -1    0    0  503  502 -0.00000000000E+00 -0.00000000000E+00 -0.10185732601E+03  0.10185732601E+03  0.00000000000E+00 0.  1.
         21    1    1    2  503  501  0.81447872405E+01  0.20901715060E+02 -0.85633800112E+02  0.88523256680E+02  0.00000000000E+00 0.  1.
         21    1    1    2  504  502 -0.81447872405E+01 -0.20901715060E+02 -0.62662774378E+01  0.23291317794E+02  0.00000000000E+00 0.  1.
</event>
<event>
 4    1  0.3048956E+006  0.2450061E+02  0.7546771E-02  0.1474468E+00
         21   -1    0    0  504  501  0.00000000000E+00  0.00000000000E+00  0.16774435655E+02  0.16774435655E+02  0.00000000000E+00 0.  1.
         21   -1    0    0  503  502 -0.00000000000E+00 -0.00000000000E+00 -0.35885034316E+02  0.35885034316E+02  0.00000000000E+00 0.  1.
         21    1    1    2  503  501 -0.23886869144E+02 -0.54495310218E+01 -0.81679297118E+01  0.25826245984E+02  0.00000000000E+00 0.  1.
         21    1    1    2  504  502  0.23886869144E+02  0.54495310218E+01 -0.10942668949E+02  0.26833223987E+02  0.00000000000E+00 0.  1.
</event>
<event>
 4    1  0.3048956E+006  0.2549595E+02  0.7546771E-02  0.1463331E+00
         21   -1    0    0  504  501  0.00000000000E+00  0.00000000000E+00  0.14420900403E+02  0.14420900403E+02  0.00000000000E+00 0.  1.
         21   -1    0    0  503  502 -0.00000000000E+00 -0.00000000000E+00 -0.18612187149E+04  0.18612187149E+04  0.00000000000E+00 0.  1.
         21    1    1    2  503  501  0.24426447243E+02  0.73070073176E+01  0.29948564654E+01  0.25671245512E+02  0.00000000000E+00 0.  1.
         21    1    1    2  504  502 -0.24426447243E+02 -0.73070073176E+01 -0.18497926710E+04  0.18499683698E+04  0.00000000000E+00 0.  1.
</event>
<event>
 4    1  0.3048956E+006  0.2197139E+02  0.7546771E-02  0.1505835E+00
         21   -1    0    0  504  501  0.00000000000E+00  0.00000000000E+00  0.20028316271E+03  0.20028316271E+03  0.00000000000E+00 0. -1.
         21   -1    0    0  503  502 -0.00000000000E+00 -0.00000000000E+00 -0.78814061244E+01  0.78814061244E+01  0.00000000000E+00 0. -1.
         21    1    1    2  503  501 -0.15650882615E+02 -0.15420501095E+02  0.94822028145E+01  0.23930193289E+02  0.00000000000E+00 0. -1.
         21    1    1    2  504  502  0.15650882615E+02  0.15420501095E+02  0.18291955377E+03  0.18423437554E+03  0.00000000000E+00 0. -1.
</event>
<event>
 4    1  0.3048956E+006  0.3582594E+02  0.7546771E-02  0.1374848E+00
         21   -1    0    0  504  501  0.00000000000E+00  0.00000000000E+00  0.19072954463E+02  0.19072954463E+02  0.00000000000E+00 0. -1.
         21   -1    0    0  503  502 -0.00000000000E+00 -0.00000000000E+00 -0.22148829358E+03  0.22148829358E+03  0.00000000000E+00 0. -1.
         21    1    1    2  503  501 -0.87690166287E+01  0.34736181014E+02 -0.20156618960E+03  0.20472524689E+03  0.00000000000E+00 0. -1.
         21    1    1    2  504  502  0.87690166287E+01 -0.34736181014E+02 -0.84914952104E+00  0.35836001157E+02  0.00000000000E+00 0. -1.
</event>
<event>
 4    1  0.3048956E+006  0.2156653E+02  0.7546771E-02  0.1511328E+00
         21   -1    0    0  504  501  0.00000000000E+00  0.00000000000E+00  0.59698311189E+01  0.59698311189E+01  0.00000000000E+00 0. -1.
         21   -1    0    0  503  502 -0.00000000000E+00 -0.00000000000E+00 -0.11422068132E+03  0.11422068132E+03  0.00000000000E+00 0. -1.
         21    1    1    2  503  501  0.92773811375E+01 -0.19469089107E+02 -0.20242623097E+02  0.29578353932E+02  0.00000000000E+00 0. -1.
         21    1    1    2  504  502 -0.92773811375E+01  0.19469089107E+02 -0.88008227105E+02  0.90612158509E+02  0.00000000000E+00 0. -1.
</event>
<event>
 4    1  0.3048956E+006  0.2340411E+02  0.7546771E-02  0.1487485E+00
         21   -1    0    0  502  501  0.00000000000E+00  0.00000000000E+00  0.29894775807E+02  0.29894775807E+02  0.00000000000E+00 0. -1.
         21   -1    0    0  503  502 -0.00000000000E+00 -0.00000000000E+00 -0.18470816347E+02  0.18470816347E+02  0.00000000000E+00 0. -1.
         21    1    1    2  503  504  0.21936131158E+02 -0.81583462554E+01  0.35463127072E+01  0.23671265231E+02  0.00000000000E+00 0. -1.
         21    1    1    2  504  501 -0.21936131158E+02  0.81583462554E+01  0.78776467526E+01  0.24694326923E+02  0.00000000000E+00 0. -1.
</event>
<event>
 4    1  0.3048956E+006  0.2212542E+02  0.7546771E-02  0.1503782E+00
         21   -1    0    0  503  501  0.00000000000E+00  0.00000000000E+00  0.24696959962E+02  0.24696959962E+02  0.00000000000E+00 0.  1.
         21   -1    0    0  504  502 -0.00000000000E+00 -0.00000000000E+00 -0.20957326332E+02  0.20957326332E+02  0.00000000000E+00 0.  1.
         21    1    1    2  503  502 -0.12536387970E+02  0.18231101214E+02 -0.34440929569E+01  0.22391870201E+02  0.00000000000E+00 0.  1.
         21    1    1    2  504  501  0.12536387970E+02 -0.18231101214E+02  0.71837265867E+01  0.23262416093E+02  0.00000000000E+00 0.  1.
</event>
<event>
 4    1  0.3048956E+006  0.4293876E+02  0.7546771E-02  0.1332075E+00
         21   -1    0    0  504  501  0.00000000000E+00  0.00000000000E+00  0.29359466769E+02  0.29359466769E+02  0.00000000000E+00 0.  1.
         21   -1    0    0  501  502 -0.00000000000E+00 -0.00000000000E+00 -0.15430088786E+03  0.15430088786E+03  0.00000000000E+00 0.  1.
         21    1    1    2  503  502  0.36919216456E+02  0.21925062348E+02 -0.13318658312E+03  0.13993713883E+03  0.00000000000E+00 0.  1.
         21    1    1    2  504  503 -0.36919216456E+02 -0.21925062348E+02  0.82451620242E+01  0.43723215796E+02  0.00000000000E+00 0.  1.
</event>
<event>
 4    1  0.3048956E+006  0.2378176E+02  0.7546771E-02  0.1482908E+00
         21   -1    0    0  504  501  0.00000000000E+00  0.00000000000E+00  0.26065608081E+03  0.26065608081E+03  0.00000000000E+00 0.  1.
         21   -1    0    0  501  502 -0.00000000000E+00 -0.00000000000E+00 -0.25224294966E+02  0.25224294966E+02  0.00000000000E+00 0.  1.
         21    1    1    2  503  502 -0.10089182893E+02  0.21535567930E+02 -0.18938189521E+02  0.30401107214E+02  0.00000000000E+00 0.  1.
         21    1    1    2  504  503  0.10089182893E+02 -0.21535567930E+02  0.25436997536E+03  0.25547926856E+03  0.00000000000E+00 0.  1.
</event>
<event>
 4    1  0.3048956E+006  0.2377741E+02  0.7546771E-02  0.1482960E+00
         21   -1    0    0  504  501  0.00000000000E+00  0.00000000000E+00  0.63887635289E+02  0.63887635289E+02  0.00000000000E+00 0. -1.
         21   -1    0    0  503  502 -0.00000000000E+00 -0.00000000000E+00 -0.32012707079E+02  0.32012707079E+02  0.00000000000E+00 0.  1.
         21    1    1    2  503  501  0.69006220514E+01  0.22754047229E+02 -0.24850265906E+02  0.34393327341E+02  0.00000000000E+00 0.  1.
         21    1    1    2  504  502 -0.69006220514E+01 -0.22754047229E+02  0.56725194116E+02  0.61507015026E+02  0.00000000000E+00 0. -1.
</event>
<event>
 4    1  0.3048956E+006  0.2574523E+02  0.7546771E-02  0.1460637E+00
         21   -1    0    0  502  501  0.00000000000E+00  0.00000000000E+00  0.72737821379E+03  0.72737821379E+03  0.00000000000E+00 0. -1.
         21   -1    0    0  504  502 -0.00000000000E+00 -0.00000000000E+00 -0.11956213042E+01  0.11956213042E+01  0.00000000000E+00 0.  1.
         21    1    1    2  503  501 -0.32863441063E+01  0.25534617232E+02  0.54075414911E+03  0.54136666550E+03  0.00000000000E+00 0. -1.
         21    1    1    2  504  503  0.32863441063E+01 -0.25534617232E+02  0.18542844337E+03  0.18720716959E+03  0.00000000000E+00 0.  1.
</event>
<event>
 4    1  0.3048956E+006  0.6158472E+02  0.7546771E-02  0.1254541E+00
         21   -1    0    0  503  501  0.00000000000E+00  0.00000000000E+00  0.73893816177E+02  0.73893816177E+02  0.00000000000E+00 0. -1.
         21   -1    0    0  504  502 -0.00000000000E+00 -0.00000000000E+00 -0.19590153388E+03  0.19590153388E+03  0.00000000000E+00 0.  1.
         21    1    1    2  503  502  0.83350541936E+01  0.61018069696E+02 -0.17689036472E+03  0.18730424204E+03  0.00000000000E+00 0.  1.
         21    1    1    2  504  501 -0.83350541936E+01 -0.61018069696E+02  0.54882647015E+02  0.82491108013E+02  0.00000000000E+00 0. -1.
</event>
<event>
 4    1  0.3048956E+006  0.2690776E+02  0.7546771E-02  0.1448537E+00
         21   -1    0    0  504  501  0.00000000000E+00  0.00000000000E+00  0.30996760821E+02  0.30996760821E+02  0.00000000000E+00 0. -1.
         21   -1    0    0  501  502 -0.00000000000E+00 -0.00000000000E+00 -0.11198783590E+03  0.11198783590E+03  0.00000000000E+00 0. -1.
         21    1    1    2  503  502 -0.83693080549E+01  0.25573075915E+02 -0.10409645719E+03  0.10751790515E+03  0.00000000000E+00 0. -1.
         21    1    1    2  504  503  0.83693080549E+01 -0.25573075915E+02  0.23105382104E+02  0.35466691575E+02  0.00000000000E+00 0. -1.
</event>
<event>
 4    1  0.3048956E+006  0.2916766E+02  0.7546771E-02  0.1426970E+00
         21   -1    0    0  503  501  0.00000000000E+00  0.00000000000E+00  0.40405130385E+01  0.40405130385E+01  0.00000000000E+00 0. -1.
         21   -1    0    0  504  502 -0.00000000000E+00 -0.00000000000E+00 -0.81184963828E+03  0.81184963828E+03  0.00000000000E+00 0. -1.
         21    1    1    2  503  502  0.23494928676E+02 -0.17284113914E+02 -0.52823521770E+02  0.60341335082E+02  0.00000000000E+00 0. -1.
         21    1    1    2  504  501 -0.23494928676E+02  0.17284113914E+02 -0.75498560348E+03  0.75554881624E+03  0.00000000000E+00 0. -1.
</event>
<event>
 4    1  0.3048956E+006  0.2044641E+02  0.7546771E-02  0.1527317E+00
         21   -1    0    0  502  501  0.00000000000E+00  0.00000000000E+00  0.13075799554E+02  0.13075799554E+02  0.00000000000E+00 0. -1.
         21   -1    0    0  503  502 -0.00000000000E+00 -0.00000000000E+00 -0.21582676829E+03  0.21582676829E+03  0.00000000000E+00 0. -1.
         21    1    1    2  503  504  0.12784089900E+02 -0.15956904462E+02 -0.20700998874E+03  0.20801728580E+03  0.00000000000E+00 0. -1.
         21    1    1    2  504  501 -0.12784089900E+02  0.15956904462E+02  0.42590200035E+01  0.20885282041E+02  0.00000000000E+00 0. -1.
</event>
<event>
 4    1  0.3048956E+006  0.2325485E+02  0.7546771E-02  0.1489323E+00
         21   -1    0    0  504  501  0.00000000000E+00  0.00000000000E+00  0.29117171004E+03  0.29117171004E+03  0.00000000000E+00 0. -1.
         21   -1    0    0  503  502 -0.00000000000E+00 -0.00000000000E+00 -0.14064336979E+02  0.14064336979E+02  0.00000000000E+00 0. -1.
         21    1    1    2  503  501  0.23195357870E+02 -0.16623888424E+01 -0.36306094707E+01  0.23536556428E+02  0.00000000000E+00 0. -1.
         21    1    1    2  504  502 -0.23195357870E+02  0.16623888424E+01  0.28073798253E+03  0.28169949059E+03  0.00000000000E+00 0. -1.
</event>
<event>
 4    1  0.3048956E+006  0.2547862E+02  0.7546771E-02  0.1463520E+00
         21   -1    0    0  503  501  0.00000000000E+00  0.00000000000E+00  0.34672283118E+02  0.34672283118E+02  0.00000000000E+00 0. -1.
         21   -1    0    0  504  502 -0.00000000000E+00 -0.00000000000E+00 -0.21786805891E+03  0.21786805891E+03  0.00000000000E+00 0.  1.
         21    1    1    2  503  502 -0.21368762489E+02 -0.13875734172E+02 -0.21232061624E+03  0.21384387784E+03  0.00000000000E+00 0.  1.
         21    1    1    2  504  501  0.21368762489E+02  0.13875734172E+02  0.29124840451E+02  0.38696464185E+02  0.00000000000E+00 0. -1.
</event>
<event>
 4    1  0.3048956E+006  0.2392912E+02  0.7546771E-02  0.1481149E+00
         21   -1    0    0  503  501  0.00000000000E+00  0.00000000000E+00  0.17491107250E+03  0.17491107250E+03  0.00000000000E+00 0.  1.
         21   -1    0    0  501  502 -0.00000000000E+00 -0.00000000000E+00 -0.54125518448E+03  0.54125518448E+03  0.00000000000E+00 0.  1.
         21    1    1    2  503  504 -0.21480589498E+02 -0.10544529323E+02  0.17382653104E+03  0.17546585342E+03  0.00000000000E+00 0.  1.
         21    1    1    2  504  502  0.21480589498E+02  0.10544529323E+02 -0.54017064302E+03  0.54070040356E+03  0.00000000000E+00 0.  1.
</event>
<event>
 4    1  0.3048956E+006  0.2351204E+02  0.7546771E-02  0.1486167E+00
         21   -1    0    0  504  501  0.00000000000E+00  0.00000000000E+00  0.70961988635E+03  0.70961988635E+03  0.00000000000E+00 0. -1.
         21   -1    0    0  501  502 -0.00000000000E+00 -0.00000000000E+00 -0.19516715032E+03  0.19516715032E+03  0.00000000000E+00 0. -1.
         21    1    1    2  503  502  0.18491037080E+02 -0.14522311810E+02 -0.19426335828E+03  0.19568103731E+03  0.00000000000E+00 0. -1.
         21    1    1    2  504  503 -0.18491037080E+02  0.14522311810E+02  0.70871609431E+03  0.70910599936E+03  0.00000000000E+00 0. -1.
</event>
<event>
 4    1  0.3048956E+006  0.2037771E+02  0.7546771E-02  0.1528338E+00
         21   -1    0    0  503  501  0.00000000000E+00  0.00000000000E+00  0.21451198167E+02  0.21451198167E+02  0.00000000000E+00 0.  1.
         21   -1    0    0  504  502 -0.00000000000E+00 -0.00000000000E+00 -0.70293010666E+02  0.70293010666E+02  0.00000000000E+00 0. -1.
         21    1    1    2  503  502 -0.48693469128E+01 -0.19787379199E+02 -0.63469110530E+02  0.66660174815E+02  0.00000000000E+00 0. -1.
         21    1    1    2  504  501  0.48693469128E+01  0.19787379199E+02  0.14627298031E+02  0.25084034017E+02  0.00000000000E+00 0.  1.
</event>
<event>
 4    1  0.3048956E+006  0.5333896E+02  0.7546771E-02  0.1284311E+00
         21   -1    0    0  503  501  0.00000000000E+00  0.00000000000E+00  0.14085501344E+03  0.14085501344E+03  0.00000000000E+00 0.  1.
         21   -1    0    0  504  502 -0.00000000000E+00 -0.00000000000E+00 -0.22982477998E+02  0.22982477998E+02  0.00000000000E+00 0.  1.
         21    1    1    2  503  502 -0.53248811833E+02 -0.30997966775E+01  0.87448172531E+02  0.10243157511E+03  0.00000000000E+00 0.  1.
         21    1    1    2  504  501  0.53248811833E+02  0.30997966775E+01  0.30424362909E+02  0.61405916323E+02  0.00000000000E+00 0.  1.
</event>
<event>
 4    1  0.3048956E+006  0.3276313E+02  0.7546771E-02  0.1397010E+00
         21   -1    0    0  502  501  0.00000000000E+00  0.00000000000E+00  0.13661155599E+03  0.13661155599E+03  0.00000000000E+00 0.  1.
         21   -1    0    0  504  502 -0.00000000000E+00 -0.00000000000E+00 -0.94129986707E+01  0.94129986707E+01  0.00000000000E+00 0. -1.
         21    1    1    2  503  501  0.29025968950E+02  0.15195912414E+02  0.93279658203E+02  0.98866158325E+02  0.00000000000E+00 0.  1.
         21    1    1    2  504  503 -0.29025968950E+02 -0.15195912414E+02  0.33918899114E+02  0.47158396333E+02  0.00000000000E+00 0. -1.
</event>
<event>
 4    1  0.3048956E+006  0.2229820E+02  0.7546771E-02  0.1501504E+00
         21   -1    0    0  502  501  0.00000000000E+00  0.00000000000E+00  0.28532666915E+02  0.28532666915E+02  0.00000000000E+00 0. -1.
         21   -1    0    0  503  502 -0.00000000000E+00 -0.00000000000E+00 -0.17445151046E+02  0.17445151046E+02  0.00000000000E+00 0. -1.
         21    1    1    2  503  504 -0.13908116799E+02 -0.17429120025E+02  0.47818495590E+01  0.22805175354E+02  0.00000000000E+00 0. -1.
         21    1    1    2  504  501  0.13908116799E+02  0.17429120025E+02  0.63056663102E+01  0.23172642606E+02  0.00000000000E+00 0. -1.
</event>
<event>
 4    1  0.3048956E+006  0.2466481E+02  0.7546771E-02  0.1472588E+00
         21   -1    0    0  502  501  0.00000000000E+00  0.00000000000E+00  0.49727314552E+01  0.49727314552E+01  0.00000000000E+00 0. -1.
         21   -1    0    0  504  502 -0.00000000000E+00 -0.00000000000E+00 -0.23676345378E+03  0.23676345378E+03  0.00000000000E+00 0.  1.
         21    1    1    2  503  501  0.24641066139E+02 -0.10819623986E+01 -0.31868889140E+02  0.40298621293E+02  0.00000000000E+00 0. -1.
         21    1    1    2  504  503 -0.24641066139E+02  0.10819623986E+01 -0.19992183319E+03  0.20143756394E+03  0.00000000000E+00 0.  1.
</event>
<event>
 4    1  0.3048956E+006  0.2389630E+02  0.7546771E-02  0.1481540E+00
         21   -1    0    0  504  501  0.00000000000E+00  0.00000000000E+00  0.25774433412E+02  0.25774433412E+02  0.00000000000E+00 0.  1.
         21   -1    0    0  501  502 -0.00000000000E+00 -0.00000000000E+00 -0.64662413114E+02  0.64662413114E+02  0.00000000000E+00 0.  1.
         21    1    1    2  503  502  0.10048424362E+02 -0.21680919254E+02 -0.56106457746E+02  0.60983339468E+02  0.00000000000E+00 0.  1.
         21    1    1    2  504  503 -0.10048424362E+02  0.21680919254E+02  0.17218478044E+02  0.29453507058E+02  0.00000000000E+00 0.  1.
</event>
<event>
 4    1  0.3048956E+006  0.6045221E+02  0.7546771E-02  0.1258304E+00
         21   -1    0    0  503  501  0.00000000000E+00  0.00000000000E+00  0.15894530692E+02  0.15894530692E+02  0.00000000000E+00 0.  1.
         21   -1    0    0  504  502 -0.00000000000E+00 -0.00000000000E+00 -0.30961151567E+03  0.30961151567E+03  0.00000000000E+00 0. -1.
         21    1    1    2  503  502 -0.29085582582E+02  0.52995272656E+02 -0.64287665600E+02  0.88246098986E+02  0.00000000000E+00 0.  1.
         21    1    1    2  504  501  0.29085582582E+02 -0.52995272656E+02 -0.22942931938E+03  0.23725994737E+03  0.00000000000E+00 0. -1.
</event>
<event>
 4    1  0.3048956E+006  0.2902254E+02  0.7546771E-02  0.1428285E+00
         21   -1    0    0  503  501  0.00000000000E+00  0.00000000000E+00  0.26583806055E+02  0.26583806055E+02  0.00000000000E+00 0. -1.
         21   -1    0    0  504  502 -0.00000000000E+00 -0.00000000000E+00 -0.64148299156E+02  0.64148299156E+02  0.00000000000E+00 0. -1.
         21    1    1    2  503  502  0.21843206350E+02  0.19109735470E+02  0.13490416735E+02  0.32004671488E+02  0.00000000000E+00 0. -1.
         21    1    1    2  504  501 -0.21843206350E+02 -0.19109735470E+02 -0.51054909835E+02  0.58727433723E+02  0.00000000000E+00 0. -1.
</event>
<event>
 4    1  0.3048956E+006  0.5891859E+02  0.7546771E-02  0.1263552E+00
         21   -1    0    0  504  501  0.00000000000E+00  0.00000000000E+00  0.10982025158E+03  0.10982025158E+03  0.00000000000E+00 0. -1.
         21   -1    0    0  501  502 -0.00000000000E+00 -0.00000000000E+00 -0.37177385433E+02  0.37177385433E+02  0.00000000000E+00 0.  1.
         21    1    1    2  503  502 -0.50600567525E+02 -0.30182498745E+02  0.78786040143E+01  0.59443023691E+02  0.00000000000E+00 0.  1.
         21    1    1    2  504  503  0.50600567525E+02  0.30182498745E+02  0.64764262131E+02  0.87554613320E+02  0.00000000000E+00 0. -1.
</event>
<event>
 4    1  0.3048956E+006  0.3468173E+02  0.7546771E-02  0.1382815E+00
         21   -1    0    0  504  501  0.00000000000E+00  0.00000000000E+00  0.34315274071E+02  0.34315274071E+02  0.00000000000E+00 0. -1.
         21   -1    0    0  501  502 -0.00000000000E+00 -0.00000000000E+00 -0.36757647545E+02  0.36757647545E+02  0.00000000000E+00 0.  1.
         21    1    1    2  503  502  0.34454702586E+02 -0.39618208789E+01 -0.88759493376E+01  0.35799511611E+02  0.00000000000E+00 0.  1.
         21    1    1    2  504  503 -0.34454702586E+02  0.39618208789E+01  0.64335758641E+01  0.35273410005E+02  0.00000000000E+00 0. -1.
</event>
<event>
 4    1  0.3048956E+006  0.2048149E+02  0.7546771E-02  0.1526798E+00
         21   -1    0    0  504  501  0.00000000000E+00  0.00000000000E+00  0.17086932785E+02  0.17086932785E+02  0.00000000000E+00 0.  1.
         21   -1    0    0  503  502 -0.00000000000E+00 -0.00000000000E+00 -0.73310271496E+02  0.73310271496E+02  0.00000000000E+00 0. -1.
         21    1    1    2  503  501  0.62461092748E+00 -0.20471966516E+02  0.87498923583E+01  0.22272228630E+02  0.00000000000E+00 0.  1.
         21    1    1    2  504  502 -0.62461092748E+00  0.20471966516E+02 -0.64973231069E+02  0.68124975651E+02  0.00000000000E+00 0. -1.
</event>
<event>
 4    1  0.3048956E+006  0.2439043E+02  0.7546771E-02  0.1475739E+00
         21   -1    0    0  504  501  0.00000000000E+00  0.00000000000E+00  0.67823484077E+02  0.67823484077E+02  0.00000000000E+00 0. -1.
         21   -1    0    0  503  502 -0.00000000000E+00 -0.00000000000E+00 -0.11626213323E+03  0.11626213323E+03  0.00000000000E+00 0.  1.
         21    1    1    2  503  501  0.17386226050E+02 -0.17105915070E+02  0.64283399899E+02  0.68754990285E+02  0.00000000000E+00 0. -1.
         21    1    1    2  504  502 -0.17386226050E+02  0.17105915070E+02 -0.11272204905E+03  0.11533062702E+03  0.00000000000E+00 0.  1.
</event>
<event>
 4    1  0.3048956E+006  0.4033262E+02  0.7546771E-02  0.1346548E+00
         21   -1    0    0  503  501  0.00000000000E+00  0.00000000000E+00  0.16366410422E+03  0.16366410422E+03  0.00000000000E+00 0. -1.
         21   -1    0    0  504  502 -0.00000000000E+00 -0.00000000000E+00 -0.31748575726E+03  0.31748575726E+03  0.00000000000E+00 0. -1.
         21    1    1    2  503  502 -0.48844475789E+01 -0.40035767541E+02 -0.31369002727E+03  0.31627227783E+03  0.00000000000E+00 0. -1.
         21    1    1    2  504  501  0.48844475789E+01  0.40035767541E+02  0.15986837424E+03  0.16487758365E+03  0.00000000000E+00 0. -1.
</event>
<event>
 4    1  0.3048956E+006  0.2005198E+02  0.7546771E-02  0.1533243E+00
         21   -1    0    0  504  501  0.00000000000E+00  0.00000000000E+00  0.66543779923E+02  0.66543779923E+02  0.00000000000E+00 0. -1.
         21   -1    0    0  503  502 -0.00000000000E+00 -0.00000000000E+00 -0.15323575864E+03  0.15323575864E+03  0.00000000000E+00 0.  1.
         21    1    1    2  503  501  0.16168989733E+02 -0.11859411141E+02  0.64355412984E+02  0.67406980662E+02  0.00000000000E+00 0. -1.
         21    1    1    2  504  502 -0.16168989733E+02  0.11859411141E+02 -0.15104739170E+03  0.15237255790E+03  0.00000000000E+00 0.  1.
</event>
<event>
 4    1  0.3048956E+006  0.2245365E+02  0.7546771E-02  0.1499475E+00
         21   -1    0    0  503  501  0.00000000000E+00  0.00000000000E+00  0.38114621425E+00  0.38114621425E+00  0.00000000000E+00 0.  1.
         21   -1    0    0  504  502 -0.00000000000E+00 -0.00000000000E+00 -0.18786654264E+04  0.18786654264E+04  0.00000000000E+00 0. -1.
         21    1    1    2  503  502  0.95936208180E+01 -0.20300953720E+02 -0.14502139603E+04  0.14503877746E+04  0.00000000000E+00 0. -1.
         21    1    1    2  504  501 -0.95936208180E+01  0.20300953720E+02 -0.42807031994E+03  0.42865879799E+03  0.00000000000E+00 0.  1.
</event>
<event>
 4    1  0.3048956E+006  0.2162758E+02  0.7546771E-02  0.1510490E+00
         21   -1    0    0  504  501  0.00000000000E+00  0.00000000000E+00  0.29242350498E+02  0.29242350498E+02  0.00000000000E+00 0. -1.
         21   -1    0    0  501  502 -0.00000000000E+00 -0.00000000000E+00 -0.34125312287E+02  0.34125312287E+02  0.00000000000E+00 0.  1.
         21    1    1    2  503  502  0.12340190869E+02 -0.17761528970E+02 -0.25535179241E+02  0.33463377009E+02  0.00000000000E+00 0.  1.
         21    1    1    2  504  503 -0.12340190869E+02  0.17761528970E+02  0.20652217452E+02  0.29904285775E+02  0.00000000000E+00 0. -1.
</event>
<event>
 4    1  0.3048956E+006  0.2182053E+02  0.7546771E-02  0.1507865E+00
         21   -1    0    0  504  501  0.00000000000E+00  0.00000000000E+00  0.31403099726E+02  0.31403099726E+02  0.00000000000E+00 0. -1.
         21   -1    0    0  501  502 -0.00000000000E+00 -0.00000000000E+00 -0.56300435740E+02  0.56300435740E+02  0.00000000000E+00 0. -1.
         21    1    1    2  503  502  0.13764885675E+02 -0.16931132772E+02 -0.49933438468E+02  0.54492968462E+02  0.00000000000E+00 0. -1.
         21    1    1    2  504  503 -0.13764885675E+02  0.16931132772E+02  0.25036102454E+02  0.33210567003E+02  0.00000000000E+00 0. -1.
</event>
<event>
 4    1  0.3048956E+006  0.4127613E+02  0.7546771E-02  0.1341166E+00
         21   -1    0    0  503  501  0.00000000000E+00  0.00000000000E+00  0.94335180580E+03  0.94335180580E+03  0.00000000000E+00 0.  1.
         21   -1    0    0  504  502 -0.00000000000E+00 -0.00000000000E+00 -0.43729889348E+01  0.43729889348E+01  0.00000000000E+00 0.  1.
         21    1    1    2  503  502  0.24626617418E+02 -0.33124743858E+02  0.83254469294E+03  0.83356726464E+03  0.00000000000E+00 0.  1.
         21    1    1    2  504  501 -0.24626617418E+02  0.33124743858E+02  0.10643412393E+03  0.11415753010E+03  0.00000000000E+00 0.  1.
</event>
<event>
 4    1  0.3048956E+006  0.2289886E+02  0.7546771E-02  0.1493772E+00
         21   -1    0    0  503  501  0.00000000000E+00  0.00000000000E+00  0.25122911155E+02  0.25122911155E+02  0.00000000000E+00 0.  1.
         21   -1    0    0  504  502 -0.00000000000E+00 -0.00000000000E+00 -0.22679992811E+02  0.22679992811E+02  0.00000000000E+00 0. -1.
         21    1    1    2  503  502 -0.85979540965E+01 -0.21223407287E+02  0.79704271095E+01  0.24246351062E+02  0.00000000000E+00 0.  1.
         21    1    1    2  504  501  0.85979540965E+01  0.21223407287E+02 -0.55275087651E+01  0.23556552903E+02  0.00000000000E+00 0. -1.
</event>
<event>
 4    1  0.3048956E+006  0.2011225E+02  0.7546771E-02  0.1532327E+00
         21   -1    0    0  503  501  0.00000000000E+00  0.00000000000E+00  0.14770305685E+01  0.14770305685E+01  0.00000000000E+00 0. -1.
         21   -1    0    0  501  502 -0.00000000000E+00 -0.00000000000E+00 -0.55072057957E+03  0.55072057957E+03  0.00000000000E+00 0. -1.
         21    1    1    2  503  504 -0.44737721938E+01 -0.19608362341E+02 -0.78860003368E+02  0.81384289900E+02  0.00000000000E+00 0. -1.
         21    1    1    2  504  502  0.44737721938E+01  0.19608362341E+02 -0.47038354564E+03  0.47081332024E+03  0.00000000000E+00 0. -1.
</event>
<event>
 4    1  0.3048956E+006  0.2032744E+02  0.7546771E-02  0.1529088E+00
         21   -1    0    0  503  501  0.00000000000E+00  0.00000000000E+00  0.81370614227E+02  0.81370614227E+02  0.00000000000E+00 0.  1.
         21   -1    0    0  504  502 -0.00000000000E+00 -0.00000000000E+00 -0.50936520847E+01  0.50936520847E+01  0.00000000000E+00 0.  1.
         21    1    1    2  503  502 -0.12847588683E+02 -0.15752595103E+02  0.35746505410E+02  0.41121982400E+02  0.00000000000E+00 0.  1.
         21    1    1    2  504  501  0.12847588683E+02  0.15752595103E+02  0.40530456733E+02  0.45342283912E+02  0.00000000000E+00 0.  1.
</event>
<event>
 4    1  0.3048956E+006  0.2491894E+02  0.7546771E-02  0.1469712E+00
         21   -1    0    0  503  501  0.00000000000E+00  0.00000000000E+00  0.17149737745E+02  0.17149737745E+02  0.00000000000E+00 0.  1.
         21   -1    0    0  504  502 -0.00000000000E+00 -0.00000000000E+00 -0.36858793591E+02  0.36858793591E+02  0.00000000000E+00 0. -1.
         21    1    1    2  503  502  0.22966512070E+02  0.96691804358E+01 -0.13443423451E+02  0.28313942873E+02  0.00000000000E+00 0. -1.
         21    1    1    2  504  501 -0.22966512070E+02 -0.96691804358E+01 -0.62656323950E+01  0.25694588463E+02  0.00000000000E+00 0.  1.
</event>
<event>
 4    1  0.3048956E+006  0.2157373E+02  0.7546771E-02  0.1511229E+00
         21   -1    0    0  503  501  0.00000000000E+00  0.00000000000E+00  0.11233086104E+02  0.11233086104E+02  0.00000000000E+00 0. -1.
         21   -1    0    0  504  502 -0.00000000000E+00 -0.00000000000E+00 -0.39986598173E+03  0.39986598173E+03  0.00000000000E+00 0. -1.
         21    1    1    2  503  502 -0.93587182254E+01  0.19438118038E+02  0.29256451743E+00  0.21575718613E+02  0.00000000000E+00 0. -1.
         21    1    1    2  504  501  0.93587182254E+01 -0.19438118038E+02 -0.38892546015E+03  0.38952334922E+03  0.00000000000E+00 0. -1.
</event>
<event>
 4    1  0.3048956E+006  0.3312185E+02  0.7546771E-02  0.1394271E+00
         21   -1    0    0  502  501  0.00000000000E+00  0.00000000000E+00  0.32432217368E+02  0.32432217368E+02  0.00000000000E+00 0. -1.
         21   -1    0    0  503  502 -0.00000000000E+00 -0.00000000000E+00 -0.61074091588E+02  0.61074091588E+02  0.00000000000E+00 0. -1.
         21    1    1    2  503  504  0.13947304631E+02 -0.30042126060E+02 -0.45549310229E+02  0.56318702995E+02  0.00000000000E+00 0. -1.
         21    1    1    2  504  501 -0.13947304631E+02  0.30042126060E+02  0.16907436010E+02  0.37187605961E+02  0.00000000000E+00 0. -1.
</event>
<event>
 4    1  0.3048956E+006  0.2153063E+02  0.7546771E-02  0.1511822E+00
         21   -1    0    0  503  501  0.00000000000E+00  0.00000000000E+00  0.10039430974E+03  0.10039430974E+03  0.00000000000E+00 0.  1.
         21   -1    0    0  501  502 -0.00000000000E+00 -0.00000000000E+00 -0.91606933245E+02  0.91606933245E+02  0.00000000000E+00 0.  1.
         21    1    1    2  503  504 -0.11791282908E+02  0.18014821120E+02  0.97943558084E+02  0.10028214548E+03  0.00000000000E+00 0.  1.
         21    1    1    2  504  502  0.11791282908E+02 -0.18014821120E+02 -0.89156181585E+02  0.91719097506E+02  0.00000000000E+00 0.  1.
</event>
<event>
 4    1  0.3048956E+006  0.2797677E+02  0.7546771E-02  0.1438035E+00
         21   -1    0    0  504  501  0.00000000000E+00  0.00000000000E+00  0.74238572104E+03  0.74238572104E+03  0.00000000000E+00 0. -1.
         21   -1    0    0  503  502 -0.00000000000E+00 -0.00000000000E+00 -0.13903405706E+01  0.13903405706E+01  0.00000000000E+00 0. -1.
         21    1    1    2  503  501  0.22863023109E+02  0.16123958395E+02  0.18766864070E+03  0.18974250595E+03  0.00000000000E+00 0. -1.
         21    1    1    2  504  502 -0.22863023109E+02 -0.16123958395E+02  0.55332673977E+03  0.55403355566E+03  0.00000000000E+00 0. -1.
</event>
<event>
 4    1  0.3048956E+006  0.2345617E+02  0.7546771E-02  0.1486848E+00
         21   -1    0    0  504  501  0.00000000000E+00  0.00000000000E+00  0.45572153883E+01  0.45572153883E+01  0.00000000000E+00 0.  1.
         21   -1    0    0  503  502 -0.00000000000E+00 -0.00000000000E+00 -0.27664337413E+03  0.27664337413E+03  0.00000000000E+00 0.  1.
         21    1    1    2  503  501  0.34321808682E+01  0.23203709714E+02 -0.24159544335E+03  0.24273143649E+03  0.00000000000E+00 0.  1.
         21    1    1    2  504  502 -0.34321808682E+01 -0.23203709714E+02 -0.30490715386E+02  0.38469153029E+02  0.00000000000E+00 0.  1.
</event>
<event>
 4    1  0.3048956E+006  0.3431448E+02  0.7546771E-02  0.1385448E+00
         21   -1    0    0  502  501  0.00000000000E+00  0.00000000000E+00  0.12658527037E+03  0.12658527037E+03  0.00000000000E+00 0.  1.
         21   -1    0    0  504  502 -0.00000000000E+00 -0.00000000000E+00 -0.19522373163E+02  0.19522373163E+02  0.00000000000E+00 0.  1.
         21    1    1    2  503  501  0.22316302229E+02 -0.26066576420E+02  0.10638961565E+03  0.11178655585E+03  0.00000000000E+00 0.  1.
         21    1    1    2  504  503 -0.22316302229E+02  0.26066576420E+02  0.67328155623E+00  0.34321087679E+02  0.00000000000E+00 0.  1.
</event>
<event>
 4    1  0.3048956E+006  0.2106206E+02  0.7546771E-02  0.1518381E+00
         21   -1    0    0  504  501  0.00000000000E+00  0.00000000000E+00  0.78529903190E+02  0.78529903190E+02  0.00000000000E+00 0. -1.
         21   -1    0    0  503  502 -0.00000000000E+00 -0.00000000000E+00 -0.27819551194E+02  0.27819551194E+02  0.00000000000E+00 0. -1.
         21    1    1    2  503  501 -0.43723187765E+01 -0.20603232897E+02 -0.22114808005E+02  0.30539730031E+02  0.00000000000E+00 0. -1.
         21    1    1    2  504  502  0.43723187765E+01  0.20603232897E+02  0.72825160001E+02  0.75809724353E+02  0.00000000000E+00 0. -1.
</event>
<event>
 4    1  0.3048956E+006  0.2030942E+02  0.7546771E-02  0.1529357E+00
         21   -1    0    0  504  501  0.00000000000E+00  0.00000000000E+00  0.24995726751E+01  0.24995726751E+01  0.00000000000E+00 0. -1.
         21   -1    0    0  503  502 -0.00000000000E+00 -0.00000000000E+00 -0.17669253408E+03  0.17669253408E+03  0.00000000000E+00 0. -1.
         21    1    1    2  503  501  0.18481796348E+02  0.84199543740E+01 -0.11012758997E+03  0.11198463511E+03  0.00000000000E+00 0. -1.
         21    1    1    2  504  502 -0.18481796348E+02 -0.84199543740E+01 -0.64065371431E+02  0.67207471642E+02  0.00000000000E+00 0. -1.
</event>
<event>
 4    1  0.3048956E+006  0.2587508E+02  0.7546771E-02  0.1459247E+00
         21   -1    0    0  503  501  0.00000000000E+00  0.00000000000E+00  0.29508996727E+02  0.29508996727E+02  0.00000000000E+00 0. -1.
         21   -1    0    0  504  502 -0.00000000000E+00 -0.00000000000E+00 -0.45477873568E+02  0.45477873568E+02  0.00000000000E+00 0. -1.
         21    1    1    2  503  502  0.20172769286E+02  0.16204297856E+02  0.18556711241E+02  0.31841347675E+02  0.00000000000E+00 0. -1.
         21    1    1    2  504  501 -0.20172769286E+02 -0.16204297856E+02 -0.34525588082E+02  0.43145522619E+02  0.00000000000E+00 0. -1.
</event>
<event>
 4    1  0.3048956E+006  0.2028873E+02  0.7546771E-02  0.1529667E+00
         21   -1    0    0  504  501  0.00000000000E+00  0.00000000000E+00  0.16849504591E+02  0.16849504591E+02  0.00000000000E+00 0. -1.
         21   -1    0    0  503  502 -0.00000000000E+00 -0.00000000000E+00 -0.13376204810E+03  0.13376204810E+03  0.00000000000E+00 0. -1.
         21    1    1    2  503  501 -0.17798509017E+01  0.20210508970E+02 -0.12653880046E+03  0.12815498650E+03  0.00000000000E+00 0. -1.
         21    1    1    2  504  502  0.17798509017E+01 -0.20210508970E+02  0.96262569561E+01  0.22456566190E+02  0.00000000000E+00 0. -1.
</event>
<event>
 4    1  0.3048956E+006  0.2204595E+02  0.7546771E-02  0.1504839E+00
         21   -1    0    0  504  501  0.00000000000E+00  0.00000000000E+00  0.24424784949E+02  0.24424784949E+02  0.00000000000E+00 0.  1.
         21   -1    0    0  503  502 -0.00000000000E+00 -0.00000000000E+00 -0.70063330275E+02  0.70063330275E+02  0.00000000000E+00 0.  1.
         21    1    1    2  503  501  0.13825789042E+02  0.17171824066E+02 -0.62795348852E+02  0.66552834814E+02  0.00000000000E+00 0.  1.
         21    1    1    2  504  502 -0.13825789042E+02 -0.17171824066E+02  0.17156803525E+02  0.27935280410E+02  0.00000000000E+00 0.  1.
</event>
<event>
 4    1  0.3048956E+006  0.2811367E+02  0.7546771E-02  0.1436731E+00
         21   -1    0    0  503  501  0.00000000000E+00  0.00000000000E+00  0.22179661819E+03  0.22179661819E+03  0.00000000000E+00 0.  1.
         21   -1    0    0  504  502 -0.00000000000E+00 -0.00000000000E+00 -0.35852640176E+01  0.35852640176E+01  0.00000000000E+00 0.  1.
         21    1    1    2  503  502  0.20435113507E+02  0.19307636047E+02  0.11787990194E+03  0.12118601386E+03  0.00000000000E+00 0.  1.
         21    1    1    2  504  501 -0.20435113507E+02 -0.19307636047E+02  0.10033145224E+03  0.10419586835E+03  0.00000000000E+00 0.  1.
</event>
<event>
 4    1  0.3048956E+006  0.3230746E+02  0.7546771E-02  0.1400550E+00
         21   -1    0    0  504  501  0.00000000000E+00  0.00000000000E+00  0.66619085801E+02  0.66619085801E+02  0.00000000000E+00 0.  1.
         21   -1    0    0  501  502 -0.00000000000E+00 -0.00000000000E+00 -0.32802510567E+03  0.32802510567E+03  0.00000000000E+00 0. -1.
         21    1    1    2  503  502 -0.32623490507E+01  0.32142324250E+02 -0.32325501190E+03  0.32486547161E+03  0.00000000000E+00 0. -1.
         21    1    1    2  504  503  0.32623490507E+01 -0.32142324250E+02  0.61848992031E+02  0.69778719856E+02  0.00000000000E+00 0.  1.
</event>
<event>
 4    1  0.3048956E+006  0.2121354E+02  0.7546771E-02  0.1516238E+00
         21   -1    0    0  503  501  0.00000000000E+00  0.00000000000E+00  0.10554304425E+02  0.10554304425E+02  0.00000000000E+00 0. -1.
         21   -1    0    0  504  502 -0.00000000000E+00 -0.00000000000E+00 -0.71779908464E+03  0.71779908464E+03  0.00000000000E+00 0. -1.
         21    1    1    2  503  502  0.84217595351E+01 -0.19470186794E+02 -0.42750340336E+00  0.21217845475E+02  0.00000000000E+00 0. -1.
         21    1    1    2  504  501 -0.84217595351E+01  0.19470186794E+02 -0.70681727681E+03  0.70713554359E+03  0.00000000000E+00 0. -1.
</event>
<event>
 4    1  0.3048956E+006  0.2388449E+02  0.7546771E-02  0.1481681E+00
         21   -1    0    0  503  501  0.00000000000E+00  0.00000000000E+00  0.52629667138E+02  0.52629667138E+02  0.00000000000E+00 0.  1.
         21   -1    0    0  504  502 -0.00000000000E+00 -0.00000000000E+00 -0.39577975995E+02  0.39577975995E+02  0.00000000000E+00 0.  1.
         21    1    1    2  503  502  0.22529708834E+02  0.79297570882E+01 -0.32760669156E+02  0.40542943543E+02  0.00000000000E+00 0.  1.
         21    1    1    2  504  501 -0.22529708834E+02 -0.79297570882E+01  0.45812360299E+02  0.51664699590E+02  0.00000000000E+00 0.  1.
</event>
<event>
 4    1  0.3048956E+006  0.3090814E+02  0.7546771E-02  0.1411865E+00
         21   -1    0    0  502  501  0.00000000000E+00  0.00000000000E+00  0.68423634623E+03  0.68423634623E+03  0.00000000000E+00 0.  1.
         21   -1    0    0  503  502 -0.00000000000E+00 -0.00000000000E+00 -0.23334688443E+01  0.23334688443E+01  0.00000000000E+00 0.  1.
         21    1    1    2  503  504 -0.28854489654E+02 -0.11078438953E+02  0.12338510663E+03  0.12719747608E+03  0.00000000000E+00 0.  1.
         21    1    1    2  504  501  0.28854489654E+02  0.11078438953E+02  0.55851777075E+03  0.55937233899E+03  0.00000000000E+00 0.  1.
</event>
<event>
 4    1  0.3048956E+006  0.4115728E+02  0.7546771E-02  0.1341834E+00
         21   -1    0    0  504  501  0.00000000000E+00  0.00000000000E+00  0.11793771328E+02  0.11793771328E+02  0.00000000000E+00 0. -1.
         21   -1    0    0  503  502 -0.00000000000E+00 -0.00000000000E+00 -0.16139816553E+03  0.16139816553E+03  0.00000000000E+00 0. -1.
         21    1    1    2  503  501 -0.37493497525E+02  0.16975250297E+02 -0.46068717870E+02  0.61775790125E+02  0.00000000000E+00 0. -1.
         21    1    1    2  504  502  0.37493497525E+02 -0.16975250297E+02 -0.10353567633E+03  0.11141614673E+03  0.00000000000E+00 0. -1.
</event>
<event>
 4    1  0.3048956E+006  0.2369130E+02  0.7546771E-02  0.1483995E+00
         21   -1    0    0  503  501  0.00000000000E+00  0.00000000000E+00  0.24628166753E+02  0.24628166753E+02  0.00000000000E+00 0.  1.
         21   -1    0    0  504  502 -0.00000000000E+00 -0.00000000000E+00 -0.34100345313E+03  0.34100345313E+03  0.00000000000E+00 0.  1.
         21    1    1    2  503  502 -0.12078277158E+02  0.20381185352E+02 -0.33478881746E+03  0.33562602669E+03  0.00000000000E+00 0.  1.
         21    1    1    2  504  501  0.12078277158E+02 -0.20381185352E+02  0.18413531088E+02  0.30005593188E+02  0.00000000000E+00 0.  1.
</event>
<event>
 4    1  0.3048956E+006  0.2434066E+02  0.7546771E-02  0.1476316E+00
         21   -1    0    0  503  501  0.00000000000E+00  0.00000000000E+00  0.54987175581E+02  0.54987175581E+02  0.00000000000E+00 0.  1.
         21   -1    0    0  504  502 -0.00000000000E+00 -0.00000000000E+00 -0.14286619563E+03  0.14286619563E+03  0.00000000000E+00 0. -1.
         21    1    1    2  503  502  0.22714782605E+02 -0.87467886897E+01 -0.13906266083E+03  0.14117680865E+03  0.00000000000E+00 0. -1.
         21    1    1    2  504  501 -0.22714782605E+02  0.87467886897E+01  0.51183640780E+02  0.56676562569E+02  0.00000000000E+00 0.  1.
</event>
<event>
 4    1  0.3048956E+006  0.3124164E+02  0.7546771E-02  0.1409105E+00
         21   -1    0    0  503  501  0.00000000000E+00  0.00000000000E+00  0.26690279694E+01  0.26690279694E+01  0.00000000000E+00 0. -1.
         21   -1    0    0  504  502 -0.00000000000E+00 -0.00000000000E+00 -0.66847662577E+03  0.66847662577E+03  0.00000000000E+00 0. -1.
         21    1    1    2  503  502 -0.24573323295E+02 -0.19292268110E+02 -0.55874918079E+03  0.55962191420E+03  0.00000000000E+00 0. -1.
         21    1    1    2  504  501  0.24573323295E+02  0.19292268110E+02 -0.10705841701E+03  0.11152373953E+03  0.00000000000E+00 0. -1.
</event>
<event>
 4    1  0.3048956E+006  0.2429108E+02  0.7546771E-02  0.1476893E+00
         21   -1    0    0  502  501  0.00000000000E+00  0.00000000000E+00  0.63833425539E+02  0.63833425539E+02  0.00000000000E+00 0. -1.
         21   -1    0    0  503  502 -0.00000000000E+00 -0.00000000000E+00 -0.21857676597E+02  0.21857676597E+02  0.00000000000E+00 0.  1.
         21    1    1    2  503  504 -0.55368120761E+01  0.23651647830E+02 -0.11560539207E+02  0.26901724848E+02  0.00000000000E+00 0.  1.
         21    1    1    2  504  501  0.55368120761E+01 -0.23651647830E+02  0.53536288149E+02  0.58789377288E+02  0.00000000000E+00 0. -1.
</event>
<event>
 4    1  0.3048956E+006  0.2399541E+02  0.7546771E-02  0.1480363E+00
         21   -1    0    0  502  501  0.00000000000E+00  0.00000000000E+00  0.12228679387E+03  0.12228679387E+03  0.00000000000E+00 0.  1.
         21   -1    0    0  503  502 -0.00000000000E+00 -0.00000000000E+00 -0.54202363540E+02  0.54202363540E+02  0.00000000000E+00 0. -1.
         21    1    1    2  503  504  0.23922657383E+02 -0.18670959650E+01 -0.50282499304E+02  0.55714534188E+02  0.00000000000E+00 0. -1.
         21    1    1    2  504  501 -0.23922657383E+02  0.18670959650E+01  0.11836692964E+03  0.12077462323E+03  0.00000000000E+00 0.  1.
</event>
<event>
 4    1  0.3048956E+006  0.5526193E+02  0.7546771E-02  0.1276840E+00
         21   -1    0    0  502  501  0.00000000000E+00  0.00000000000E+00  0.10848510598E+02  0.10848510598E+02  0.00000000000E+00 0. -1.
         21   -1    0    0  503  502 -0.00000000000E+00 -0.00000000000E+00 -0.29037346960E+03  0.29037346960E+03  0.00000000000E+00 0.  1.
         21    1    1    2  503  504 -0.16448873128E+02 -0.52757134221E+02 -0.16608750148E+03  0.17503982057E+03  0.00000000000E+00 0.  1.
         21    1    1    2  504  501  0.16448873128E+02  0.52757134221E+02 -0.11343745753E+03  0.12618215963E+03  0.00000000000E+00 0. -1.
</event>
<event>
 4    1  0.3048956E+006  0.2202904E+02  0.7546771E-02  0.1505064E+00
         21   -1    0    0  502  501  0.00000000000E+00  0.00000000000E+00  0.39953423814E+01  0.39953423814E+01  0.00000000000E+00 0. -1.
         21   -1    0    0  504  502 -0.00000000000E+00 -0.00000000000E+00 -0.13816753870E+03  0.13816753870E+03  0.00000000000E+00 0.  1.
         21    1    1    2  503  501 -0.17252799109E+02  0.13697427929E+02 -0.42369119443E+02  0.47753752642E+02  0.00000000000E+00 0. -1.
         21    1    1    2  504  503  0.17252799109E+02 -0.13697427929E+02 -0.91803076878E+02  0.94409128443E+02  0.00000000000E+00 0.  1.
</event>
<event>
 4    1  0.3048956E+006  0.2637680E+02  0.7546771E-02  0.1453971E+00
         21   -1    0    0  503  501  0.00000000000E+00  0.00000000000E+00  0.10245666135E+03  0.10245666135E+03  0.00000000000E+00 0.  1.
         21   -1    0    0  501  502 -0.00000000000E+00 -0.00000000000E+00 -0.30613033141E+02  0.30613033141E+02  0.00000000000E+00 0. -1.
         21    1    1    2  503  504 -0.72331655601E+01  0.25365662730E+02  0.94615263761E+02  0.98223132033E+02  0.00000000000E+00 0.  1.
         21    1    1    2  504  502  0.72331655601E+01 -0.25365662730E+02 -0.22771635550E+02  0.34846562461E+02  0.00000000000E+00 0. -1.
</event>
<event>
 4    1  0.3048956E+006  0.6150301E+02  0.7546771E-02  0.1254810E+00
         21   -1    0    0  503  501  0.00000000000E+00  0.00000000000E+00  0.17086718526E+02  0.17086718526E+02  0.00000000000E+00 0.  1.
         21   -1    0    0  504  502 -0.00000000000E+00 -0.00000000000E+00 -0.22240256012E+03  0.22240256012E+03  0.00000000000E+00 0.  1.
         21    1    1    2  503  502 -0.59729089148E+02 -0.14664773452E+02 -0.11078628806E+03  0.12671314570E+03  0.00000000000E+00 0.  1.
         21    1    1    2  504  501  0.59729089148E+02  0.14664773452E+02 -0.94529553527E+02  0.11277613294E+03  0.00000000000E+00 0.  1.
</event>
<event>
 4    1  0.3048956E+006  0.2136429E+02  0.7546771E-02  0.1514127E+00
         21   -1    0    0  504  501  0.00000000000E+00  0.00000000000E+00  0.10651866595E+03  0.10651866595E+03  0.00000000000E+00 0. -1.
         21   -1    0    0  501  502 -0.00000000000E+00 -0.00000000000E+00 -0.63565926480E+01  0.63565926480E+01  0.00000000000E+00 0. -1.
         21    1    1    2  503  502 -0.17468557917E+02 -0.12299698526E+02  0.17862326753E+02  0.27847725519E+02  0.00000000000E+00 0. -1.
         21    1    1    2  504  503  0.17468557917E+02  0.12299698526E+02  0.82299746545E+02  0.85027533075E+02  0.00000000000E+00 0. -1.
</event>
<event>
 4    1  0.3048956E+006  0.4627990E+02  0.7546771E-02  0.1315161E+00
         21   -1    0    0  504  501  0.00000000000E+00  0.00000000000E+00  0.64359357177E+02  0.64359357177E+02  0.00000000000E+00 0.  1.
         21   -1    0    0  503  502 -0.00000000000E+00 -0.00000000000E+00 -0.38973734103E+02  0.38973734103E+02  0.00000000000E+00 0.  1.
         21    1    1    2  503  501 -0.21860470964E+01 -0.46228245846E+02 -0.70564822478E+01  0.46814778197E+02  0.00000000000E+00 0.  1.
         21    1    1    2  504  502  0.21860470964E+01  0.46228245846E+02  0.32442105322E+02  0.56518313082E+02  0.00000000000E+00 0.  1.
</event>
<event>
 4    1  0.3048956E+006  0.2194840E+02  0.7546771E-02  0.1506143E+00
         21   -1    0    0  504  501  0.00000000000E+00  0.00000000000E+00  0.16816940653E+03  0.16816940653E+03  0.00000000000E+00 0. -1.
         21   -1    0    0  503  502 -0.00000000000E+00 -0.00000000000E+00 -0.16508250776E+02  0.16508250776E+02  0.00000000000E+00 0. -1.
         21    1    1    2  503  501 -0.20890615887E+02 -0.67316011089E+01  0.15977651433E+03  0.16127698787E+03  0.00000000000E+00 0. -1.
         21    1    1    2  504  502  0.20890615887E+02  0.67316011089E+01 -0.81153585685E+01  0.23400669442E+02  0.00000000000E+00 0. -1.
</event>
<event>
 4    1  0.3048956E+006  0.2102795E+02  0.7546771E-02  0.1518866E+00
         21   -1    0    0  504  501  0.00000000000E+00  0.00000000000E+00  0.33513798355E+02  0.33513798355E+02  0.00000000000E+00 0. -1.
         21   -1    0    0  503  502 -0.00000000000E+00 -0.00000000000E+00 -0.48702583147E+02  0.48702583147E+02  0.00000000000E+00 0.  1.
         21    1    1    2  503  501 -0.11737370542E+02 -0.17447316823E+02 -0.42695449070E+02  0.47592815665E+02  0.00000000000E+00 0.  1.
         21    1    1    2  504  502  0.11737370542E+02  0.17447316823E+02  0.27506664279E+02  0.34623565838E+02  0.00000000000E+00 0. -1.
</event>
<event>
 4    1  0.3048956E+006  0.2778767E+02  0.7546771E-02  0.1439852E+00
         21   -1    0    0  503  501  0.00000000000E+00  0.00000000000E+00  0.12153567378E+02  0.12153567378E+02  0.00000000000E+00 0.  1.
         21   -1    0    0  504  502 -0.00000000000E+00 -0.00000000000E+00 -0.64258255272E+02  0.64258255272E+02  0.00000000000E+00 0.  1.
         21    1    1    2  503  502  0.14586500206E+02 -0.23651397544E+02 -0.21993874095E+02  0.35438469094E+02  0.00000000000E+00 0.  1.
         21    1    1    2  504  501 -0.14586500206E+02  0.23651397544E+02 -0.30110813798E+02  0.40973353556E+02  0.00000000000E+00 0.  1.
</event>
<event>
 4    1  0.3048956E+006  0.2300791E+02  0.7546771E-02  0.1492399E+00
         21   -1    0    0  502  501  0.00000000000E+00  0.00000000000E+00  0.47821511312E+02  0.47821511312E+02  0.00000000000E+00 0. -1.
         21   -1    0    0  503  502 -0.00000000000E+00 -0.00000000000E+00 -0.17565436186E+02  0.17565436186E+02  0.00000000000E+00 0. -1.
         21    1    1    2  503  504 -0.21101543591E+02 -0.91700016334E+01 -0.47534914087E+01  0.23493823708E+02  0.00000000000E+00 0. -1.
         21    1    1    2  504  501  0.21101543591E+02  0.91700016334E+01  0.35009566535E+02  0.41893123789E+02  0.00000000000E+00 0. -1.
</event>
<event>
 4    1  0.3048956E+006  0.2759732E+02  0.7546771E-02  0.1441698E+00
         21   -1    0    0  504  501  0.00000000000E+00  0.00000000000E+00  0.11737365180E+03  0.11737365180E+03  0.00000000000E+00 0.  1.
         21   -1    0    0  501  502 -0.00000000000E+00 -0.00000000000E+00 -0.38159188397E+02  0.38159188397E+02  0.00000000000E+00 0.  1.
         21    1    1    2  503  502  0.13811784928E+02 -0.23892396442E+02 -0.31239425307E+02  0.41683494385E+02  0.00000000000E+00 0.  1.
         21    1    1    2  504  503 -0.13811784928E+02  0.23892396442E+02  0.11045388871E+03  0.11384934581E+03  0.00000000000E+00 0.  1.
</event>
<event>
 4    1  0.3048956E+006  0.2148266E+02  0.7546771E-02  0.1512484E+00
         21   -1    0    0  503  501  0.00000000000E+00  0.00000000000E+00  0.18194581015E+02  0.18194581015E+02  0.00000000000E+00 0.  1.
         21   -1    0    0  504  502 -0.00000000000E+00 -0.00000000000E+00 -0.25515840510E+02  0.25515840510E+02  0.00000000000E+00 0.  1.
         21    1    1    2  503  502  0.90797755833E+01 -0.19469527642E+02 -0.53412349985E+01  0.22136703064E+02  0.00000000000E+00 0.  1.
         21    1    1    2  504  501 -0.90797755833E+01  0.19469527642E+02 -0.19800244967E+01  0.21573718461E+02  0.00000000000E+00 0.  1.
</event>
<event>
 4    1  0.3048956E+006  0.2286783E+02  0.7546771E-02  0.1494165E+00
         21   -1    0    0  502  501  0.00000000000E+00  0.00000000000E+00  0.49446972238E+03  0.49446972238E+03  0.00000000000E+00 0.  1.
         21   -1    0    0  504  502 -0.00000000000E+00 -0.00000000000E+00 -0.26325113372E+02  0.26325113372E+02  0.00000000000E+00 0.  1.
         21    1    1    2  503  501  0.60042471258E+01  0.22065505714E+02  0.48918556757E+03  0.48971977400E+03  0.00000000000E+00 0.  1.
         21    1    1    2  504  503 -0.60042471258E+01 -0.22065505714E+02 -0.21040958560E+02  0.31075061755E+02  0.00000000000E+00 0.  1.
</event>
<event>
 4    1  0.3048956E+006  0.2069166E+02  0.7546771E-02  0.1523713E+00
         21   -1    0    0  503  501  0.00000000000E+00  0.00000000000E+00  0.62806355680E+03  0.62806355680E+03  0.00000000000E+00 0. -1.
         21   -1    0    0  501  502 -0.00000000000E+00 -0.00000000000E+00 -0.29379103563E+01  0.29379103563E+01  0.00000000000E+00 0.  1.
         21    1    1    2  503  504 -0.44936282774E+00 -0.20686780212E+02  0.58904798952E+03  0.58941129847E+03  0.00000000000E+00 0. -1.
         21    1    1    2  504  502  0.44936282774E+00  0.20686780212E+02  0.36077656920E+02  0.41590168686E+02  0.00000000000E+00 0.  1.
</event>
<event>
 4    1  0.3048956E+006  0.2300297E+02  0.7546771E-02  0.1492461E+00
         21   -1    0    0  503  501  0.00000000000E+00  0.00000000000E+00  0.44840491606E+03  0.44840491606E+03  0.00000000000E+00 0. -1.
         21   -1    0    0  504  502 -0.00000000000E+00 -0.00000000000E+00 -0.12745623878E+01  0.12745623878E+01  0.00000000000E+00 0.  1.
         21    1    1    2  503  502  0.20557592243E+02 -0.10320961879E+02  0.28479375145E+03  0.28572122378E+03  0.00000000000E+00 0. -1.
         21    1    1    2  504  501 -0.20557592243E+02  0.10320961879E+02  0.16233660223E+03  0.16395825468E+03  0.00000000000E+00 0.  1.
</event>
<event>
 4    1  0.3048956E+006  0.2275491E+02  0.7546771E-02  0.1495599E+00
         21   -1    0    0  504  501  0.00000000000E+00  0.00000000000E+00  0.33442974119E+03  0.33442974119E+03  0.00000000000E+00 0. -1.
         21   -1    0    0  501  502 -0.00000000000E+00 -0.00000000000E+00 -0.72730798815E+01  0.72730798815E+01  0.00000000000E+00 0.  1.
         21    1    1    2  503  502 -0.12396120999E+02 -0.19081982589E+02  0.11998955516E+02  0.25724712026E+02  0.00000000000E+00 0.  1.
         21    1    1    2  504  503  0.12396120999E+02  0.19081982589E+02  0.31515770579E+03  0.31597810904E+03  0.00000000000E+00 0. -1.
</event>
<event>
 4    1  0.3048956E+006  0.2445460E+02  0.7546771E-02  0.1474998E+00
         21   -1    0    0  503  501  0.00000000000E+00  0.00000000000E+00  0.34613822437E+03  0.34613822437E+03  0.00000000000E+00 0.  1.
         21   -1    0    0  504  502 -0.00000000000E+00 -0.00000000000E+00 -0.65527423604E+01  0.65527423604E+01  0.00000000000E+00 0.  1.
         21    1    1    2  503  502  0.36523360966E+01 -0.24180325387E+02  0.32111497722E+03  0.32204480479E+03  0.00000000000E+00 0.  1.
         21    1    1    2  504  501 -0.36523360966E+01  0.24180325387E+02  0.18470504791E+02  0.30646161945E+02  0.00000000000E+00 0.  1.
</event>
<event>
 4    1  0.3048956E+006  0.3824664E+02  0.7546771E-02  0.1359078E+00
         21   -1    0    0  503  501  0.00000000000E+00  0.00000000000E+00  0.14610566150E+04  0.14610566150E+04  0.00000000000E+00 0. -1.
         21   -1    0    0  504  502 -0.00000000000E+00 -0.00000000000E+00 -0.12629328230E+03  0.12629328230E+03  0.00000000000E+00 0.  1.
         21    1    1    2  503  502 -0.16706474924E+02 -0.34404934638E+02  0.14579044034E+04  0.14584059981E+04  0.00000000000E+00 0. -1.
         21    1    1    2  504  501  0.16706474924E+02  0.34404934638E+02 -0.12314107073E+03  0.12894389917E+03  0.00000000000E+00 0.  1.
</event>
<event>
 4    1  0.3048956E+006  0.2653771E+02  0.7546771E-02  0.1452308E+00
         21   -1    0    0  504  501  0.00000000000E+00  0.00000000000E+00  0.11004079061E+03  0.11004079061E+03  0.00000000000E+00 0.  1.
         21   -1    0    0  503  502 -0.00000000000E+00 -0.00000000000E+00 -0.11461843445E+02  0.11461843445E+02  0.00000000000E+00 0.  1.
         21    1    1    2  503  501  0.24817735739E+02  0.93984140079E+01  0.89662104565E+02  0.93506915189E+02  0.00000000000E+00 0.  1.
         21    1    1    2  504  502 -0.24817735739E+02 -0.93984140079E+01  0.89168426044E+01  0.27995718871E+02  0.00000000000E+00 0.  1.
</event>
<event>
 4    1  0.3048956E+006  0.2528698E+02  0.7546771E-02  0.1465618E+00
         21   -1    0    0  504  501  0.00000000000E+00  0.00000000000E+00  0.66467850792E+01  0.66467850792E+01  0.00000000000E+00 0. -1.
         21   -1    0    0  503  502 -0.00000000000E+00 -0.00000000000E+00 -0.99026494425E+02  0.99026494425E+02  0.00000000000E+00 0. -1.
         21    1    1    2  503  501 -0.23011101867E+02  0.10484295041E+02 -0.55113901598E+02  0.60638052417E+02  0.00000000000E+00 0. -1.
         21    1    1    2  504  502  0.23011101867E+02 -0.10484295041E+02 -0.37265807747E+02  0.45035227086E+02  0.00000000000E+00 0. -1.
</event>
<event>
 4    1  0.3048956E+006  0.2010945E+02  0.7546771E-02  0.1532369E+00
         21   -1    0    0  503  501  0.00000000000E+00  0.00000000000E+00  0.36261881546E+03  0.36261881546E+03  0.00000000000E+00 0.  1.
         21   -1    0    0  504  502 -0.00000000000E+00 -0.00000000000E+00 -0.19660253032E+01  0.19660253032E+01  0.00000000000E+00 0. -1.
         21    1    1    2  503  502 -0.12693601997E+02  0.15596879271E+02  0.60405214005E+02  0.63664590266E+02  0.00000000000E+00 0. -1.
         21    1    1    2  504  501  0.12693601997E+02 -0.15596879271E+02  0.30024757615E+03  0.30092025049E+03  0.00000000000E+00 0.  1.
</event>
<event>
 4    1  0.3048956E+006  0.2209859E+02  0.7546771E-02  0.1504138E+00
         21   -1    0    0  504  501  0.00000000000E+00  0.00000000000E+00  0.63229191258E+00  0.63229191258E+00  0.00000000000E+00 0. -1.
         21   -1    0    0  503  502 -0.00000000000E+00 -0.00000000000E+00 -0.87755203349E+03  0.87755203349E+03  0.00000000000E+00 0. -1.
         21    1    1    2  503  501 -0.16625099862E+02 -0.14558634290E+02 -0.59049386965E+03  0.59090723289E+03  0.00000000000E+00 0. -1.
         21    1    1    2  504  502  0.16625099862E+02  0.14558634290E+02 -0.28642587192E+03  0.28727709252E+03  0.00000000000E+00 0. -1.
</event>
<event>
 4    1  0.3048956E+006  0.3907743E+02  0.7546771E-02  0.1353978E+00
         21   -1    0    0  502  501  0.00000000000E+00  0.00000000000E+00  0.59719195216E+01  0.59719195216E+01  0.00000000000E+00 0. -1.
         21   -1    0    0  504  502 -0.00000000000E+00 -0.00000000000E+00 -0.28630347683E+03  0.28630347683E+03  0.00000000000E+00 0. -1.
         21    1    1    2  503  501 -0.22863785916E+02 -0.31690575098E+02 -0.92390402660E+02  0.10031466373E+03  0.00000000000E+00 0. -1.
         21    1    1    2  504  503  0.22863785916E+02  0.31690575098E+02 -0.18794115465E+03  0.19196073262E+03  0.00000000000E+00 0. -1.
</event>
<event>
 4    1  0.3048956E+006  0.2304835E+02  0.7546771E-02  0.1491892E+00
         21   -1    0    0  503  501  0.00000000000E+00  0.00000000000E+00  0.40078029997E+01  0.40078029997E+01  0.00000000000E+00 0. -1.
         21   -1    0    0  504  502 -0.00000000000E+00 -0.00000000000E+00 -0.13319355922E+03  0.13319355922E+03  0.00000000000E+00 0. -1.
         21    1    1    2  503  502  0.19080058581E+02 -0.12929732634E+02 -0.59817304649E+02  0.64104107177E+02  0.00000000000E+00 0. -1.
         21    1    1    2  504  501 -0.19080058581E+02  0.12929732634E+02 -0.69368451573E+02  0.73097255045E+02  0.00000000000E+00 0. -1.
</event>
<event>
 4    1  0.3048956E+006  0.3222301E+02  0.7546771E-02  0.1401213E+00
         21   -1    0    0  503  501  0.00000000000E+00  0.00000000000E+00  0.16749175980E+03  0.16749175980E+03  0.00000000000E+00 0.  1.
         21   -1    0    0  504  502 -0.00000000000E+00 -0.00000000000E+00 -0.39959461260E+02  0.39959461260E+02  0.00000000000E+00 0. -1.
         21    1    1    2  503  502 -0.19777570599E+02 -0.25439533419E+02 -0.31574654495E+02  0.45114088330E+02  0.00000000000E+00 0. -1.
         21    1    1    2  504  501  0.19777570599E+02  0.25439533419E+02  0.15910695303E+03  0.16233713273E+03  0.00000000000E+00 0.  1.
</event>
<event>
 4    1  0.3048956E+006  0.2467562E+02  0.7546771E-02  0.1472465E+00
         21   -1    0    0  502  501  0.00000000000E+00  0.00000000000E+00  0.16757738110E+03  0.16757738110E+03  0.00000000000E+00 0.  1.
         21   -1    0    0  504  502 -0.00000000000E+00 -0.00000000000E+00 -0.39866191950E+01  0.39866191950E+01  0.00000000000E+00 0.  1.
         21    1    1    2  503  501 -0.37825323109E+01  0.24383986668E+02  0.10732690165E+03  0.11012697296E+03  0.00000000000E+00 0.  1.
         21    1    1    2  504  503  0.37825323109E+01 -0.24383986668E+02  0.56263860263E+02  0.61437027339E+02  0.00000000000E+00 0.  1.
</event>
<event>
 4    1  0.3048956E+006  0.2096400E+02  0.7546771E-02  0.1519779E+00
         21   -1    0    0  504  501  0.00000000000E+00  0.00000000000E+00  0.92415216958E+02  0.92415216958E+02  0.00000000000E+00 0.  1.
         21   -1    0    0  503  502 -0.00000000000E+00 -0.00000000000E+00 -0.85889993807E+01  0.85889993807E+01  0.00000000000E+00 0.  1.
         21    1    1    2  503  501 -0.21861531000E+01  0.20849702456E+02  0.75651978624E+02  0.78502937700E+02  0.00000000000E+00 0.  1.
         21    1    1    2  504  502  0.21861531000E+01 -0.20849702456E+02  0.81742389534E+01  0.22501278638E+02  0.00000000000E+00 0.  1.
</event>
<event>
 4    1  0.3048956E+006  0.2115356E+02  0.7546771E-02  0.1517084E+00
         21   -1    0    0  503  501  0.00000000000E+00  0.00000000000E+00  0.18780474047E+02  0.18780474047E+02  0.00000000000E+00 0.  1.
         21   -1    0    0  504  502 -0.00000000000E+00 -0.00000000000E+00 -0.25752517024E+02  0.25752517024E+02  0.00000000000E+00 0. -1.
         21    1    1    2  503  502 -0.87244513814E+00  0.21135560645E+02 -0.95753775952E+01  0.23219839370E+02  0.00000000000E+00 0. -1.
         21    1    1    2  504  501  0.87244513814E+00 -0.21135560645E+02  0.26033346182E+01  0.21313151701E+02  0.00000000000E+00 0.  1.
</event>
<event>
 4    1  0.3048956E+006  0.2123474E+02  0.7546771E-02  0.1515940E+00
         21   -1    0    0  503  501  0.00000000000E+00  0.00000000000E+00  0.83747580405E+02  0.83747580405E+02  0.00000000000E+00 0.  1.
         21   -1    0    0  504  502 -0.00000000000E+00 -0.00000000000E+00 -0.13590655959E+02  0.13590655959E+02  0.00000000000E+00 0.  1.
         21    1    1    2  503  502 -0.19392564063E+02 -0.86511612899E+01  0.72897542248E+02  0.75927371865E+02  0.00000000000E+00 0.  1.
         21    1    1    2  504  501  0.19392564063E+02  0.86511612899E+01 -0.27406178016E+01  0.21410864498E+02  0.00000000000E+00 0.  1.
</event>
<event>
 4    1  0.3048956E+006  0.3725030E+02  0.7546771E-02  0.1365399E+00
         21   -1    0    0  504  501  0.00000000000E+00  0.00000000000E+00  0.59602895931E+02  0.59602895931E+02  0.00000000000E+00 0. -1.
         21   -1    0    0  503  502 -0.00000000000E+00 -0.00000000000E+00 -0.77219457680E+02  0.77219457680E+02  0.00000000000E+00 0. -1.
         21    1    1    2  503  501  0.33577781870E+02  0.16128145990E+02 -0.65984444132E+02  0.75772893543E+02  0.00000000000E+00 0. -1.
         21    1    1    2  504  502 -0.33577781870E+02 -0.16128145990E+02  0.48367882383E+02  0.61049460068E+02  0.00000000000E+00 0. -1.
</event>
<event>
 4    1  0.3048956E+006  0.2294886E+02  0.7546771E-02  0.1493141E+00
         21   -1    0    0  503  501  0.00000000000E+00  0.00000000000E+00  0.36981757481E+02  0.36981757481E+02  0.00000000000E+00 0. -1.
         21   -1    0    0  501  502 -0.00000000000E+00 -0.00000000000E+00 -0.56889082071E+02  0.56889082071E+02  0.00000000000E+00 0. -1.
         21    1    1    2  503  504 -0.66795221428E+01 -0.21955273122E+02  0.30684773536E+02  0.38317167966E+02  0.00000000000E+00 0. -1.
         21    1    1    2  504  502  0.66795221428E+01  0.21955273122E+02 -0.50592098126E+02  0.55553671587E+02  0.00000000000E+00 0. -1.
</event>
<event>
 4    1  0.3048956E+006  0.2840022E+02  0.7546771E-02  0.1434028E+00
         21   -1    0    0  502  501  0.00000000000E+00  0.00000000000E+00  0.21188057075E+02  0.21188057075E+02  0.00000000000E+00 0.  1.
         21   -1    0    0  503  502 -0.00000000000E+00 -0.00000000000E+00 -0.84946009859E+02  0.84946009859E+02  0.00000000000E+00 0.  1.
         21    1    1    2  503  504  0.25713793236E+02 -0.12057077978E+02 -0.71301199160E+02  0.76749158260E+02  0.00000000000E+00 0.  1.
         21    1    1    2  504  501 -0.25713793236E+02  0.12057077978E+02  0.75432463752E+01  0.29384908675E+02  0.00000000000E+00 0.  1.
</event>
<event>
 4    1  0.3048956E+006  0.2659954E+02  0.7546771E-02  0.1451673E+00
         21   -1    0    0  502  501  0.00000000000E+00  0.00000000000E+00  0.37388289266E+02  0.37388289266E+02  0.00000000000E+00 0. -1.
         21   -1    0    0  504  502 -0.00000000000E+00 -0.00000000000E+00 -0.20289457235E+03  0.20289457235E+03  0.00000000000E+00 0. -1.
         21    1    1    2  503  501 -0.38290037713E+01 -0.26322502621E+02  0.31648375344E+02  0.41341928789E+02  0.00000000000E+00 0. -1.
         21    1    1    2  504  503  0.38290037713E+01  0.26322502621E+02 -0.19715465843E+03  0.19894093283E+03  0.00000000000E+00 0. -1.
</event>
<event>
 4    1  0.3048956E+006  0.2075003E+02  0.7546771E-02  0.1522864E+00
         21   -1    0    0  502  501  0.00000000000E+00  0.00000000000E+00  0.13693448813E+02  0.13693448813E+02  0.00000000000E+00 0.  1.
         21   -1    0    0  504  502 -0.00000000000E+00 -0.00000000000E+00 -0.83284382128E+02  0.83284382128E+02  0.00000000000E+00 0. -1.
         21    1    1    2  503  501 -0.20713293308E+02  0.12341571482E+01  0.34604667938E+01  0.21036598916E+02  0.00000000000E+00 0.  1.
         21    1    1    2  504  503  0.20713293308E+02 -0.12341571482E+01 -0.73051400109E+02  0.75941232024E+02  0.00000000000E+00 0. -1.
</event>
<event>
 4    1  0.3048956E+006  0.3472110E+02  0.7546771E-02  0.1382535E+00
         21   -1    0    0  504  501  0.00000000000E+00  0.00000000000E+00  0.22126549146E+03  0.22126549146E+03  0.00000000000E+00 0.  1.
         21   -1    0    0  501  502 -0.00000000000E+00 -0.00000000000E+00 -0.10111588256E+03  0.10111588256E+03  0.00000000000E+00 0.  1.
         21    1    1    2  503  502  0.34487360493E+02  0.40220154019E+01 -0.96713011492E+02  0.10275680626E+03  0.00000000000E+00 0.  1.
         21    1    1    2  504  503 -0.34487360493E+02 -0.40220154019E+01  0.21686262039E+03  0.21962456776E+03  0.00000000000E+00 0.  1.
</event>
<event>
 4    1  0.3048956E+006  0.2129828E+02  0.7546771E-02  0.1515049E+00
         21   -1    0    0  502  501  0.00000000000E+00  0.00000000000E+00  0.22330238397E+03  0.22330238397E+03  0.00000000000E+00 0.  1.
         21   -1    0    0  504  502 -0.00000000000E+00 -0.00000000000E+00 -0.28939701853E+02  0.28939701853E+02  0.00000000000E+00 0.  1.
         21    1    1    2  503  501  0.21128618050E+02 -0.26829587270E+01  0.21879536581E+03  0.21982954503E+03  0.00000000000E+00 0.  1.
         21    1    1    2  504  503 -0.21128618050E+02  0.26829587270E+01 -0.24432683693E+02  0.32412540793E+02  0.00000000000E+00 0.  1.
</event>
<event>
 4    1  0.3048956E+006  0.2206125E+02  0.7546771E-02  0.1504635E+00
         21   -1    0    0  503  501  0.00000000000E+00  0.00000000000E+00  0.26796790845E+03  0.26796790845E+03  0.00000000000E+00 0. -1.
         21   -1    0    0  504  502 -0.00000000000E+00 -0.00000000000E+00 -0.20323196697E+02  0.20323196697E+02  0.00000000000E+00 0.  1.
         21    1    1    2  503  502  0.18878017995E+02  0.11415742908E+02  0.26137613767E+03  0.26230551670E+03  0.00000000000E+00 0. -1.
         21    1    1    2  504  501 -0.18878017995E+02 -0.11415742908E+02 -0.13731425911E+02  0.25985588450E+02  0.00000000000E+00 0.  1.
</event>
<event>
 4    1  0.3048956E+006  0.3146090E+02  0.7546771E-02  0.1407312E+00
         21   -1    0    0  504  501  0.00000000000E+00  0.00000000000E+00  0.40429087187E+03  0.40429087187E+03  0.00000000000E+00 0.  1.
         21   -1    0    0  503  502 -0.00000000000E+00 -0.00000000000E+00 -0.26446292078E+01  0.26446292078E+01  0.00000000000E+00 0.  1.
         21    1    1    2  503  501  0.30652618236E+02  0.70855839680E+01  0.25627374027E+03  0.25819763449E+03  0.00000000000E+00 0.  1.
         21    1    1    2  504  502 -0.30652618236E+02 -0.70855839680E+01  0.14537250239E+03  0.14873786658E+03  0.00000000000E+00 0.  1.
</event>
<event>
 4    1  0.3048956E+006  0.2306869E+02  0.7546771E-02  0.1491637E+00
         21   -1    0    0  503  501  0.00000000000E+00  0.00000000000E+00  0.25777974079E+01  0.25777974079E+01  0.00000000000E+00 0.  1.
         21   -1    0    0  501  502 -0.00000000000E+00 -0.00000000000E+00 -0.24526018343E+03  0.24526018343E+03  0.00000000000E+00 0.  1.
         21    1    1    2  503  504  0.23055979247E+02  0.76563820692E+00 -0.72041444314E+02  0.75644788847E+02  0.00000000000E+00 0.  1.
         21    1    1    2  504  502 -0.23055979247E+02 -0.76563820692E+00 -0.17064094171E+03  0.17219319199E+03  0.00000000000E+00 0.  1.
</event>
<event>
 4    1  0.3048956E+006  0.2717248E+02  0.7546771E-02  0.1445883E+00
         21   -1    0    0  504  501  0.00000000000E+00  0.00000000000E+00  0.81926026587E+03  0.81926026587E+03  0.00000000000E+00 0. -1.
         21   -1    0    0  503  502 -0.00000000000E+00 -0.00000000000E+00 -0.12857492019E+01  0.12857492019E+01  0.00000000000E+00 0. -1.
         21    1    1    2  503  501 -0.98006931931E+01 -0.25343447850E+02  0.63335088233E+03  0.63393350131E+03  0.00000000000E+00 0. -1.
         21    1    1    2  504  502  0.98006931931E+01  0.25343447850E+02  0.18462363434E+03  0.18661251376E+03  0.00000000000E+00 0. -1.
</event>
<event>
 4    1  0.3048956E+006  0.4507084E+02  0.7546771E-02  0.1321086E+00
         21   -1    0    0  502  501  0.00000000000E+00  0.00000000000E+00  0.39581185854E+02  0.39581185854E+02  0.00000000000E+00 0. -1.
         21   -1    0    0  504  502 -0.00000000000E+00 -0.00000000000E+00 -0.16142981356E+03  0.16142981356E+03  0.00000000000E+00 0. -1.
         21    1    1    2  503  501  0.43254620637E+02 -0.12665622062E+02  0.22081267315E+02  0.50189267328E+02  0.00000000000E+00 0. -1.
         21    1    1    2  504  503 -0.43254620637E+02  0.12665622062E+02 -0.14392989502E+03  0.15082173209E+03  0.00000000000E+00 0. -1.
</event>
<event>
 4    1  0.3048956E+006  0.2337300E+02  0.7546771E-02  0.1487867E+00
         21   -1    0    0  503  501  0.00000000000E+00  0.00000000000E+00  0.61527130960E+02  0.61527130960E+02  0.00000000000E+00 0.  1.
         21   -1    0    0  504  502 -0.00000000000E+00 -0.00000000000E+00 -0.92021181992E+01  0.92021181992E+01  0.00000000000E+00 0.  1.
         21    1    1    2  503  502 -0.11083540225E+02  0.20577958637E+02  0.32789695173E+02  0.40267373333E+02  0.00000000000E+00 0.  1.
         21    1    1    2  504  501  0.11083540225E+02 -0.20577958637E+02  0.19535317588E+02  0.30461875827E+02  0.00000000000E+00 0.  1.
</event>
<event>
 4    1  0.3048956E+006  0.2622368E+02  0.7546771E-02  0.1455566E+00
         21   -1    0    0  502  501  0.00000000000E+00  0.00000000000E+00  0.19689526967E+01  0.19689526967E+01  0.00000000000E+00 0. -1.
         21   -1    0    0  503  502 -0.00000000000E+00 -0.00000000000E+00 -0.38351708868E+03  0.38351708868E+03  0.00000000000E+00 0.  1.
         21    1    1    2  503  504 -0.16691753219E+02 -0.20225404386E+02 -0.24837703059E+03  0.24975754429E+03  0.00000000000E+00 0.  1.
         21    1    1    2  504  501  0.16691753219E+02  0.20225404386E+02 -0.13317110539E+03  0.13572849708E+03  0.00000000000E+00 0. -1.
</event>
<event>
 4    1  0.3048956E+006  0.2259601E+02  0.7546771E-02  0.1497634E+00
         21   -1    0    0  503  501  0.00000000000E+00  0.00000000000E+00  0.15631142908E+03  0.15631142908E+03  0.00000000000E+00 0.  1.
         21   -1    0    0  504  502 -0.00000000000E+00 -0.00000000000E+00 -0.82607836018E+01  0.82607836018E+01  0.00000000000E+00 0.  1.
         21    1    1    2  503  502  0.24682116288E+01  0.22460805732E+02  0.10043638735E+02  0.24727606876E+02  0.00000000000E+00 0.  1.
         21    1    1    2  504  501 -0.24682116288E+01 -0.22460805732E+02  0.13800700674E+03  0.13984460580E+03  0.00000000000E+00 0.  1.
</event>
<event>
 4    1  0.3048956E+006  0.2727728E+02  0.7546771E-02  0.1444843E+00
         21   -1    0    0  503  501  0.00000000000E+00  0.00000000000E+00  0.33966179398E+03  0.33966179398E+03  0.00000000000E+00 0.  1.
         21   -1    0    0  501  502 -0.00000000000E+00 -0.00000000000E+00 -0.51925908582E+02  0.51925908582E+02  0.00000000000E+00 0. -1.
         21    1    1    2  503  504  0.27163927124E+02  0.24841119818E+01  0.33548738739E+03  0.33659446942E+03  0.00000000000E+00 0.  1.
         21    1    1    2  504  502 -0.27163927124E+02 -0.24841119818E+01 -0.47751501988E+02  0.54993233141E+02  0.00000000000E+00 0. -1.
</event>
<event>
 4    1  0.3048956E+006  0.3286605E+02  0.7546771E-02  0.1396220E+00
         21   -1    0    0  502  501  0.00000000000E+00  0.00000000000E+00  0.32822238455E+03  0.32822238455E+03  0.00000000000E+00 0.  1.
         21   -1    0    0  504  502 -0.00000000000E+00 -0.00000000000E+00 -0.14881873973E+02  0.14881873973E+02  0.00000000000E+00 0. -1.
         21    1    1    2  503  501  0.21039018893E+02  0.25249496122E+02  0.30807013705E+03  0.30981831242E+03  0.00000000000E+00 0.  1.
         21    1    1    2  504  503 -0.21039018893E+02 -0.25249496122E+02  0.52703735205E+01  0.33285946095E+02  0.00000000000E+00 0. -1.
</event>
<event>
 4    1  0.3048956E+006  0.2766139E+02  0.7546771E-02  0.1441075E+00
         21   -1    0    0  504  501  0.00000000000E+00  0.00000000000E+00  0.48039211204E+02  0.48039211204E+02  0.00000000000E+00 0. -1.
         21   -1    0    0  503  502 -0.00000000000E+00 -0.00000000000E+00 -0.31769319623E+02  0.31769319623E+02  0.00000000000E+00 0. -1.
         21    1    1    2  503  501 -0.19028521311E+02 -0.20076544479E+02  0.36313304358E+02  0.45648749544E+02  0.00000000000E+00 0. -1.
         21    1    1    2  504  502  0.19028521311E+02  0.20076544479E+02 -0.20043412777E+02  0.34159781282E+02  0.00000000000E+00 0. -1.
</event>
<event>
 4    1  0.3048956E+006  0.2391453E+02  0.7546771E-02  0.1481323E+00
         21   -1    0    0  504  501  0.00000000000E+00  0.00000000000E+00  0.37485514409E+02  0.37485514409E+02  0.00000000000E+00 0. -1.
         21   -1    0    0  503  502 -0.00000000000E+00 -0.00000000000E+00 -0.41795652201E+02  0.41795652201E+02  0.00000000000E+00 0. -1.
         21    1    1    2  503  501  0.73501397934E+01  0.22756975960E+02  0.29432523867E+02  0.37923316983E+02  0.00000000000E+00 0. -1.
         21    1    1    2  504  502 -0.73501397934E+01 -0.22756975960E+02 -0.33742661660E+02  0.41357849627E+02  0.00000000000E+00 0. -1.
</event>
<event>
 4    1  0.3048956E+006  0.2274128E+02  0.7546771E-02  0.1495773E+00
         21   -1    0    0  504  501  0.00000000000E+00  0.00000000000E+00  0.39884808571E+02  0.39884808571E+02  0.00000000000E+00 0.  1.
         21   -1    0    0  503  502 -0.00000000000E+00 -0.00000000000E+00 -0.49920004096E+02  0.49920004096E+02  0.00000000000E+00 0. -1.
         21    1    1    2  503  501  0.85007053206E+01 -0.21092741231E+02  0.33615560923E+02  0.40585362629E+02  0.00000000000E+00 0.  1.
         21    1    1    2  504  502 -0.85007053206E+01  0.21092741231E+02 -0.43650756448E+02  0.49219450038E+02  0.00000000000E+00 0. -1.
</event>
<event>
 4    1  0.3048956E+006  0.2564753E+02  0.7546771E-02  0.1461688E+00
         21   -1    0    0  503  501  0.00000000000E+00  0.00000000000E+00  0.22981964381E+02  0.22981964381E+02  0.00000000000E+00 0.  1.
         21   -1    0    0  501  502 -0.00000000000E+00 -0.00000000000E+00 -0.88370647987E+02  0.88370647987E+02  0.00000000000E+00 0. -1.
         21    1    1    2  503  504  0.16840402729E+02  0.19344165396E+02  0.13086046186E+02  0.28793063466E+02  0.00000000000E+00 0.  1.
         21    1    1    2  504  502 -0.16840402729E+02 -0.19344165396E+02 -0.78474729792E+02  0.82559548902E+02  0.00000000000E+00 0. -1.
</event>
<event>
 4    1  0.3048956E+006  0.2608374E+02  0.7546771E-02  0.1457036E+00
         21   -1    0    0  504  501  0.00000000000E+00  0.00000000000E+00  0.24157206737E+02  0.24157206737E+02  0.00000000000E+00 0.  1.
         21   -1    0    0  501  502 -0.00000000000E+00 -0.00000000000E+00 -0.53974580436E+02  0.53974580436E+02  0.00000000000E+00 0. -1.
         21    1    1    2  503  502 -0.26068631027E+02 -0.88764025710E+00 -0.41923549054E+02  0.49375554621E+02  0.00000000000E+00 0. -1.
         21    1    1    2  504  503  0.26068631027E+02  0.88764025710E+00  0.12106175355E+02  0.28756232552E+02  0.00000000000E+00 0.  1.
</event>
<event>
 4    1  0.3048956E+006  0.2078744E+02  0.7546771E-02  0.1522321E+00
         21   -1    0    0  504  501  0.00000000000E+00  0.00000000000E+00  0.67573437020E+02  0.67573437020E+02  0.00000000000E+00 0. -1.
         21   -1    0    0  503  502 -0.00000000000E+00 -0.00000000000E+00 -0.29903230601E+02  0.29903230601E+02  0.00000000000E+00 0.  1.
         21    1    1    2  503  501 -0.10830646227E+02 -0.17743025636E+02  0.62049011445E+02  0.65438503022E+02  0.00000000000E+00 0. -1.
         21    1    1    2  504  502  0.10830646227E+02  0.17743025636E+02 -0.24378805025E+02  0.32038164599E+02  0.00000000000E+00 0.  1.
</event>
<event>
 4    1  0.3048956E+006  0.2686296E+02  0.7546771E-02  0.1448990E+00
         21   -1    0    0  504  501  0.00000000000E+00  0.00000000000E+00  0.18580633870E+02  0.18580633870E+02  0.00000000000E+00 0. -1.
         21   -1    0    0  503  502 -0.00000000000E+00 -0.00000000000E+00 -0.74728455886E+03  0.74728455886E+03  0.00000000000E+00 0. -1.
         21    1    1    2  503  501 -0.19684171300E+02 -0.18279827758E+02  0.84971750828E+01  0.28174823638E+02  0.00000000000E+00 0. -1.
         21    1    1    2  504  502  0.19684171300E+02  0.18279827758E+02 -0.73720110008E+03  0.73769036910E+03  0.00000000000E+00 0. -1.
</event>
<event>
 4    1  0.3048956E+006  0.2158001E+02  0.7546771E-02  0.1511143E+00
         21   -1    0    0  502  501  0.00000000000E+00  0.00000000000E+00  0.30221578693E+01  0.30221578693E+01  0.00000000000E+00 0. -1.
         21   -1    0    0  504  502 -0.00000000000E+00 -0.00000000000E+00 -0.71685852805E+03  0.71685852805E+03  0.00000000000E+00 0. -1.
         21    1    1    2  503  501  0.10959330628E+02 -0.18590049132E+02 -0.38001605931E+02  0.43701474894E+02  0.00000000000E+00 0. -1.
         21    1    1    2  504  503 -0.10959330628E+02  0.18590049132E+02 -0.67583476425E+03  0.67617921103E+03  0.00000000000E+00 0. -1.
</event>
<event>
 4    1  0.3048956E+006  0.3745843E+02  0.7546771E-02  0.1364059E+00
         21   -1    0    0  504  501  0.00000000000E+00  0.00000000000E+00  0.82081170721E+03  0.82081170721E+03  0.00000000000E+00 0. -1.
         21   -1    0    0  503  502 -0.00000000000E+00 -0.00000000000E+00 -0.21479051467E+01  0.21479051467E+01  0.00000000000E+00 0. -1.
         21    1    1    2  503  501 -0.17464860630E+02 -0.33137785226E+02  0.59524287040E+03  0.59642032907E+03  0.00000000000E+00 0. -1.
         21    1    1    2  504  502  0.17464860630E+02  0.33137785226E+02  0.22342093167E+03  0.22653928329E+03  0.00000000000E+00 0. -1.
</event>
<event>
 4    1  0.3048956E+006  0.2390448E+02  0.7546771E-02  0.1481442E+00
         21   -1    0    0  504  501  0.00000000000E+00  0.00000000000E+00  0.53659609362E+02  0.53659609362E+02  0.00000000000E+00 0.  1.
         21   -1    0    0  503  502 -0.00000000000E+00 -0.00000000000E+00 -0.10768574085E+02  0.10768574085E+02  0.00000000000E+00 0.  1.
         21    1    1    2  503  501 -0.17739015165E+02  0.16023471876E+02  0.24839263937E+02  0.34473371505E+02  0.00000000000E+00 0.  1.
         21    1    1    2  504  502  0.17739015165E+02 -0.16023471876E+02  0.18051771340E+02  0.29954811942E+02  0.00000000000E+00 0.  1.
</event>
<event>
 4    1  0.3048956E+006  0.2833600E+02  0.7546771E-02  0.1434630E+00
         21   -1    0    0  502  501  0.00000000000E+00  0.00000000000E+00  0.67720715349E+02  0.67720715349E+02  0.00000000000E+00 0.  1.
         21   -1    0    0  504  502 -0.00000000000E+00 -0.00000000000E+00 -0.47370451813E+02  0.47370451813E+02  0.00000000000E+00 0.  1.
         21    1    1    2  503  501 -0.19048908637E+01 -0.28271900030E+02  0.60001346017E+02  0.66355786970E+02  0.00000000000E+00 0.  1.
         21    1    1    2  504  503  0.19048908637E+01  0.28271900030E+02 -0.39651082481E+02  0.48735380192E+02  0.00000000000E+00 0.  1.
</event>
<event>
 4    1  0.3048956E+006  0.2023335E+02  0.7546771E-02  0.1530498E+00
         21   -1    0    0  503  501  0.00000000000E+00  0.00000000000E+00  0.11139812540E+03  0.11139812540E+03  0.00000000000E+00 0.  1.
         21   -1    0    0  504  502 -0.00000000000E+00 -0.00000000000E+00 -0.96219625803E+01  0.96219625803E+01  0.00000000000E+00 0.  1.
         21    1    1    2  503  502  0.12857806977E+02  0.15622592602E+02  0.98459168885E+02  0.10051664806E+03  0.00000000000E+00 0.  1.
         21    1    1    2  504  501 -0.12857806977E+02 -0.15622592602E+02  0.33169939372E+01  0.20503439922E+02  0.00000000000E+00 0.  1.
</event>
<event>
 4    1  0.3048956E+006  0.3240522E+02  0.7546771E-02  0.1399785E+00
         21   -1    0    0  502  501  0.00000000000E+00  0.00000000000E+00  0.25481458575E+03  0.25481458575E+03  0.00000000000E+00 0. -1.
         21   -1    0    0  503  502 -0.00000000000E+00 -0.00000000000E+00 -0.87784107438E+01  0.87784107438E+01  0.00000000000E+00 0. -1.
         21    1    1    2  503  504 -0.32056166315E+02 -0.47434659089E+01  0.27019057175E+02  0.42191559799E+02  0.00000000000E+00 0. -1.
         21    1    1    2  504  501  0.32056166315E+02  0.47434659089E+01  0.21901711783E+03  0.22140143670E+03  0.00000000000E+00 0. -1.
</event>
<event>
 4    1  0.3048956E+006  0.3259786E+02  0.7546771E-02  0.1398286E+00
         21   -1    0    0  504  501  0.00000000000E+00  0.00000000000E+00  0.63382848618E+01  0.63382848618E+01  0.00000000000E+00 0. -1.
         21   -1    0    0  503  502 -0.00000000000E+00 -0.00000000000E+00 -0.42654365887E+03  0.42654365887E+03  0.00000000000E+00 0. -1.
         21    1    1    2  503  501  0.26138551256E+02 -0.19478099531E+02 -0.37872597045E+03  0.38012626970E+03  0.00000000000E+00 0. -1.
         21    1    1    2  504  502 -0.26138551256E+02  0.19478099531E+02 -0.41479403565E+02  0.52755674038E+02  0.00000000000E+00 0. -1.
</event>
<event>
 4    1  0.3048956E+006  0.3003918E+02  0.7546771E-02  0.1419256E+00
         21   -1    0    0  504  501  0.00000000000E+00  0.00000000000E+00  0.30392301539E+01  0.30392301539E+01  0.00000000000E+00 0.  1.
         21   -1    0    0  503  502 -0.00000000000E+00 -0.00000000000E+00 -0.39000045029E+03  0.39000045029E+03  0.00000000000E+00 0. -1.
         21    1    1    2  503  501 -0.17578497598E+02  0.24358751855E+02 -0.28949712754E+03  0.29105143742E+03  0.00000000000E+00 0. -1.
         21    1    1    2  504  502  0.17578497598E+02 -0.24358751855E+02 -0.97464092597E+02  0.10198824303E+03  0.00000000000E+00 0.  1.
</event>
<event>
 4    1  0.3048956E+006  0.2130015E+02  0.7546771E-02  0.1515022E+00
         21   -1    0    0  504  501  0.00000000000E+00  0.00000000000E+00  0.59767507191E+02  0.59767507191E+02  0.00000000000E+00 0.  1.
         21   -1    0    0  503  502 -0.00000000000E+00 -0.00000000000E+00 -0.58284885811E+02  0.58284885811E+02  0.00000000000E+00 0.  1.
         21    1    1    2  503  501 -0.58249031377E+01  0.20488214152E+02 -0.54307066992E+02  0.58334843284E+02  0.00000000000E+00 0.  1.
         21    1    1    2  504  502  0.58249031377E+01 -0.20488214152E+02  0.55789688372E+02  0.59717549718E+02  0.00000000000E+00 0.  1.
</event>
<event>
 4    1  0.3048956E+006  0.3291417E+02  0.7546771E-02  0.1395852E+00
         21   -1    0    0  503  501  0.00000000000E+00  0.00000000000E+00  0.34771695293E+01  0.34771695293E+01  0.00000000000E+00 0.  1.
         21   -1    0    0  504  502 -0.00000000000E+00 -0.00000000000E+00 -0.60121200241E+03  0.60121200241E+03  0.00000000000E+00 0.  1.
         21    1    1    2  503  502 -0.28052562219E+02 -0.17216156282E+02 -0.50872643921E+03  0.50979008645E+03  0.00000000000E+00 0.  1.
         21    1    1    2  504  501  0.28052562219E+02  0.17216156282E+02 -0.89008393664E+02  0.94899085490E+02  0.00000000000E+00 0.  1.
</event>
<event>
 4    1  0.3048956E+006  0.2124518E+02  0.7546771E-02  0.1515793E+00
         21   -1    0    0  502  501  0.00000000000E+00  0.00000000000E+00  0.79185319756E+03  0.79185319756E+03  0.00000000000E+00 0.  1.
         21   -1    0    0  504  502 -0.00000000000E+00 -0.00000000000E+00 -0.32753001724E+02  0.32753001724E+02  0.00000000000E+00 0. -1.
         21    1    1    2  503  501  0.20073110941E+02 -0.69590236129E+01  0.78824978715E+03  0.78853603895E+03  0.00000000000E+00 0.  1.
         21    1    1    2  504  503 -0.20073110941E+02  0.69590236129E+01 -0.29149591312E+02  0.36070160329E+02  0.00000000000E+00 0. -1.
</event>
<event>
 4    1  0.3048956E+006  0.3315141E+02  0.7546771E-02  0.1394047E+00
         21   -1    0    0  504  501  0.00000000000E+00  0.00000000000E+00  0.18797672453E+01  0.18797672453E+01  0.00000000000E+00 0.  1.
         21   -1    0    0  503  502 -0.00000000000E+00 -0.00000000000E+00 -0.84465226792E+03  0.84465226792E+03  0.00000000000E+00 0.  1.
         21    1    1    2  503  501 -0.28439120653E+01 -0.33029198748E+02 -0.18655353403E+03  0.18947621715E+03  0.00000000000E+00 0.  1.
         21    1    1    2  504  502  0.28439120653E+01  0.33029198748E+02 -0.65621896665E+03  0.65705581802E+03  0.00000000000E+00 0.  1.
</event>
<event>
 4    1  0.3048956E+006  0.2624640E+02  0.7546771E-02  0.1455329E+00
         21   -1    0    0  503  501  0.00000000000E+00  0.00000000000E+00  0.83853412412E+03  0.83853412412E+03  0.00000000000E+00 0.  1.
         21   -1    0    0  501  502 -0.00000000000E+00 -0.00000000000E+00 -0.72133100685E+01  0.72133100685E+01  0.00000000000E+00 0.  1.
         21    1    1    2  503  504  0.13736144650E+02 -0.22364964472E+02  0.81372597512E+03  0.81414914844E+03  0.00000000000E+00 0.  1.
         21    1    1    2  504  502 -0.13736144650E+02  0.22364964472E+02  0.17594838928E+02  0.31598285754E+02  0.00000000000E+00 0.  1.
</event>
<event>
 4    1  0.3048956E+006  0.2302395E+02  0.7546771E-02  0.1492198E+00
         21   -1    0    0  504  501  0.00000000000E+00  0.00000000000E+00  0.18051534768E+03  0.18051534768E+03  0.00000000000E+00 0. -1.
         21   -1    0    0  501  502 -0.00000000000E+00 -0.00000000000E+00 -0.23636413088E+03  0.23636413088E+03  0.00000000000E+00 0. -1.
         21    1    1    2  503  502  0.23000606884E+02  0.10364919324E+01 -0.23506524885E+03  0.23619012140E+03  0.00000000000E+00 0. -1.
         21    1    1    2  504  503 -0.23000606884E+02 -0.10364919324E+01  0.17921646565E+03  0.18068935716E+03  0.00000000000E+00 0. -1.
</event>
<event>
 4    1  0.3048956E+006  0.2445471E+02  0.7546771E-02  0.1474997E+00
         21   -1    0    0  502  501  0.00000000000E+00  0.00000000000E+00  0.21298272778E+03  0.21298272778E+03  0.00000000000E+00 0.  1.
         21   -1    0    0  504  502 -0.00000000000E+00 -0.00000000000E+00 -0.23892334868E+02  0.23892334868E+02  0.00000000000E+00 0. -1.
         21    1    1    2  503  501  0.60831330394E+01 -0.23686035554E+02  0.20580572042E+03  0.20725353397E+03  0.00000000000E+00 0.  1.
         21    1    1    2  504  503 -0.60831330394E+01  0.23686035554E+02 -0.16715327501E+02  0.29621528679E+02  0.00000000000E+00 0. -1.
</event>
<event>
 4    1  0.3048956E+006  0.2661016E+02  0.7546771E-02  0.1451564E+00
         21   -1    0    0  504  501  0.00000000000E+00  0.00000000000E+00  0.34189696323E+03  0.34189696323E+03  0.00000000000E+00 0. -1.
         21   -1    0    0  503  502 -0.00000000000E+00 -0.00000000000E+00 -0.61155228064E+02  0.61155228064E+02  0.00000000000E+00 0. -1.
         21    1    1    2  503  501 -0.20678882882E+02  0.16747664121E+02 -0.57713378372E+02  0.63552612014E+02  0.00000000000E+00 0. -1.
         21    1    1    2  504  502  0.20678882882E+02 -0.16747664121E+02  0.33845511354E+03  0.33949957928E+03  0.00000000000E+00 0. -1.
</event>
<event>
 4    1  0.3048956E+006  0.2909445E+02  0.7546771E-02  0.1427632E+00
         21   -1    0    0  504  501  0.00000000000E+00  0.00000000000E+00  0.29877061983E+01  0.29877061983E+01  0.00000000000E+00 0.  1.
         21   -1    0    0  503  502 -0.00000000000E+00 -0.00000000000E+00 -0.58946632363E+03  0.58946632363E+03  0.00000000000E+00 0. -1.
         21    1    1    2  503  501 -0.28639884121E+02  0.51229164156E+01 -0.50671933041E+03  0.50755390556E+03  0.00000000000E+00 0. -1.
         21    1    1    2  504  502  0.28639884121E+02 -0.51229164156E+01 -0.79759287019E+02  0.84900124269E+02  0.00000000000E+00 0.  1.
</event>
<event>
 4    1  0.3048956E+006  0.2157484E+02  0.7546771E-02  0.1511214E+00
         21   -1    0    0  504  501  0.00000000000E+00  0.00000000000E+00  0.80606861151E+02  0.80606861151E+02  0.00000000000E+00 0.  1.
         21   -1    0    0  503  502 -0.00000000000E+00 -0.00000000000E+00 -0.13064576696E+02  0.13064576696E+02  0.00000000000E+00 0.  1.
         21    1    1    2  503  501  0.21458835579E+02  0.22342704354E+01 -0.12146846740E+01  0.21609003856E+02  0.00000000000E+00 0.  1.
         21    1    1    2  504  502 -0.21458835579E+02 -0.22342704354E+01  0.68756969130E+02  0.72062433991E+02  0.00000000000E+00 0.  1.
</event>
<event>
 4    1  0.3048956E+006  0.2115705E+02  0.7546771E-02  0.1517034E+00
         21   -1    0    0  503  501  0.00000000000E+00  0.00000000000E+00  0.13380627072E+02  0.13380627072E+02  0.00000000000E+00 0. -1.
         21   -1    0    0  504  502 -0.00000000000E+00 -0.00000000000E+00 -0.57354153737E+03  0.57354153737E+03  0.00000000000E+00 0.  1.
         21    1    1    2  503  502  0.28549472988E+01 -0.20963540457E+02  0.46937168481E+01  0.21671449661E+02  0.00000000000E+00 0. -1.
         21    1    1    2  504  501 -0.28549472988E+01  0.20963540457E+02 -0.56485462714E+03  0.56525071478E+03  0.00000000000E+00 0.  1.
</event>
<event>
 4    1  0.3048956E+006  0.2153463E+02  0.7546771E-02  0.1511767E+00
         21   -1    0    0  502  501  0.00000000000E+00  0.00000000000E+00  0.10996828358E+03  0.10996828358E+03  0.00000000000E+00 0. -1.
         21   -1    0    0  503  502 -0.00000000000E+00 -0.00000000000E+00 -0.74627002589E+01  0.74627002589E+01  0.00000000000E+00 0.  1.
         21    1    1    2  503  504 -0.20528572364E+02  0.65052196035E+01  0.12530903286E+02  0.24915129993E+02  0.00000000000E+00 0.  1.
         21    1    1    2  504  501  0.20528572364E+02 -0.65052196035E+01  0.89974680033E+02  0.92515853844E+02  0.00000000000E+00 0. -1.
</event>
<event>
 4    1  0.3048956E+006  0.2191986E+02  0.7546771E-02  0.1506526E+00
         21   -1    0    0  503  501  0.00000000000E+00  0.00000000000E+00  0.13818163300E+04  0.13818163300E+04  0.00000000000E+00 0.  1.
         21   -1    0    0  504  502 -0.00000000000E+00 -0.00000000000E+00 -0.31772605209E+02  0.31772605209E+02  0.00000000000E+00 0. -1.
         21    1    1    2  503  502  0.39909137911E+01 -0.21553484490E+02  0.13779381451E+04  0.13781124815E+04  0.00000000000E+00 0.  1.
         21    1    1    2  504  501 -0.39909137911E+01  0.21553484490E+02 -0.27894420255E+02  0.35476453712E+02  0.00000000000E+00 0. -1.
</event>
<event>
 4    1  0.3048956E+006  0.2657750E+02  0.7546771E-02  0.1451899E+00
         21   -1    0    0  503  501  0.00000000000E+00  0.00000000000E+00  0.78963556789E+03  0.78963556789E+03  0.00000000000E+00 0. -1.
         21   -1    0    0  504  502 -0.00000000000E+00 -0.00000000000E+00 -0.12556291577E+02  0.12556291577E+02  0.00000000000E+00 0.  1.
         21    1    1    2  503  502  0.17011345212E+02 -0.20420024688E+02  0.19952357645E+01  0.26652283953E+02  0.00000000000E+00 0.  1.
         21    1    1    2  504  501 -0.17011345212E+02  0.20420024688E+02  0.77508404054E+03  0.77553957551E+03  0.00000000000E+00 0. -1.
</event>
<event>
 4    1  0.3048956E+006  0.2103266E+02  0.7546771E-02  0.1518799E+00
         21   -1    0    0  503  501  0.00000000000E+00  0.00000000000E+00  0.69032860604E+01  0.69032860604E+01  0.00000000000E+00 0.  1.
         21   -1    0    0  504  502 -0.00000000000E+00 -0.00000000000E+00 -0.26309013969E+03  0.26309013969E+03  0.00000000000E+00 0.  1.
         21    1    1    2  503  502  0.97659886833E+01  0.18627888073E+02 -0.24550391706E+03  0.24640321840E+03  0.00000000000E+00 0.  1.
         21    1    1    2  504  501 -0.97659886833E+01 -0.18627888073E+02 -0.10682936578E+02  0.23590207353E+02  0.00000000000E+00 0.  1.
</event>
<event>
 4    1  0.3048956E+006  0.3631443E+02  0.7546771E-02  0.1371551E+00
         21   -1    0    0  504  501  0.00000000000E+00  0.00000000000E+00  0.10870014733E+03  0.10870014733E+03  0.00000000000E+00 0.  1.
         21   -1    0    0  501  502 -0.00000000000E+00 -0.00000000000E+00 -0.16175067393E+02  0.16175067393E+02  0.00000000000E+00 0.  1.
         21    1    1    2  503  502 -0.70807759443E+01 -0.35617417020E+02  0.15045995851E+02  0.39308011579E+02  0.00000000000E+00 0.  1.
         21    1    1    2  504  503  0.70807759443E+01  0.35617417020E+02  0.77479084087E+02  0.85567203145E+02  0.00000000000E+00 0.  1.
</event>
<event>
 4    1  0.3048956E+006  0.3291045E+02  0.7546771E-02  0.1395880E+00
         21   -1    0    0  504  501  0.00000000000E+00  0.00000000000E+00  0.98838708539E+03  0.98838708539E+03  0.00000000000E+00 0.  1.
         21   -1    0    0  503  502 -0.00000000000E+00 -0.00000000000E+00 -0.28308653937E+01  0.28308653937E+01  0.00000000000E+00 0. -1.
         21    1    1    2  503  501 -0.31020967639E+02 -0.10990786494E+02  0.10477560219E+03  0.10982269635E+03  0.00000000000E+00 0. -1.
         21    1    1    2  504  502  0.31020967639E+02  0.10990786494E+02  0.88078061781E+03  0.88139525443E+03  0.00000000000E+00 0.  1.
</event>
<event>
 4    1  0.3048956E+006  0.2437550E+02  0.7546771E-02  0.1475912E+00
         21   -1    0    0  502  501  0.00000000000E+00  0.00000000000E+00  0.10342775163E+02  0.10342775163E+02  0.00000000000E+00 0. -1.
         21   -1    0    0  503  502 -0.00000000000E+00 -0.00000000000E+00 -0.15614878417E+03  0.15614878417E+03  0.00000000000E+00 0.  1.
         21    1    1    2  503  504 -0.13686904500E+02  0.20170113917E+02 -0.13908726039E+03  0.14120704958E+03  0.00000000000E+00 0.  1.
         21    1    1    2  504  501  0.13686904500E+02 -0.20170113917E+02 -0.67187486209E+01  0.25284509749E+02  0.00000000000E+00 0. -1.
</event>
<event>
 4    1  0.3048956E+006  0.2315715E+02  0.7546771E-02  0.1490534E+00
         21   -1    0    0  503  501  0.00000000000E+00  0.00000000000E+00  0.55297610409E+02  0.55297610409E+02  0.00000000000E+00 0. -1.
         21   -1    0    0  501  502 -0.00000000000E+00 -0.00000000000E+00 -0.13240807368E+02  0.13240807368E+02  0.00000000000E+00 0. -1.
         21    1    1    2  503  504 -0.16017194109E+02 -0.16724331806E+02  0.38755819747E+02  0.45147174283E+02  0.00000000000E+00 0. -1.
         21    1    1    2  504  502  0.16017194109E+02  0.16724331806E+02  0.33009832932E+01  0.23391243494E+02  0.00000000000E+00 0. -1.
</event>
<event>
 4    1  0.3048956E+006  0.2087496E+02  0.7546771E-02  0.1521058E+00
         21   -1    0    0  502  501  0.00000000000E+00  0.00000000000E+00  0.14460469621E+01  0.14460469621E+01  0.00000000000E+00 0. -1.
         21   -1    0    0  504  502 -0.00000000000E+00 -0.00000000000E+00 -0.39799780312E+03  0.39799780312E+03  0.00000000000E+00 0. -1.
         21    1    1    2  503  501  0.18803467537E+02  0.90660746861E+01 -0.99855565404E+02  0.10201420511E+03  0.00000000000E+00 0. -1.
         21    1    1    2  504  503 -0.18803467537E+02 -0.90660746861E+01 -0.29669619076E+03  0.29742964498E+03  0.00000000000E+00 0. -1.
</event>
<event>
 4    1  0.3048956E+006  0.2076201E+02  0.7546771E-02  0.1522690E+00
         21   -1    0    0  503  501  0.00000000000E+00  0.00000000000E+00  0.85509692889E+02  0.85509692889E+02  0.00000000000E+00 0. -1.
         21   -1    0    0  504  502 -0.00000000000E+00 -0.00000000000E+00 -0.79981974740E+01  0.79981974740E+01  0.00000000000E+00 0. -1.
         21    1    1    2  503  502  0.38748767997E+01  0.20397215874E+02  0.10327074497E+02  0.23188565140E+02  0.00000000000E+00 0. -1.
         21    1    1    2  504  501 -0.38748767997E+01 -0.20397215874E+02  0.67184420918E+02  0.70319325223E+02  0.00000000000E+00 0. -1.
</event>
<event>
 4    1  0.3048956E+006  0.2920513E+02  0.7546771E-02  0.1426632E+00
         21   -1    0    0  502  501  0.00000000000E+00  0.00000000000E+00  0.44512383191E+01  0.44512383191E+01  0.00000000000E+00 0.  1.
         21   -1    0    0  504  502 -0.00000000000E+00 -0.00000000000E+00 -0.23698845752E+03  0.23698845752E+03  0.00000000000E+00 0. -1.
         21    1    1    2  503  501 -0.26901881108E+02  0.11367866263E+02 -0.63448501026E+02  0.69847346928E+02  0.00000000000E+00 0.  1.
         21    1    1    2  504  503  0.26901881108E+02 -0.11367866263E+02 -0.16908871818E+03  0.17159234891E+03  0.00000000000E+00 0. -1.
</event>
<event>
 4    1  0.3048956E+006  0.2248904E+02  0.7546771E-02  0.1499016E+00
         21   -1    0    0  504  501  0.00000000000E+00  0.00000000000E+00  0.11744637096E+02  0.11744637096E+02  0.00000000000E+00 0. -1.
         21   -1    0    0  503  502 -0.00000000000E+00 -0.00000000000E+00 -0.78401591821E+02  0.78401591821E+02  0.00000000000E+00 0. -1.
         21    1    1    2  503  501 -0.18566046574E+02 -0.12690895137E+02 -0.63589319123E+02  0.67448931877E+02  0.00000000000E+00 0. -1.
         21    1    1    2  504  502  0.18566046574E+02  0.12690895137E+02 -0.30676356007E+01  0.22697297040E+02  0.00000000000E+00 0. -1.
</event>
<event>
 4    1  0.3048956E+006  0.3661212E+02  0.7546771E-02  0.1369570E+00
         21   -1    0    0  502  501  0.00000000000E+00  0.00000000000E+00  0.26407366616E+02  0.26407366616E+02  0.00000000000E+00 0. -1.
         21   -1    0    0  504  502 -0.00000000000E+00 -0.00000000000E+00 -0.53979685490E+03  0.53979685490E+03  0.00000000000E+00 0.  1.
         21    1    1    2  503  501 -0.34724035669E+02  0.11605545643E+02  0.12767901258E+02  0.38774561833E+02  0.00000000000E+00 0. -1.
         21    1    1    2  504  503  0.34724035669E+02 -0.11605545643E+02 -0.52615738954E+03  0.52742965968E+03  0.00000000000E+00 0.  1.
</event>
<event>
 4    1  0.3048956E+006  0.2556800E+02  0.7546771E-02  0.1462548E+00
         21   -1    0    0  503  501  0.00000000000E+00  0.00000000000E+00  0.24554839574E+02  0.24554839574E+02  0.00000000000E+00 0.  1.
         21   -1    0    0  504  502 -0.00000000000E+00 -0.00000000000E+00 -0.10527091727E+03  0.10527091727E+03  0.00000000000E+00 0.  1.
         21    1    1    2  503  502  0.67046294273E+01  0.24673281467E+02  0.15749387323E+02  0.30029420160E+02  0.00000000000E+00 0.  1.
         21    1    1    2  504  501 -0.67046294273E+01 -0.24673281467E+02 -0.96465465017E+02  0.99796336682E+02  0.00000000000E+00 0.  1.
</event>
<event>
 4    1  0.3048956E+006  0.2250916E+02  0.7546771E-02  0.1498755E+00
         21   -1    0    0  503  501  0.00000000000E+00  0.00000000000E+00  0.53248651519E+03  0.53248651519E+03  0.00000000000E+00 0. -1.
         21   -1    0    0  504  502 -0.00000000000E+00 -0.00000000000E+00 -0.18437484936E+03  0.18437484936E+03  0.00000000000E+00 0.  1.
         21    1    1    2  503  502  0.19322359643E+02 -0.11545944156E+02  0.53156044271E+03  0.53203680950E+03  0.00000000000E+00 0. -1.
         21    1    1    2  504  501 -0.19322359643E+02  0.11545944156E+02 -0.18344877688E+03  0.18482455505E+03  0.00000000000E+00 0.  1.
</event>
<event>
 4    1  0.3048956E+006  0.3196293E+02  0.7546771E-02  0.1403272E+00
         21   -1    0    0  503  501  0.00000000000E+00  0.00000000000E+00  0.13955438970E+02  0.13955438970E+02  0.00000000000E+00 0.  1.
         21   -1    0    0  501  502 -0.00000000000E+00 -0.00000000000E+00 -0.77383070847E+02  0.77383070847E+02  0.00000000000E+00 0. -1.
         21    1    1    2  503  504  0.17355983503E+02 -0.26840239653E+02 -0.21103906593E+02  0.38301481714E+02  0.00000000000E+00 0.  1.
         21    1    1    2  504  502 -0.17355983503E+02  0.26840239653E+02 -0.42323725284E+02  0.53037028103E+02  0.00000000000E+00 0. -1.
</event>
<event>
 4    1  0.3048956E+006  0.3027169E+02  0.7546771E-02  0.1417250E+00
         21   -1    0    0  503  501  0.00000000000E+00  0.00000000000E+00  0.68026299050E+01  0.68026299050E+01  0.00000000000E+00 0.  1.
         21   -1    0    0  504  502 -0.00000000000E+00 -0.00000000000E+00 -0.24891969812E+03  0.24891969812E+03  0.00000000000E+00 0.  1.
         21    1    1    2  503  502  0.17596723353E+02  0.24631897770E+02 -0.34449632848E+02  0.45860138070E+02  0.00000000000E+00 0.  1.
         21    1    1    2  504  501 -0.17596723353E+02 -0.24631897770E+02 -0.20766743537E+03  0.20986218996E+03  0.00000000000E+00 0.  1.
</event>
<event>
 4    1  0.3048956E+006  0.2662087E+02  0.7546771E-02  0.1451454E+00
         21   -1    0    0  504  501  0.00000000000E+00  0.00000000000E+00  0.27416842459E+02  0.27416842459E+02  0.00000000000E+00 0.  1.
         21   -1    0    0  503  502 -0.00000000000E+00 -0.00000000000E+00 -0.27478835744E+02  0.27478835744E+02  0.00000000000E+00 0.  1.
         21    1    1    2  503  501 -0.11704201152E+01  0.26595131141E+02 -0.67177061394E+01  0.27455390353E+02  0.00000000000E+00 0.  1.
         21    1    1    2  504  502  0.11704201152E+01 -0.26595131141E+02  0.66557128552E+01  0.27440287850E+02  0.00000000000E+00 0.  1.
</event>
<event>
 4    1  0.3048956E+006  0.2372673E+02  0.7546771E-02  0.1483569E+00
         21   -1    0    0  503  501  0.00000000000E+00  0.00000000000E+00  0.31626008374E+03  0.31626008374E+03  0.00000000000E+00 0.  1.
         21   -1    0    0  504  502 -0.00000000000E+00 -0.00000000000E+00 -0.10656281641E+02  0.10656281641E+02  0.00000000000E+00 0. -1.
         21    1    1    2  503  502  0.67111070135E+01 -0.22757828912E+02  0.30198451561E+03  0.30291517856E+03  0.00000000000E+00 0.  1.
         21    1    1    2  504  501 -0.67111070135E+01  0.22757828912E+02  0.36192864905E+01  0.24001186821E+02  0.00000000000E+00 0. -1.
</event>
<event>
 4    1  0.3048956E+006  0.2064111E+02  0.7546771E-02  0.1524451E+00
         21   -1    0    0  504  501  0.00000000000E+00  0.00000000000E+00  0.31010809592E+02  0.31010809592E+02  0.00000000000E+00 0.  1.
         21   -1    0    0  501  502 -0.00000000000E+00 -0.00000000000E+00 -0.19513699468E+02  0.19513699468E+02  0.00000000000E+00 0.  1.
         21    1    1    2  503  502  0.17384596877E+02  0.11127939969E+02 -0.79940710252E+01  0.22135049765E+02  0.00000000000E+00 0.  1.
         21    1    1    2  504  503 -0.17384596877E+02 -0.11127939969E+02  0.19491181149E+02  0.28389459296E+02  0.00000000000E+00 0.  1.
</event>
<event>
 4    1  0.3048956E+006  0.2521726E+02  0.7546771E-02  0.1466387E+00
         21   -1    0    0  503  501  0.00000000000E+00  0.00000000000E+00  0.21758209129E+03  0.21758209129E+03  0.00000000000E+00 0. -1.
         21   -1    0    0  504  502 -0.00000000000E+00 -0.00000000000E+00 -0.30368374880E+01  0.30368374880E+01  0.00000000000E+00 0.  1.
         21    1    1    2  503  502 -0.54903465147E+01 -0.24612319344E+02  0.12866528923E+03  0.13111318324E+03  0.00000000000E+00 0.  1.
         21    1    1    2  504  501  0.54903465147E+01  0.24612319344E+02  0.85879964573E+02  0.89505745533E+02  0.00000000000E+00 0. -1.
</event>
<event>
 4    1  0.3048956E+006  0.2017462E+02  0.7546771E-02  0.1531383E+00
         21   -1    0    0  502  501  0.00000000000E+00  0.00000000000E+00  0.17120483386E+03  0.17120483386E+03  0.00000000000E+00 0. -1.
         21   -1    0    0  504  502 -0.00000000000E+00 -0.00000000000E+00 -0.15095163904E+02  0.15095163904E+02  0.00000000000E+00 0. -1.
         21    1    1    2  503  501  0.20166349453E+02  0.57765879206E+00  0.16355560343E+03  0.16479517818E+03  0.00000000000E+00 0. -1.
         21    1    1    2  504  503 -0.20166349453E+02 -0.57765879206E+00 -0.74459334715E+01  0.21504819581E+02  0.00000000000E+00 0. -1.
</event>
<event>
 4    1  0.3048956E+006  0.2284564E+02  0.7546771E-02  0.1494446E+00
         21   -1    0    0  504  501  0.00000000000E+00  0.00000000000E+00  0.40341527411E+02  0.40341527411E+02  0.00000000000E+00 0.  1.
         21   -1    0    0  503  502 -0.00000000000E+00 -0.00000000000E+00 -0.67685788305E+02  0.67685788305E+02  0.00000000000E+00 0. -1.
         21    1    1    2  503  501 -0.22292902430E+01  0.22736615091E+02 -0.62250131001E+02  0.66309895268E+02  0.00000000000E+00 0. -1.
         21    1    1    2  504  502  0.22292902430E+01 -0.22736615091E+02  0.34905870108E+02  0.41717420447E+02  0.00000000000E+00 0.  1.
</event>
<event>
 4    1  0.3048956E+006  0.2929882E+02  0.7546771E-02  0.1425789E+00
         21   -1    0    0  504  501  0.00000000000E+00  0.00000000000E+00  0.23424994044E+02  0.23424994044E+02  0.00000000000E+00 0. -1.
         21   -1    0    0  501  502 -0.00000000000E+00 -0.00000000000E+00 -0.50477519280E+02  0.50477519280E+02  0.00000000000E+00 0.  1.
         21    1    1    2  503  502  0.21917991023E+02  0.19442799307E+02 -0.32869221082E+02  0.44031880154E+02  0.00000000000E+00 0.  1.
         21    1    1    2  504  503 -0.21917991023E+02 -0.19442799307E+02  0.58166958455E+01  0.29870633169E+02  0.00000000000E+00 0. -1.
</event>
<event>
 4    1  0.3048956E+006  0.2091980E+02  0.7546771E-02  0.1520413E+00
         21   -1    0    0  503  501  0.00000000000E+00  0.00000000000E+00  0.18781422901E+02  0.18781422901E+02  0.00000000000E+00 0. -1.
         21   -1    0    0  501  502 -0.00000000000E+00 -0.00000000000E+00 -0.91750820838E+02  0.91750820838E+02  0.00000000000E+00 0.  1.
         21    1    1    2  503  504 -0.19107743544E+02  0.85165862898E+01  0.11250431443E+02  0.23753111649E+02  0.00000000000E+00 0. -1.
         21    1    1    2  504  502  0.19107743544E+02 -0.85165862898E+01 -0.84219829380E+02  0.86779132090E+02  0.00000000000E+00 0.  1.
</event>
<event>
 4    1  0.3048956E+006  0.1041688E+03  0.7546771E-02  0.1156774E+00
         21   -1    0    0  503  501  0.00000000000E+00  0.00000000000E+00  0.63558059728E+02  0.63558059728E+02  0.00000000000E+00 0. -1.
         21   -1    0    0  504  502 -0.00000000000E+00 -0.00000000000E+00 -0.22961899902E+03  0.22961899902E+03  0.00000000000E+00 0. -1.
         21    1    1    2  503  502 -0.62232304155E+01  0.10398274642E+03 -0.87934454486E+01  0.10453929803E+03  0.00000000000E+00 0. -1.
         21    1    1    2  504  501  0.62232304155E+01 -0.10398274642E+03 -0.15726749384E+03  0.18863776072E+03  0.00000000000E+00 0. -1.
</event>
<event>
 4    1  0.3048956E+006  0.2250454E+02  0.7546771E-02  0.1498815E+00
         21   -1    0    0  503  501  0.00000000000E+00  0.00000000000E+00  0.16920539065E+02  0.16920539065E+02  0.00000000000E+00 0.  1.
         21   -1    0    0  504  502 -0.00000000000E+00 -0.00000000000E+00 -0.73659709603E+02  0.73659709603E+02  0.00000000000E+00 0. -1.
         21    1    1    2  503  502  0.12885639652E+02  0.18450323886E+02 -0.63265149655E+02  0.67148591360E+02  0.00000000000E+00 0. -1.
         21    1    1    2  504  501 -0.12885639652E+02 -0.18450323886E+02  0.65259791164E+01  0.23431657308E+02  0.00000000000E+00 0.  1.
</event>
<event>
 4    1  0.3048956E+006  0.2373696E+02  0.7546771E-02  0.1483446E+00
         21   -1    0    0  503  501  0.00000000000E+00  0.00000000000E+00  0.12772588884E+03  0.12772588884E+03  0.00000000000E+00 0.  1.
         21   -1    0    0  504  502 -0.00000000000E+00 -0.00000000000E+00 -0.84272030197E+01  0.84272030197E+01  0.00000000000E+00 0.  1.
         21    1    1    2  503  502 -0.19065421895E+02  0.14140468862E+02  0.12655077003E+02  0.26899705307E+02  0.00000000000E+00 0.  1.
         21    1    1    2  504  501  0.19065421895E+02 -0.14140468862E+02  0.10664360882E+03  0.10925338656E+03  0.00000000000E+00 0.  1.
</event>
<event>
 4    1  0.3048956E+006  0.3447347E+02  0.7546771E-02  0.1384303E+00
         21   -1    0    0  503  501  0.00000000000E+00  0.00000000000E+00  0.17262488526E+02  0.17262488526E+02  0.00000000000E+00 0. -1.
         21   -1    0    0  501  502 -0.00000000000E+00 -0.00000000000E+00 -0.93907093372E+02  0.93907093372E+02  0.00000000000E+00 0. -1.
         21    1    1    2  503  504 -0.31463232239E+02 -0.14088477998E+02 -0.96063388871E+01  0.35786896234E+02  0.00000000000E+00 0. -1.
         21    1    1    2  504  502  0.31463232239E+02  0.14088477998E+02 -0.67038265959E+02  0.75382685665E+02  0.00000000000E+00 0. -1.
</event>
<event>
 4    1  0.3048956E+006  0.8646413E+02  0.7546771E-02  0.1189587E+00
         21   -1    0    0  502  501  0.00000000000E+00  0.00000000000E+00  0.52064486929E+02  0.52064486929E+02  0.00000000000E+00 0.  1.
         21   -1    0    0  504  502 -0.00000000000E+00 -0.00000000000E+00 -0.32000711963E+03  0.32000711963E+03  0.00000000000E+00 0.  1.
         21    1    1    2  503  501 -0.86464123312E+02 -0.40951427060E-01  0.41575846259E+01  0.86564032988E+02  0.00000000000E+00 0.  1.
         21    1    1    2  504  503  0.86464123312E+02  0.40951427060E-01 -0.27210021733E+03  0.28550757357E+03  0.00000000000E+00 0.  1.
</event>
<event>
 4    1  0.3048956E+006  0.2747542E+02  0.7546771E-02  0.1442890E+00
         21   -1    0    0  503  501  0.00000000000E+00  0.00000000000E+00  0.40831167659E+02  0.40831167659E+02  0.00000000000E+00 0.  1.
         21   -1    0    0  504  502 -0.00000000000E+00 -0.00000000000E+00 -0.18851567527E+02  0.18851567527E+02  0.00000000000E+00 0.  1.
         21    1    1    2  503  502  0.25854835967E+02 -0.92965767028E+01  0.15132259032E+02  0.31366927562E+02  0.00000000000E+00 0.  1.
         21    1    1    2  504  501 -0.25854835967E+02  0.92965767028E+01  0.68473410997E+01  0.28315807624E+02  0.00000000000E+00 0.  1.
</event>
<event>
 4    1  0.3048956E+006  0.5185507E+02  0.7546771E-02  0.1290324E+00
         21   -1    0    0  503  501  0.00000000000E+00  0.00000000000E+00  0.10790174183E+02  0.10790174183E+02  0.00000000000E+00 0.  1.
         21   -1    0    0  504  502 -0.00000000000E+00 -0.00000000000E+00 -0.41780385686E+03  0.41780385686E+03  0.00000000000E+00 0.  1.
         21    1    1    2  503  502 -0.20651131093E+02  0.47565526982E+02 -0.67375157423E+02  0.85019764822E+02  0.00000000000E+00 0.  1.
         21    1    1    2  504  501  0.20651131093E+02 -0.47565526982E+02 -0.33963852526E+03  0.34357426622E+03  0.00000000000E+00 0.  1.
</event>
<event>
 4    1  0.3048956E+006  0.2361927E+02  0.7546771E-02  0.1484865E+00
         21   -1    0    0  504  501  0.00000000000E+00  0.00000000000E+00  0.50156191052E+02  0.50156191052E+02  0.00000000000E+00 0. -1.
         21   -1    0    0  503  502 -0.00000000000E+00 -0.00000000000E+00 -0.16755463005E+02  0.16755463005E+02  0.00000000000E+00 0.  1.
         21    1    1    2  503  501 -0.36560943173E+01  0.23334588423E+02  0.36098321463E+02  0.43138832332E+02  0.00000000000E+00 0. -1.
         21    1    1    2  504  502  0.36560943173E+01 -0.23334588423E+02 -0.26975934166E+01  0.23772821725E+02  0.00000000000E+00 0.  1.
</event>
<event>
 4    1  0.3048956E+006  0.3232266E+02  0.7546771E-02  0.1400430E+00
         21   -1    0    0  502  501  0.00000000000E+00  0.00000000000E+00  0.58898292124E+03  0.58898292124E+03  0.00000000000E+00 0.  1.
         21   -1    0    0  504  502 -0.00000000000E+00 -0.00000000000E+00 -0.11835507673E+02  0.11835507673E+02  0.00000000000E+00 0.  1.
         21    1    1    2  503  501  0.31062664896E+02 -0.89367507564E+01  0.56555793313E+03  0.56648082967E+03  0.00000000000E+00 0.  1.
         21    1    1    2  504  503 -0.31062664896E+02  0.89367507564E+01  0.11589480436E+02  0.34337599236E+02  0.00000000000E+00 0.  1.
</event>
<event>
 4    1  0.3048956E+006  0.5651243E+02  0.7546771E-02  0.1272166E+00
         21   -1    0    0  503  501  0.00000000000E+00  0.00000000000E+00  0.57552931358E+02  0.57552931358E+02  0.00000000000E+00 0.  1.
         21   -1    0    0  504  502 -0.00000000000E+00 -0.00000000000E+00 -0.29773230877E+03  0.29773230877E+03  0.00000000000E+00 0.  1.
         21    1    1    2  503  502  0.55200427356E+02  0.12106515201E+02 -0.28032510772E+03  0.28596471970E+03  0.00000000000E+00 0.  1.
         21    1    1    2  504  501 -0.55200427356E+02 -0.12106515201E+02  0.40145730312E+02  0.69320520431E+02  0.00000000000E+00 0.  1.
</event>
<event>
 4    1  0.3048956E+006  0.2228311E+02  0.7546771E-02  0.1501702E+00
         21   -1    0    0  503  501  0.00000000000E+00  0.00000000000E+00  0.84635655413E+01  0.84635655413E+01  0.00000000000E+00 0.  1.
         21   -1    0    0  501  502 -0.00000000000E+00 -0.00000000000E+00 -0.59014764265E+02  0.59014764265E+02  0.00000000000E+00 0.  1.
         21    1    1    2  503  504 -0.13356520638E+02  0.17836493764E+02 -0.27863311196E+02  0.35677741858E+02  0.00000000000E+00 0.  1.
         21    1    1    2  504  502  0.13356520638E+02 -0.17836493764E+02 -0.22687887528E+02  0.31800587948E+02  0.00000000000E+00 0.  1.
</event>
<event>
 4    1  0.3048956E+006  0.2541572E+02  0.7546771E-02  0.1464206E+00
         21   -1    0    0  504  501  0.00000000000E+00  0.00000000000E+00  0.18159233251E+04  0.18159233251E+04  0.00000000000E+00 0. -1.
         21   -1    0    0  503  502 -0.00000000000E+00 -0.00000000000E+00 -0.42893020409E+00  0.42893020409E+00  0.00000000000E+00 0. -1.
         21    1    1    2  503  501  0.21353742660E+02 -0.13783189512E+02  0.12829492453E+04  0.12832009681E+04  0.00000000000E+00 0. -1.
         21    1    1    2  504  502 -0.21353742660E+02  0.13783189512E+02  0.53254514966E+03  0.53315128722E+03  0.00000000000E+00 0. -1.
</event>
<event>
 4    1  0.3048956E+006  0.2558433E+02  0.7546771E-02  0.1462372E+00
         21   -1    0    0  503  501  0.00000000000E+00  0.00000000000E+00  0.30388012776E+03  0.30388012776E+03  0.00000000000E+00 0.  1.
         21   -1    0    0  504  502 -0.00000000000E+00 -0.00000000000E+00 -0.96116685168E+02  0.96116685168E+02  0.00000000000E+00 0. -1.
         21    1    1    2  503  502 -0.25316949300E+02  0.36891426771E+01 -0.93862979189E+02  0.97287288778E+02  0.00000000000E+00 0. -1.
         21    1    1    2  504  501  0.25316949300E+02 -0.36891426771E+01  0.30162642178E+03  0.30270952415E+03  0.00000000000E+00 0.  1.
</event>
<event>
 4    1  0.3048956E+006  0.2126279E+02  0.7546771E-02  0.1515546E+00
         21   -1    0    0  503  501  0.00000000000E+00  0.00000000000E+00  0.22565810102E+03  0.22565810102E+03  0.00000000000E+00 0.  1.
         21   -1    0    0  504  502 -0.00000000000E+00 -0.00000000000E+00 -0.60576162103E+01  0.60576162103E+01  0.00000000000E+00 0.  1.
         21    1    1    2  503  502 -0.21257565465E+02 -0.47154769470E+00  0.20458153169E+03  0.20568351795E+03  0.00000000000E+00 0.  1.
         21    1    1    2  504  501  0.21257565465E+02  0.47154769470E+00  0.15018953122E+02  0.26032199284E+02  0.00000000000E+00 0.  1.
</event>
