<event>
 4    1  0.5465458E+003  0.2122183E+02  0.7546771E-02  0.1516121E+00
          2   -1    0    0  501    0  0.00000000000E+00  0.00000000000E+00  0.50710371660E+02  0.50710371660E+02  0.00000000000E+00 0. -1.
         -2   -1    0    0    0  501 -0.00000000000E+00 -0.00000000000E+00 -0.12794585937E+03  0.12794585937E+03  0.00000000000E+00 0.  1.
          2    1    1    2  502    0  0.18767560554E+02  0.99067994697E+01  0.47554340364E+02  0.52074766368E+02  0.00000000000E+00 0. -1.
         -2    1    1    2    0  502 -0.18767560554E+02 -0.99067994697E+01 -0.12478982807E+03  0.12658146466E+03  0.00000000000E+00 0.  1.
</event>
<event>
 4    1  0.5465458E+003  0.3012607E+02  0.7546771E-02  0.1418504E+00
          2   -1    0    0  501    0  0.00000000000E+00  0.00000000000E+00  0.69860850751E+01  0.69860850751E+01  0.00000000000E+00 0. -1.
         -2   -1    0    0    0  501 -0.00000000000E+00 -0.00000000000E+00 -0.21416282641E+03  0.21416282641E+03  0.00000000000E+00 0.  1.
          2    1    1    2  502    0  0.24859103348E+01 -0.30023327099E+02 -0.34234850592E+02  0.45602685397E+02  0.00000000000E+00 0. -1.
         -2    1    1    2    0  502 -0.24859103348E+01  0.30023327099E+02 -0.17294189074E+03  0.17554622609E+03  0.00000000000E+00 0.  1.
</event>
<event>
 4    1  0.5465458E+003  0.2506842E+02  0.7546771E-02  0.1468039E+00
          2   -1    0    0  501    0  0.00000000000E+00  0.00000000000E+00  0.64143643745E+02  0.64143643745E+02  0.00000000000E+00 0. -1.
         -2   -1    0    0    0  501 -0.00000000000E+00 -0.00000000000E+00 -0.30605098718E+02  0.30605098718E+02  0.00000000000E+00 0.  1.
          2    1    1    2  502    0  0.45744462116E+01  0.24647516711E+02  0.55831866606E+02  0.61201494809E+02  0.00000000000E+00 0. -1.
         -2    1    1    2    0  502 -0.45744462116E+01 -0.24647516711E+02 -0.22293321579E+02  0.33547247654E+02  0.00000000000E+00 0.  1.
</event>
<event>
 4    1  0.5465458E+003  0.2515947E+02  0.7546771E-02  0.1467027E+00
          2   -1    0    0  501    0  0.00000000000E+00  0.00000000000E+00  0.53548587103E+03  0.53548587103E+03  0.00000000000E+00 0. -1.
         -2   -1    0    0    0  501 -0.00000000000E+00 -0.00000000000E+00 -0.59109293605E+01  0.59109293605E+01  0.00000000000E+00 0.  1.
          2    1    1    2  502    0 -0.16509634703E+02 -0.18985014421E+02  0.50690963291E+03  0.50753361933E+03  0.00000000000E+00 0. -1.
         -2    1    1    2    0  502  0.16509634703E+02  0.18985014421E+02  0.22665308761E+02  0.33863181065E+02  0.00000000000E+00 0.  1.
</event>
<event>
 4    1  0.5465458E+003  0.2644613E+02  0.7546771E-02  0.1453253E+00
          2   -1    0    0  501    0  0.00000000000E+00  0.00000000000E+00  0.10070295173E+03  0.10070295173E+03  0.00000000000E+00 0. -1.
         -2   -1    0    0    0  501 -0.00000000000E+00 -0.00000000000E+00 -0.44271776543E+02  0.44271776543E+02  0.00000000000E+00 0. -1.
          2    1    1    2  502    0  0.24443063259E+02 -0.10096267039E+02  0.94774797021E+02  0.98395427231E+02  0.00000000000E+00 0. -1.
         -2    1    1    2    0  502 -0.24443063259E+02  0.10096267039E+02 -0.38343621838E+02  0.46579301039E+02  0.00000000000E+00 0. -1.
</event>
<event>
 4    1  0.5465458E+003  0.3891170E+02  0.7546771E-02  0.1354984E+00
          2   -1    0    0  501    0  0.00000000000E+00  0.00000000000E+00  0.67869700191E+03  0.67869700191E+03  0.00000000000E+00 0.  1.
         -2   -1    0    0    0  501 -0.00000000000E+00 -0.00000000000E+00 -0.22326636245E+01  0.22326636245E+01  0.00000000000E+00 0.  1.
          2    1    1    2  502    0 -0.16935737759E+02  0.35032858252E+02  0.34774003727E+03  0.34991035122E+03  0.00000000000E+00 0.  1.
         -2    1    1    2    0  502  0.16935737759E+02 -0.35032858252E+02  0.32872430102E+03  0.33101931432E+03  0.00000000000E+00 0.  1.
</event>
<event>
 4    1  0.5465458E+003  0.2159765E+02  0.7546771E-02  0.1510900E+00
          2   -1    0    0  501    0  0.00000000000E+00  0.00000000000E+00  0.36088269249E+03  0.36088269249E+03  0.00000000000E+00 0. -1.
         -2   -1    0    0    0  501 -0.00000000000E+00 -0.00000000000E+00 -0.21374737495E+01  0.21374737495E+01  0.00000000000E+00 0. -1.
          2    1    1    2  502    0 -0.19605841714E+02  0.90592181573E+01  0.29349200107E+03  0.29428559794E+03  0.00000000000E+00 0. -1.
         -2    1    1    2    0  502  0.19605841714E+02 -0.90592181573E+01  0.65253217671E+02  0.68734568300E+02  0.00000000000E+00 0. -1.
</event>
<event>
 4    1  0.5465458E+003  0.2530005E+02  0.7546771E-02  0.1465475E+00
          2   -1    0    0  501    0  0.00000000000E+00  0.00000000000E+00  0.38599601278E+03  0.38599601278E+03  0.00000000000E+00 0. -1.
         -2   -1    0    0    0  501 -0.00000000000E+00 -0.00000000000E+00 -0.18478054000E+01  0.18478054000E+01  0.00000000000E+00 0. -1.
          2    1    1    2  502    0 -0.15516653554E+02  0.19983140211E+02  0.25417869102E+03  0.25543472630E+03  0.00000000000E+00 0. -1.
         -2    1    1    2    0  502  0.15516653554E+02 -0.19983140211E+02  0.12996951636E+03  0.13240909188E+03  0.00000000000E+00 0. -1.
</event>
<event>
 4    1  0.5465458E+003  0.2266367E+02  0.7546771E-02  0.1496765E+00
          2   -1    0    0  501    0  0.00000000000E+00  0.00000000000E+00  0.36782551387E+02  0.36782551387E+02  0.00000000000E+00 0.  1.
         -2   -1    0    0    0  501 -0.00000000000E+00 -0.00000000000E+00 -0.11016919795E+03  0.11016919795E+03  0.00000000000E+00 0.  1.
          2    1    1    2  502    0 -0.21859702741E+02 -0.59829227793E+01  0.31968178802E+02  0.39186814425E+02  0.00000000000E+00 0.  1.
         -2    1    1    2    0  502  0.21859702741E+02  0.59829227793E+01 -0.10535482536E+03  0.10776493491E+03  0.00000000000E+00 0.  1.
</event>
<event>
 4    1  0.5465458E+003  0.2650875E+02  0.7546771E-02  0.1452606E+00
          2   -1    0    0  501    0  0.00000000000E+00  0.00000000000E+00  0.56686754263E+03  0.56686754263E+03  0.00000000000E+00 0. -1.
         -2   -1    0    0    0  501 -0.00000000000E+00 -0.00000000000E+00 -0.12587760529E+03  0.12587760529E+03  0.00000000000E+00 0. -1.
          2    1    1    2  502    0  0.49984185625E+01 -0.26033244787E+02  0.56515778220E+03  0.56577913783E+03  0.00000000000E+00 0. -1.
         -2    1    1    2    0  502 -0.49984185625E+01  0.26033244787E+02 -0.12416784485E+03  0.12696601009E+03  0.00000000000E+00 0. -1.
</event>
<event>
 4    1  0.5465458E+003  0.5051640E+02  0.7546771E-02  0.1295949E+00
          2   -1    0    0  501    0  0.00000000000E+00  0.00000000000E+00  0.33382466339E+03  0.33382466339E+03  0.00000000000E+00 0.  1.
         -2   -1    0    0    0  501 -0.00000000000E+00 -0.00000000000E+00 -0.76644659008E+01  0.76644659008E+01  0.00000000000E+00 0.  1.
          2    1    1    2  502    0  0.38469990078E+02  0.32740895167E+02  0.17180539837E+03  0.17907819873E+03  0.00000000000E+00 0.  1.
         -2    1    1    2    0  502 -0.38469990078E+02 -0.32740895167E+02  0.15435479912E+03  0.16241093056E+03  0.00000000000E+00 0.  1.
</event>
<event>
 4    1  0.5465458E+003  0.4691673E+02  0.7546771E-02  0.1312124E+00
          2   -1    0    0  501    0  0.00000000000E+00  0.00000000000E+00  0.10822912585E+03  0.10822912585E+03  0.00000000000E+00 0. -1.
         -2   -1    0    0    0  501 -0.00000000000E+00 -0.00000000000E+00 -0.79848312121E+02  0.79848312121E+02  0.00000000000E+00 0. -1.
          2    1    1    2  502    0  0.17842823782E+02  0.43391397198E+02  0.95374214668E+02  0.10628932465E+03  0.00000000000E+00 0. -1.
         -2    1    1    2    0  502 -0.17842823782E+02 -0.43391397198E+02 -0.66993400938E+02  0.81788113320E+02  0.00000000000E+00 0. -1.
</event>
<event>
 4    1  0.5465458E+003  0.2269833E+02  0.7546771E-02  0.1496321E+00
          2   -1    0    0  501    0  0.00000000000E+00  0.00000000000E+00  0.60076484869E+03  0.60076484869E+03  0.00000000000E+00 0. -1.
         -2   -1    0    0    0  501 -0.00000000000E+00 -0.00000000000E+00 -0.24452077336E+01  0.24452077336E+01  0.00000000000E+00 0.  1.
          2    1    1    2  502    0 -0.34105623654E+01  0.22440636539E+02  0.54218580818E+03  0.54266072706E+03  0.00000000000E+00 0. -1.
         -2    1    1    2    0  502  0.34105623654E+01 -0.22440636539E+02  0.56133832776E+02  0.60549329361E+02  0.00000000000E+00 0.  1.
</event>
<event>
 4    1  0.5465458E+003  0.2838069E+02  0.7546771E-02  0.1434211E+00
          2   -1    0    0  501    0  0.00000000000E+00  0.00000000000E+00  0.11666473117E+04  0.11666473117E+04  0.00000000000E+00 0.  1.
         -2   -1    0    0    0  501 -0.00000000000E+00 -0.00000000000E+00 -0.78762012696E+00  0.78762012696E+00  0.00000000000E+00 0. -1.
          2    1    1    2  502    0  0.15730664814E+00 -0.28380250489E+02  0.78800031172E+03  0.78851122670E+03  0.00000000000E+00 0.  1.
         -2    1    1    2    0  502 -0.15730664814E+00  0.28380250489E+02  0.37785937983E+03  0.37892370510E+03  0.00000000000E+00 0. -1.
</event>
<event>
 4    1  0.5465458E+003  0.2404096E+02  0.7546771E-02  0.1479825E+00
          2   -1    0    0  501    0  0.00000000000E+00  0.00000000000E+00  0.29223365876E+03  0.29223365876E+03  0.00000000000E+00 0.  1.
         -2   -1    0    0    0  501 -0.00000000000E+00 -0.00000000000E+00 -0.16671165638E+04  0.16671165638E+04  0.00000000000E+00 0. -1.
          2    1    1    2  502    0 -0.24040713363E+02  0.10862147516E+00  0.29165237485E+03  0.29264154772E+03  0.00000000000E+00 0.  1.
         -2    1    1    2    0  502  0.24040713363E+02 -0.10862147516E+00 -0.16665352799E+04  0.16667086749E+04  0.00000000000E+00 0. -1.
</event>
<event>
 4    1  0.5465458E+003  0.4164499E+02  0.7546771E-02  0.1339107E+00
          2   -1    0    0  501    0  0.00000000000E+00  0.00000000000E+00  0.22449898322E+04  0.22449898322E+04  0.00000000000E+00 0.  1.
         -2   -1    0    0    0  501 -0.00000000000E+00 -0.00000000000E+00 -0.92943732111E+00  0.92943732111E+00  0.00000000000E+00 0. -1.
          2    1    1    2  502    0  0.19474269051E+02  0.36811116525E+02  0.15834390172E+04  0.15839865614E+04  0.00000000000E+00 0.  1.
         -2    1    1    2    0  502 -0.19474269051E+02 -0.36811116525E+02  0.66062137768E+03  0.66193270813E+03  0.00000000000E+00 0. -1.
</event>
<event>
 4    1  0.5465458E+003  0.2531373E+02  0.7546771E-02  0.1465324E+00
          2   -1    0    0  501    0  0.00000000000E+00  0.00000000000E+00  0.69433828849E+03  0.69433828849E+03  0.00000000000E+00 0.  1.
         -2   -1    0    0    0  501 -0.00000000000E+00 -0.00000000000E+00 -0.11463477417E+02  0.11463477417E+02  0.00000000000E+00 0.  1.
          2    1    1    2  502    0  0.19372660738E+02  0.16293711240E+02  0.67983505959E+03  0.68030617611E+03  0.00000000000E+00 0.  1.
         -2    1    1    2    0  502 -0.19372660738E+02 -0.16293711240E+02  0.30397514880E+01  0.25495589798E+02  0.00000000000E+00 0.  1.
</event>
<event>
 4    1  0.5465458E+003  0.2416944E+02  0.7546771E-02  0.1478313E+00
          2   -1    0    0  501    0  0.00000000000E+00  0.00000000000E+00  0.36837311043E+03  0.36837311043E+03  0.00000000000E+00 0. -1.
         -2   -1    0    0    0  501 -0.00000000000E+00 -0.00000000000E+00 -0.10830319642E+02  0.10830319642E+02  0.00000000000E+00 0. -1.
          2    1    1    2  502    0  0.13620864699E+02  0.19965822348E+02  0.35394314107E+03  0.35476740144E+03  0.00000000000E+00 0. -1.
         -2    1    1    2    0  502 -0.13620864699E+02 -0.19965822348E+02  0.35996497213E+01  0.24436028632E+02  0.00000000000E+00 0. -1.
</event>
<event>
 4    1  0.5465458E+003  0.2402295E+02  0.7546771E-02  0.1480037E+00
          2   -1    0    0  501    0  0.00000000000E+00  0.00000000000E+00  0.96496618714E+02  0.96496618714E+02  0.00000000000E+00 0. -1.
         -2   -1    0    0    0  501 -0.00000000000E+00 -0.00000000000E+00 -0.83919646468E+02  0.83919646468E+02  0.00000000000E+00 0. -1.
          2    1    1    2  502    0 -0.21361662001E+02  0.10990071241E+02  0.93222867888E+02  0.96268402742E+02  0.00000000000E+00 0. -1.
         -2    1    1    2    0  502  0.21361662001E+02 -0.10990071241E+02 -0.80645895642E+02  0.84147862440E+02  0.00000000000E+00 0. -1.
</event>
<event>
 4    1  0.5465458E+003  0.2076971E+02  0.7546771E-02  0.1522578E+00
          2   -1    0    0  501    0  0.00000000000E+00  0.00000000000E+00  0.14496635864E+04  0.14496635864E+04  0.00000000000E+00 0. -1.
         -2   -1    0    0    0  501 -0.00000000000E+00 -0.00000000000E+00 -0.79908846772E+00  0.79908846772E+00  0.00000000000E+00 0. -1.
          2    1    1    2  502    0 -0.19795602348E+02 -0.62860998700E+01  0.12989735349E+04  0.12991395712E+04  0.00000000000E+00 0. -1.
         -2    1    1    2    0  502  0.19795602348E+02  0.62860998700E+01  0.14989096302E+03  0.15132310372E+03  0.00000000000E+00 0. -1.
</event>
<event>
 4    1  0.5465458E+003  0.2915875E+02  0.7546771E-02  0.1427050E+00
          2   -1    0    0  501    0  0.00000000000E+00  0.00000000000E+00  0.29486487643E+02  0.29486487643E+02  0.00000000000E+00 0.  1.
         -2   -1    0    0    0  501 -0.00000000000E+00 -0.00000000000E+00 -0.34694000953E+02  0.34694000953E+02  0.00000000000E+00 0.  1.
          2    1    1    2  502    0 -0.16037098239E+02  0.24352499578E+02  0.10583981900E+02  0.31020210000E+02  0.00000000000E+00 0.  1.
         -2    1    1    2    0  502  0.16037098239E+02 -0.24352499578E+02 -0.15791495209E+02  0.33160278596E+02  0.00000000000E+00 0.  1.
</event>
<event>
 4    1  0.5465458E+003  0.2153770E+02  0.7546771E-02  0.1511725E+00
          2   -1    0    0  501    0  0.00000000000E+00  0.00000000000E+00  0.24799947227E+03  0.24799947227E+03  0.00000000000E+00 0. -1.
         -2   -1    0    0    0  501 -0.00000000000E+00 -0.00000000000E+00 -0.52115855984E+01  0.52115855984E+01  0.00000000000E+00 0. -1.
          2    1    1    2  502    0  0.39357995845E+01  0.21175035613E+02  0.22276506475E+03  0.22380381303E+03  0.00000000000E+00 0. -1.
         -2    1    1    2    0  502 -0.39357995845E+01 -0.21175035613E+02  0.20022821921E+02  0.29407244843E+02  0.00000000000E+00 0. -1.
</event>
<event>
 4    1  0.5465458E+003  0.3234633E+02  0.7546771E-02  0.1400245E+00
          2   -1    0    0  501    0  0.00000000000E+00  0.00000000000E+00  0.18217607006E+03  0.18217607006E+03  0.00000000000E+00 0.  1.
         -2   -1    0    0    0  501 -0.00000000000E+00 -0.00000000000E+00 -0.26565013653E+02  0.26565013653E+02  0.00000000000E+00 0. -1.
          2    1    1    2  502    0 -0.11252285121E+01  0.32326752569E+02  0.17020756360E+03  0.17325385934E+03  0.00000000000E+00 0.  1.
         -2    1    1    2    0  502  0.11252285121E+01 -0.32326752569E+02 -0.14596507196E+02  0.35487224366E+02  0.00000000000E+00 0. -1.
</event>
<event>
 4    1  0.5465458E+003  0.2541314E+02  0.7546771E-02  0.1464234E+00
          2   -1    0    0  501    0  0.00000000000E+00  0.00000000000E+00  0.24248141133E+03  0.24248141133E+03  0.00000000000E+00 0.  1.
         -2   -1    0    0    0  501 -0.00000000000E+00 -0.00000000000E+00 -0.35516322558E+02  0.35516322558E+02  0.00000000000E+00 0. -1.
          2    1    1    2  502    0 -0.85154517354E+01 -0.23943996651E+02  0.23716800912E+03  0.23852566412E+03  0.00000000000E+00 0.  1.
         -2    1    1    2    0  502  0.85154517354E+01  0.23943996651E+02 -0.30202920351E+02  0.39472069766E+02  0.00000000000E+00 0. -1.
</event>
<event>
 4    1  0.5465458E+003  0.2119340E+02  0.7546771E-02  0.1516521E+00
          2   -1    0    0  501    0  0.00000000000E+00  0.00000000000E+00  0.10444486928E+04  0.10444486928E+04  0.00000000000E+00 0.  1.
         -2   -1    0    0    0  501 -0.00000000000E+00 -0.00000000000E+00 -0.54060969382E+01  0.54060969382E+01  0.00000000000E+00 0. -1.
          2    1    1    2  502    0 -0.21168834683E+02 -0.10200986745E+01  0.10231375850E+04  0.10233570628E+04  0.00000000000E+00 0.  1.
         -2    1    1    2    0  502  0.21168834683E+02  0.10200986745E+01  0.15905010922E+02  0.26497726988E+02  0.00000000000E+00 0. -1.
</event>
<event>
 4    1  0.5465458E+003  0.4215486E+02  0.7546771E-02  0.1336301E+00
          2   -1    0    0  501    0  0.00000000000E+00  0.00000000000E+00  0.34504157711E+03  0.34504157711E+03  0.00000000000E+00 0.  1.
         -2   -1    0    0    0  501 -0.00000000000E+00 -0.00000000000E+00 -0.26227939565E+02  0.26227939565E+02  0.00000000000E+00 0. -1.
          2    1    1    2  502    0  0.38378646633E+02 -0.17438787195E+02  0.32582059136E+03  0.32853628349E+03  0.00000000000E+00 0.  1.
         -2    1    1    2    0  502 -0.38378646633E+02  0.17438787195E+02 -0.70069538191E+01  0.42733233180E+02  0.00000000000E+00 0. -1.
</event>
<event>
 4    1  0.5465458E+003  0.2241646E+02  0.7546771E-02  0.1499959E+00
          2   -1    0    0  501    0  0.00000000000E+00  0.00000000000E+00  0.31279200448E+03  0.31279200448E+03  0.00000000000E+00 0. -1.
         -2   -1    0    0    0  501 -0.00000000000E+00 -0.00000000000E+00 -0.35034025267E+02  0.35034025267E+02  0.00000000000E+00 0.  1.
          2    1    1    2  502    0  0.19636716466E+02 -0.10811902006E+02  0.30875780707E+03  0.30957047871E+03  0.00000000000E+00 0. -1.
         -2    1    1    2    0  502 -0.19636716466E+02  0.10811902006E+02 -0.30999827856E+02  0.38255551044E+02  0.00000000000E+00 0.  1.
</event>
<event>
 4    1  0.5465458E+003  0.3118633E+02  0.7546771E-02  0.1409560E+00
          2   -1    0    0  501    0  0.00000000000E+00  0.00000000000E+00  0.11101678521E+02  0.11101678521E+02  0.00000000000E+00 0.  1.
         -2   -1    0    0    0  501 -0.00000000000E+00 -0.00000000000E+00 -0.93975450331E+02  0.93975450331E+02  0.00000000000E+00 0. -1.
          2    1    1    2  502    0 -0.16062994869E+02  0.26731393949E+02 -0.27760218961E+02  0.41751850059E+02  0.00000000000E+00 0.  1.
         -2    1    1    2    0  502  0.16062994869E+02 -0.26731393949E+02 -0.55113552849E+02  0.63325278793E+02  0.00000000000E+00 0. -1.
</event>
<event>
 4    1  0.5465458E+003  0.2100152E+02  0.7546771E-02  0.1519243E+00
          2   -1    0    0  501    0  0.00000000000E+00  0.00000000000E+00  0.21111677353E+03  0.21111677353E+03  0.00000000000E+00 0. -1.
         -2   -1    0    0    0  501 -0.00000000000E+00 -0.00000000000E+00 -0.21181262365E+01  0.21181262365E+01  0.00000000000E+00 0. -1.
          2    1    1    2  502    0 -0.20856888737E+02  0.24605315802E+01  0.11695992099E+03  0.11883049752E+03  0.00000000000E+00 0. -1.
         -2    1    1    2    0  502  0.20856888737E+02 -0.24605315802E+01  0.92038726299E+02  0.94404402239E+02  0.00000000000E+00 0. -1.
</event>
<event>
 4    1  0.5465458E+003  0.3701616E+02  0.7546771E-02  0.1366918E+00
          2   -1    0    0  501    0  0.00000000000E+00  0.00000000000E+00  0.57815405134E+03  0.57815405134E+03  0.00000000000E+00 0.  1.
         -2   -1    0    0    0  501 -0.00000000000E+00 -0.00000000000E+00 -0.63543157761E+01  0.63543157761E+01  0.00000000000E+00 0.  1.
          2    1    1    2  502    0 -0.36088639193E+02 -0.82344337544E+01  0.51732258040E+03  0.51864520433E+03  0.00000000000E+00 0.  1.
         -2    1    1    2    0  502  0.36088639193E+02  0.82344337544E+01  0.54477155163E+02  0.65863162790E+02  0.00000000000E+00 0.  1.
</event>
<event>
 4    1  0.5465458E+003  0.2420221E+02  0.7546771E-02  0.1477930E+00
          2   -1    0    0  501    0  0.00000000000E+00  0.00000000000E+00  0.34060301279E+03  0.34060301279E+03  0.00000000000E+00 0. -1.
         -2   -1    0    0    0  501 -0.00000000000E+00 -0.00000000000E+00 -0.44080397142E+01  0.44080397142E+01  0.00000000000E+00 0.  1.
          2    1    1    2  502    0 -0.15818564645E+02  0.18317198063E+02  0.30281360306E+03  0.30377923716E+03  0.00000000000E+00 0. -1.
         -2    1    1    2    0  502  0.15818564645E+02 -0.18317198063E+02  0.33381370016E+02  0.41231815343E+02  0.00000000000E+00 0.  1.
</event>
<event>
 4    1  0.5465458E+003  0.2005682E+02  0.7546771E-02  0.1533169E+00
          2   -1    0    0  501    0  0.00000000000E+00  0.00000000000E+00  0.13677622517E+04  0.13677622517E+04  0.00000000000E+00 0. -1.
         -2   -1    0    0    0  501 -0.00000000000E+00 -0.00000000000E+00 -0.24133182848E+02  0.24133182848E+02  0.00000000000E+00 0.  1.
          2    1    1    2  502    0  0.98800482146E+01  0.17454535339E+02  0.13635084722E+04  0.13636559793E+04  0.00000000000E+00 0. -1.
         -2    1    1    2    0  502 -0.98800482146E+01 -0.17454535339E+02 -0.19879403326E+02  0.28239455257E+02  0.00000000000E+00 0.  1.
</event>
<event>
 4    1  0.5465458E+003  0.2235892E+02  0.7546771E-02  0.1500709E+00
          2   -1    0    0  501    0  0.00000000000E+00  0.00000000000E+00  0.11876118997E+04  0.11876118997E+04  0.00000000000E+00 0.  1.
         -2   -1    0    0    0  501 -0.00000000000E+00 -0.00000000000E+00 -0.16748178236E+01  0.16748178236E+01  0.00000000000E+00 0. -1.
          2    1    1    2  502    0  0.53375243818E+01  0.21712485061E+02  0.11074849810E+04  0.11077106591E+04  0.00000000000E+00 0.  1.
         -2    1    1    2    0  502 -0.53375243818E+01 -0.21712485061E+02  0.78452100923E+02  0.81576058456E+02  0.00000000000E+00 0. -1.
</event>
<event>
 4    1  0.5465458E+003  0.2480097E+02  0.7546771E-02  0.1471042E+00
          2   -1    0    0  501    0  0.00000000000E+00  0.00000000000E+00  0.45792142858E+01  0.45792142858E+01  0.00000000000E+00 0.  1.
         -2   -1    0    0    0  501 -0.00000000000E+00 -0.00000000000E+00 -0.42997114012E+03  0.42997114012E+03  0.00000000000E+00 0.  1.
          2    1    1    2  502    0 -0.24388855356E+02 -0.45024255309E+01 -0.32527427040E+02  0.40903809249E+02  0.00000000000E+00 0.  1.
         -2    1    1    2    0  502  0.24388855356E+02  0.45024255309E+01 -0.39286449880E+03  0.39364654516E+03  0.00000000000E+00 0.  1.
</event>
<event>
 4    1  0.5465458E+003  0.2116564E+02  0.7546771E-02  0.1516913E+00
          2   -1    0    0  501    0  0.00000000000E+00  0.00000000000E+00  0.58963672385E+03  0.58963672385E+03  0.00000000000E+00 0. -1.
         -2   -1    0    0    0  501 -0.00000000000E+00 -0.00000000000E+00 -0.27651518820E+01  0.27651518820E+01  0.00000000000E+00 0. -1.
          2    1    1    2  502    0  0.10863602737E+02  0.18164973347E+02  0.54568292174E+03  0.54609324772E+03  0.00000000000E+00 0. -1.
         -2    1    1    2    0  502 -0.10863602737E+02 -0.18164973347E+02  0.41188650219E+02  0.46308628008E+02  0.00000000000E+00 0. -1.
</event>
<event>
 4    1  0.5465458E+003  0.2468988E+02  0.7546771E-02  0.1472303E+00
          2   -1    0    0  501    0  0.00000000000E+00  0.00000000000E+00  0.19542638539E+03  0.19542638539E+03  0.00000000000E+00 0. -1.
         -2   -1    0    0    0  501 -0.00000000000E+00 -0.00000000000E+00 -0.13328895598E+02  0.13328895598E+02  0.00000000000E+00 0. -1.
          2    1    1    2  502    0  0.74867682628E+01 -0.23527394005E+02  0.18240011158E+03  0.18406355064E+03  0.00000000000E+00 0. -1.
         -2    1    1    2    0  502 -0.74867682628E+01  0.23527394005E+02 -0.30262179374E+00  0.24691730349E+02  0.00000000000E+00 0. -1.
</event>
<event>
 4    1  0.5465458E+003  0.3201242E+02  0.7546771E-02  0.1402878E+00
          2   -1    0    0  501    0  0.00000000000E+00  0.00000000000E+00  0.20490261295E+04  0.20490261295E+04  0.00000000000E+00 0. -1.
         -2   -1    0    0    0  501 -0.00000000000E+00 -0.00000000000E+00 -0.16253608543E+02  0.16253608543E+02  0.00000000000E+00 0.  1.
          2    1    1    2  502    0 -0.18391939309E+01  0.31959543131E+02  0.20330143818E+04  0.20332664045E+04  0.00000000000E+00 0. -1.
         -2    1    1    2    0  502  0.18391939309E+01 -0.31959543131E+02 -0.24186079537E+00  0.32013333599E+02  0.00000000000E+00 0.  1.
</event>
<event>
 4    1  0.5465458E+003  0.2025762E+02  0.7546771E-02  0.1530133E+00
          2   -1    0    0  501    0  0.00000000000E+00  0.00000000000E+00  0.65808277699E+02  0.65808277699E+02  0.00000000000E+00 0.  1.
         -2   -1    0    0    0  501 -0.00000000000E+00 -0.00000000000E+00 -0.20614133405E+03  0.20614133405E+03  0.00000000000E+00 0. -1.
          2    1    1    2  502    0 -0.10899747319E+02  0.17075326838E+02  0.63735837081E+02  0.66877710836E+02  0.00000000000E+00 0.  1.
         -2    1    1    2    0  502  0.10899747319E+02 -0.17075326838E+02 -0.20406889343E+03  0.20507190091E+03  0.00000000000E+00 0. -1.
</event>
<event>
 4    1  0.5465458E+003  0.4452738E+02  0.7546771E-02  0.1323820E+00
          2   -1    0    0  501    0  0.00000000000E+00  0.00000000000E+00  0.66215411352E+03  0.66215411352E+03  0.00000000000E+00 0.  1.
         -2   -1    0    0    0  501 -0.00000000000E+00 -0.00000000000E+00 -0.34400008380E+01  0.34400008380E+01  0.00000000000E+00 0. -1.
          2    1    1    2  502    0 -0.37258419798E+02 -0.24382321093E+02  0.44914756117E+03  0.45134933160E+03  0.00000000000E+00 0.  1.
         -2    1    1    2    0  502  0.37258419798E+02  0.24382321093E+02  0.20956655151E+03  0.21424478276E+03  0.00000000000E+00 0. -1.
</event>
<event>
 4    1  0.5465458E+003  0.2724866E+02  0.7546771E-02  0.1445126E+00
          2   -1    0    0  501    0  0.00000000000E+00  0.00000000000E+00  0.88786150660E+02  0.88786150660E+02  0.00000000000E+00 0. -1.
         -2   -1    0    0    0  501 -0.00000000000E+00 -0.00000000000E+00 -0.13884453553E+02  0.13884453553E+02  0.00000000000E+00 0.  1.
          2    1    1    2  502    0  0.27245487264E+02 -0.41564255398E+00  0.69824477939E+02  0.74952965615E+02  0.00000000000E+00 0. -1.
         -2    1    1    2    0  502 -0.27245487264E+02  0.41564255398E+00  0.50772191685E+01  0.27717638599E+02  0.00000000000E+00 0.  1.
</event>
<event>
 4    1  0.5465458E+003  0.2376478E+02  0.7546771E-02  0.1483112E+00
          2   -1    0    0  501    0  0.00000000000E+00  0.00000000000E+00  0.10570408052E+04  0.10570408052E+04  0.00000000000E+00 0.  1.
         -2   -1    0    0    0  501 -0.00000000000E+00 -0.00000000000E+00 -0.10211537229E+01  0.10211537229E+01  0.00000000000E+00 0.  1.
          2    1    1    2  502    0 -0.21150138978E+02  0.10836808819E+02  0.89330160146E+03  0.89361765648E+03  0.00000000000E+00 0.  1.
         -2    1    1    2    0  502  0.21150138978E+02 -0.10836808819E+02  0.16271805002E+03  0.16444430245E+03  0.00000000000E+00 0.  1.
</event>
<event>
 4    1  0.5465458E+003  0.2014206E+02  0.7546771E-02  0.1531875E+00
          2   -1    0    0  501    0  0.00000000000E+00  0.00000000000E+00  0.17707871645E+02  0.17707871645E+02  0.00000000000E+00 0. -1.
         -2   -1    0    0    0  501 -0.00000000000E+00 -0.00000000000E+00 -0.21296573153E+03  0.21296573153E+03  0.00000000000E+00 0.  1.
          2    1    1    2  502    0 -0.19761057017E+02  0.38991039587E+01  0.11327422376E+02  0.23108718783E+02  0.00000000000E+00 0. -1.
         -2    1    1    2    0  502  0.19761057017E+02 -0.38991039587E+01 -0.20658528226E+03  0.20756488439E+03  0.00000000000E+00 0.  1.
</event>
<event>
 4    1  0.5465458E+003  0.3418614E+02  0.7546771E-02  0.1386377E+00
          2   -1    0    0  501    0  0.00000000000E+00  0.00000000000E+00  0.83591989206E+02  0.83591989206E+02  0.00000000000E+00 0. -1.
         -2   -1    0    0    0  501 -0.00000000000E+00 -0.00000000000E+00 -0.73116725827E+02  0.73116725827E+02  0.00000000000E+00 0. -1.
          2    1    1    2  502    0  0.31992229564E+02  0.12049458463E+02  0.75703705929E+02  0.83064693421E+02  0.00000000000E+00 0. -1.
         -2    1    1    2    0  502 -0.31992229564E+02 -0.12049458463E+02 -0.65228442550E+02  0.73644021612E+02  0.00000000000E+00 0. -1.
</event>
<event>
 4    1  0.5465458E+003  0.2308091E+02  0.7546771E-02  0.1491485E+00
          2   -1    0    0  501    0  0.00000000000E+00  0.00000000000E+00  0.84044450862E+03  0.84044450862E+03  0.00000000000E+00 0. -1.
         -2   -1    0    0    0  501 -0.00000000000E+00 -0.00000000000E+00 -0.19194681591E+02  0.19194681591E+02  0.00000000000E+00 0.  1.
          2    1    1    2  502    0 -0.95319934150E+01 -0.21020691592E+02  0.83328797458E+03  0.83360756772E+03  0.00000000000E+00 0. -1.
         -2    1    1    2    0  502  0.95319934150E+01  0.21020691592E+02 -0.12038147549E+02  0.26031622498E+02  0.00000000000E+00 0.  1.
</event>
<event>
 4    1  0.5465458E+003  0.4169862E+02  0.7546771E-02  0.1338809E+00
          2   -1    0    0  501    0  0.00000000000E+00  0.00000000000E+00  0.17793799408E+04  0.17793799408E+04  0.00000000000E+00 0. -1.
         -2   -1    0    0    0  501 -0.00000000000E+00 -0.00000000000E+00 -0.16585793311E+02  0.16585793311E+02  0.00000000000E+00 0. -1.
          2    1    1    2  502    0  0.47342886444E+01  0.41428989317E+02  0.17525252995E+04  0.17530213062E+04  0.00000000000E+00 0. -1.
         -2    1    1    2    0  502 -0.47342886444E+01 -0.41428989317E+02  0.10268847932E+02  0.42944427841E+02  0.00000000000E+00 0. -1.
</event>
<event>
 4    1  0.5465458E+003  0.3586237E+02  0.7546771E-02  0.1374600E+00
          2   -1    0    0  501    0  0.00000000000E+00  0.00000000000E+00  0.13914699540E+04  0.13914699540E+04  0.00000000000E+00 0. -1.
         -2   -1    0    0    0  501 -0.00000000000E+00 -0.00000000000E+00 -0.12005316812E+01  0.12005316812E+01  0.00000000000E+00 0. -1.
          2    1    1    2  502    0  0.35687067224E+02 -0.35415700810E+01  0.10291628886E+04  0.10297875318E+04  0.00000000000E+00 0. -1.
         -2    1    1    2    0  502 -0.35687067224E+02  0.35415700810E+01  0.36110653372E+03  0.36288295384E+03  0.00000000000E+00 0. -1.
</event>
<event>
 4    1  0.5465458E+003  0.2081264E+02  0.7546771E-02  0.1521957E+00
          2   -1    0    0  501    0  0.00000000000E+00  0.00000000000E+00  0.38690830445E+02  0.38690830445E+02  0.00000000000E+00 0. -1.
         -2   -1    0    0    0  501 -0.00000000000E+00 -0.00000000000E+00 -0.23882006096E+02  0.23882006096E+02  0.00000000000E+00 0. -1.
          2    1    1    2  502    0 -0.57774768064E+01 -0.19994669380E+02  0.30207318349E+02  0.36683076802E+02  0.00000000000E+00 0. -1.
         -2    1    1    2    0  502  0.57774768064E+01  0.19994669380E+02 -0.15398494000E+02  0.25889759738E+02  0.00000000000E+00 0. -1.
</event>
<event>
 4    1  0.5465458E+003  0.2239224E+02  0.7546771E-02  0.1500274E+00
          2   -1    0    0  501    0  0.00000000000E+00  0.00000000000E+00  0.88478785842E+03  0.88478785842E+03  0.00000000000E+00 0.  1.
         -2   -1    0    0    0  501 -0.00000000000E+00 -0.00000000000E+00 -0.34035316740E+01  0.34035316740E+01  0.00000000000E+00 0.  1.
          2    1    1    2  502    0  0.13374937076E+02  0.17958935854E+02  0.84613365002E+03  0.84642989433E+03  0.00000000000E+00 0.  1.
         -2    1    1    2    0  502 -0.13374937076E+02 -0.17958935854E+02  0.35250676725E+02  0.41761495763E+02  0.00000000000E+00 0.  1.
</event>
<event>
 4    1  0.5465458E+003  0.2909344E+02  0.7546771E-02  0.1427641E+00
          2   -1    0    0  501    0  0.00000000000E+00  0.00000000000E+00  0.33469954804E+02  0.33469954804E+02  0.00000000000E+00 0. -1.
         -2   -1    0    0    0  501 -0.00000000000E+00 -0.00000000000E+00 -0.14679096204E+03  0.14679096204E+03  0.00000000000E+00 0.  1.
          2    1    1    2  502    0  0.72546022580E+01 -0.28174434844E+02  0.25339378547E+02  0.38581240750E+02  0.00000000000E+00 0. -1.
         -2    1    1    2    0  502 -0.72546022580E+01  0.28174434844E+02 -0.13866038578E+03  0.14167967609E+03  0.00000000000E+00 0.  1.
</event>
<event>
 4    1  0.5465458E+003  0.5626324E+02  0.7546771E-02  0.1273086E+00
          2   -1    0    0  501    0  0.00000000000E+00  0.00000000000E+00  0.32439200850E+04  0.32439200850E+04  0.00000000000E+00 0. -1.
         -2   -1    0    0    0  501 -0.00000000000E+00 -0.00000000000E+00 -0.24702637230E+01  0.24702637230E+01  0.00000000000E+00 0.  1.
          2    1    1    2  502    0  0.25659161305E+02 -0.50071542365E+02  0.28832375596E+04  0.28837864653E+04  0.00000000000E+00 0. -1.
         -2    1    1    2    0  502 -0.25659161305E+02  0.50071542365E+02  0.35821226167E+03  0.36260388350E+03  0.00000000000E+00 0.  1.
</event>
<event>
 4    1  0.5465458E+003  0.2065784E+02  0.7546771E-02  0.1524207E+00
          2   -1    0    0  501    0  0.00000000000E+00  0.00000000000E+00  0.61330431128E+03  0.61330431128E+03  0.00000000000E+00 0.  1.
         -2   -1    0    0    0  501 -0.00000000000E+00 -0.00000000000E+00 -0.45335617057E+02  0.45335617057E+02  0.00000000000E+00 0.  1.
          2    1    1    2  502    0 -0.18096034093E+02 -0.99639298272E+01  0.61076732337E+03  0.61111657614E+03  0.00000000000E+00 0.  1.
         -2    1    1    2    0  502  0.18096034093E+02  0.99639298272E+01 -0.42798629140E+02  0.47523352194E+02  0.00000000000E+00 0.  1.
</event>
<event>
 4    1  0.5465458E+003  0.6357349E+02  0.7546771E-02  0.1248152E+00
          2   -1    0    0  501    0  0.00000000000E+00  0.00000000000E+00  0.18315160670E+04  0.18315160670E+04  0.00000000000E+00 0. -1.
         -2   -1    0    0    0  501 -0.00000000000E+00 -0.00000000000E+00 -0.11820692605E+02  0.11820692605E+02  0.00000000000E+00 0. -1.
          2    1    1    2  502    0  0.62138905629E+02 -0.13429243442E+02  0.17410473230E+04  0.17422076137E+04  0.00000000000E+00 0. -1.
         -2    1    1    2    0  502 -0.62138905629E+02  0.13429243442E+02  0.78648051422E+02  0.10112914597E+03  0.00000000000E+00 0. -1.
</event>
<event>
 4    1  0.5465458E+003  0.2088755E+02  0.7546771E-02  0.1520876E+00
          2   -1    0    0  501    0  0.00000000000E+00  0.00000000000E+00  0.30086398589E+03  0.30086398589E+03  0.00000000000E+00 0.  1.
         -2   -1    0    0    0  501 -0.00000000000E+00 -0.00000000000E+00 -0.12703378233E+02  0.12703378233E+02  0.00000000000E+00 0.  1.
          2    1    1    2  502    0  0.20824421076E+02  0.16227669636E+01  0.29164427127E+03  0.29239129750E+03  0.00000000000E+00 0.  1.
         -2    1    1    2    0  502 -0.20824421076E+02 -0.16227669636E+01 -0.34836636113E+01  0.21176066630E+02  0.00000000000E+00 0.  1.
</event>
<event>
 4    1  0.5465458E+003  0.2142092E+02  0.7546771E-02  0.1513339E+00
          2   -1    0    0  501    0  0.00000000000E+00  0.00000000000E+00  0.11523474382E+03  0.11523474382E+03  0.00000000000E+00 0. -1.
         -2   -1    0    0    0  501 -0.00000000000E+00 -0.00000000000E+00 -0.71559421454E+03  0.71559421454E+03  0.00000000000E+00 0. -1.
          2    1    1    2  502    0 -0.20012623511E+02 -0.76387515074E+01  0.11407734548E+03  0.11607108329E+03  0.00000000000E+00 0. -1.
         -2    1    1    2    0  502  0.20012623511E+02  0.76387515074E+01 -0.71443681621E+03  0.71475787507E+03  0.00000000000E+00 0. -1.
</event>
<event>
 4    1  0.5465458E+003  0.2470002E+02  0.7546771E-02  0.1472187E+00
          2   -1    0    0  501    0  0.00000000000E+00  0.00000000000E+00  0.94518300111E+02  0.94518300111E+02  0.00000000000E+00 0. -1.
         -2   -1    0    0    0  501 -0.00000000000E+00 -0.00000000000E+00 -0.20823732637E+02  0.20823732637E+02  0.00000000000E+00 0. -1.
          2    1    1    2  502    0 -0.16878175451E+02 -0.18033801462E+02  0.84753460986E+02  0.88279329125E+02  0.00000000000E+00 0. -1.
         -2    1    1    2    0  502  0.16878175451E+02  0.18033801462E+02 -0.11058893512E+02  0.27062703624E+02  0.00000000000E+00 0. -1.
</event>
<event>
 4    1  0.5465458E+003  0.3017962E+02  0.7546771E-02  0.1418042E+00
          2   -1    0    0  501    0  0.00000000000E+00  0.00000000000E+00  0.28773580827E+03  0.28773580827E+03  0.00000000000E+00 0. -1.
         -2   -1    0    0    0  501 -0.00000000000E+00 -0.00000000000E+00 -0.43112413552E+01  0.43112413552E+01  0.00000000000E+00 0.  1.
          2    1    1    2  502    0 -0.28359522869E+02  0.10322144168E+02  0.21699185547E+03  0.21908052067E+03  0.00000000000E+00 0. -1.
         -2    1    1    2    0  502  0.28359522869E+02 -0.10322144168E+02  0.66432711447E+02  0.72966528955E+02  0.00000000000E+00 0.  1.
</event>
<event>
 4    1  0.5465458E+003  0.2030962E+02  0.7546771E-02  0.1529354E+00
          2   -1    0    0  501    0  0.00000000000E+00  0.00000000000E+00  0.82541148993E+01  0.82541148993E+01  0.00000000000E+00 0. -1.
         -2   -1    0    0    0  501 -0.00000000000E+00 -0.00000000000E+00 -0.13862018215E+03  0.13862018215E+03  0.00000000000E+00 0. -1.
          2    1    1    2  502    0 -0.11885298580E+02  0.16468766361E+02 -0.64563168131E+01  0.21311138275E+02  0.00000000000E+00 0. -1.
         -2    1    1    2    0  502  0.11885298580E+02 -0.16468766361E+02 -0.12390975043E+03  0.12556315877E+03  0.00000000000E+00 0. -1.
</event>
<event>
 4    1  0.5465458E+003  0.2070426E+02  0.7546771E-02  0.1523529E+00
          2   -1    0    0  501    0  0.00000000000E+00  0.00000000000E+00  0.38883572637E+02  0.38883572637E+02  0.00000000000E+00 0.  1.
         -2   -1    0    0    0  501 -0.00000000000E+00 -0.00000000000E+00 -0.10430007261E+04  0.10430007261E+04  0.00000000000E+00 0. -1.
          2    1    1    2  502    0 -0.98285109680E+00 -0.20680918633E+02  0.36017140448E+02  0.41543962231E+02  0.00000000000E+00 0.  1.
         -2    1    1    2    0  502  0.98285109680E+00  0.20680918633E+02 -0.10401342939E+04  0.10403403365E+04  0.00000000000E+00 0. -1.
</event>
<event>
 4    1  0.5465458E+003  0.2742304E+02  0.7546771E-02  0.1443404E+00
          2   -1    0    0  501    0  0.00000000000E+00  0.00000000000E+00  0.69450976749E+03  0.69450976749E+03  0.00000000000E+00 0.  1.
         -2   -1    0    0    0  501 -0.00000000000E+00 -0.00000000000E+00 -0.43288228866E+01  0.43288228866E+01  0.00000000000E+00 0. -1.
          2    1    1    2  502    0  0.26535697229E+02 -0.69195134999E+01  0.64766824396E+03  0.64824854580E+03  0.00000000000E+00 0.  1.
         -2    1    1    2    0  502 -0.26535697229E+02  0.69195134999E+01  0.42512700643E+02  0.50590044579E+02  0.00000000000E+00 0. -1.
</event>
<event>
 4    1  0.5465458E+003  0.9647337E+02  0.7546771E-02  0.1170063E+00
          2   -1    0    0  501    0  0.00000000000E+00  0.00000000000E+00  0.66760536940E+03  0.66760536940E+03  0.00000000000E+00 0.  1.
         -2   -1    0    0    0  501 -0.00000000000E+00 -0.00000000000E+00 -0.46453833563E+03  0.46453833563E+03  0.00000000000E+00 0.  1.
          2    1    1    2  502    0 -0.45835180285E+02 -0.84889620982E+02  0.65904661143E+03  0.66607022718E+03  0.00000000000E+00 0.  1.
         -2    1    1    2    0  502  0.45835180285E+02  0.84889620982E+02 -0.45597957766E+03  0.46607347784E+03  0.00000000000E+00 0.  1.
</event>
<event>
 4    1  0.5465458E+003  0.7567770E+02  0.7546771E-02  0.1214254E+00
          2   -1    0    0  501    0  0.00000000000E+00  0.00000000000E+00  0.24583739911E+03  0.24583739911E+03  0.00000000000E+00 0.  1.
         -2   -1    0    0    0  501 -0.00000000000E+00 -0.00000000000E+00 -0.11019783059E+03  0.11019783059E+03  0.00000000000E+00 0.  1.
          2    1    1    2  502    0 -0.48152363095E+02 -0.58382049926E+02  0.22590455950E+03  0.23824353890E+03  0.00000000000E+00 0.  1.
         -2    1    1    2    0  502  0.48152363095E+02  0.58382049926E+02 -0.90264990981E+02  0.11779169080E+03  0.00000000000E+00 0.  1.
</event>
<event>
 4    1  0.5465458E+003  0.2181179E+02  0.7546771E-02  0.1507983E+00
          2   -1    0    0  501    0  0.00000000000E+00  0.00000000000E+00  0.87980500765E+03  0.87980500765E+03  0.00000000000E+00 0. -1.
         -2   -1    0    0    0  501 -0.00000000000E+00 -0.00000000000E+00 -0.15517677717E+01  0.15517677717E+01  0.00000000000E+00 0. -1.
          2    1    1    2  502    0 -0.10968325955E+02 -0.18853376200E+02  0.79482994642E+03  0.79512917045E+03  0.00000000000E+00 0. -1.
         -2    1    1    2    0  502  0.10968325955E+02  0.18853376200E+02  0.83423293458E+02  0.86227604976E+02  0.00000000000E+00 0. -1.
</event>
<event>
 4    1  0.5465458E+003  0.2508805E+02  0.7546771E-02  0.1467821E+00
          2   -1    0    0  501    0  0.00000000000E+00  0.00000000000E+00  0.13238629074E+04  0.13238629074E+04  0.00000000000E+00 0.  1.
         -2   -1    0    0    0  501 -0.00000000000E+00 -0.00000000000E+00 -0.87543073149E+00  0.87543073149E+00  0.00000000000E+00 0.  1.
          2    1    1    2  502    0  0.15433892895E+02 -0.19778887315E+02  0.21376245670E+03  0.21522963859E+03  0.00000000000E+00 0.  1.
         -2    1    1    2    0  502 -0.15433892895E+02  0.19778887315E+02  0.11092250199E+04  0.11095086995E+04  0.00000000000E+00 0.  1.
</event>
<event>
 4    1  0.5465458E+003  0.2445476E+02  0.7546771E-02  0.1474996E+00
          2   -1    0    0  501    0  0.00000000000E+00  0.00000000000E+00  0.87277059384E+03  0.87277059384E+03  0.00000000000E+00 0.  1.
         -2   -1    0    0    0  501 -0.00000000000E+00 -0.00000000000E+00 -0.99295527953E+00  0.99295527953E+00  0.00000000000E+00 0. -1.
          2    1    1    2  502    0  0.76445947048E+00 -0.24442812435E+02  0.67910433374E+03  0.67954450302E+03  0.00000000000E+00 0.  1.
         -2    1    1    2    0  502 -0.76445947048E+00  0.24442812435E+02  0.19267330481E+03  0.19421904609E+03  0.00000000000E+00 0. -1.
</event>
<event>
 4    1  0.5465458E+003  0.3254337E+02  0.7546771E-02  0.1398709E+00
          2   -1    0    0  501    0  0.00000000000E+00  0.00000000000E+00  0.59167494751E+03  0.59167494751E+03  0.00000000000E+00 0. -1.
         -2   -1    0    0    0  501 -0.00000000000E+00 -0.00000000000E+00 -0.54435484707E+01  0.54435484707E+01  0.00000000000E+00 0. -1.
          2    1    1    2  502    0  0.20786014057E+02  0.25040218127E+02  0.53771187110E+03  0.53869576499E+03  0.00000000000E+00 0. -1.
         -2    1    1    2    0  502 -0.20786014057E+02 -0.25040218127E+02  0.48519527947E+02  0.58422730991E+02  0.00000000000E+00 0. -1.
</event>
<event>
 4    1  0.5465458E+003  0.2659393E+02  0.7546771E-02  0.1451730E+00
          2   -1    0    0  501    0  0.00000000000E+00  0.00000000000E+00  0.32748377124E+01  0.32748377124E+01  0.00000000000E+00 0.  1.
         -2   -1    0    0    0  501 -0.00000000000E+00 -0.00000000000E+00 -0.34413475604E+03  0.34413475604E+03  0.00000000000E+00 0.  1.
          2    1    1    2  502    0 -0.20639073118E+02  0.16770981442E+02 -0.64419885824E+02  0.69693319962E+02  0.00000000000E+00 0.  1.
         -2    1    1    2    0  502  0.20639073118E+02 -0.16770981442E+02 -0.27644003251E+03  0.27771627380E+03  0.00000000000E+00 0.  1.
</event>
<event>
 4    1  0.5465458E+003  0.4323656E+02  0.7546771E-02  0.1330497E+00
          2   -1    0    0  501    0  0.00000000000E+00  0.00000000000E+00  0.18421352852E+04  0.18421352852E+04  0.00000000000E+00 0.  1.
         -2   -1    0    0    0  501 -0.00000000000E+00 -0.00000000000E+00 -0.53311954167E+02  0.53311954167E+02  0.00000000000E+00 0.  1.
          2    1    1    2  502    0  0.39829695110E+02  0.16822476448E+02  0.18330719191E+04  0.18335817574E+04  0.00000000000E+00 0.  1.
         -2    1    1    2    0  502 -0.39829695110E+02 -0.16822476448E+02 -0.44248588028E+02  0.61865482047E+02  0.00000000000E+00 0.  1.
</event>
<event>
 4    1  0.5465458E+003  0.7249002E+02  0.7546771E-02  0.1222445E+00
          2   -1    0    0  501    0  0.00000000000E+00  0.00000000000E+00  0.19149392370E+04  0.19149392370E+04  0.00000000000E+00 0. -1.
         -2   -1    0    0    0  501 -0.00000000000E+00 -0.00000000000E+00 -0.60580608424E+01  0.60580608424E+01  0.00000000000E+00 0. -1.
          2    1    1    2  502    0  0.57066224242E+02 -0.44701782545E+02  0.16648406562E+04  0.16664180790E+04  0.00000000000E+00 0. -1.
         -2    1    1    2    0  502 -0.57066224242E+02  0.44701782545E+02  0.24404051999E+03  0.25457921893E+03  0.00000000000E+00 0. -1.
</event>
<event>
 4    1  0.5465458E+003  0.3990695E+02  0.7546771E-02  0.1349032E+00
          2   -1    0    0  501    0  0.00000000000E+00  0.00000000000E+00  0.12016005749E+03  0.12016005749E+03  0.00000000000E+00 0. -1.
         -2   -1    0    0    0  501 -0.00000000000E+00 -0.00000000000E+00 -0.61054357016E+02  0.61054357016E+02  0.00000000000E+00 0.  1.
          2    1    1    2  502    0 -0.15631054981E+02 -0.36718317185E+02  0.10972460169E+03  0.11675638275E+03  0.00000000000E+00 0. -1.
         -2    1    1    2    0  502  0.15631054981E+02  0.36718317185E+02 -0.50618901220E+02  0.64458031753E+02  0.00000000000E+00 0.  1.
</event>
<event>
 4    1  0.5465458E+003  0.3290434E+02  0.7546771E-02  0.1395927E+00
          2   -1    0    0  501    0  0.00000000000E+00  0.00000000000E+00  0.17699531193E+04  0.17699531193E+04  0.00000000000E+00 0. -1.
         -2   -1    0    0    0  501 -0.00000000000E+00 -0.00000000000E+00 -0.80370003103E+01  0.80370003103E+01  0.00000000000E+00 0. -1.
          2    1    1    2  502    0  0.19630833748E+02 -0.26406928688E+02  0.17354522521E+04  0.17357641588E+04  0.00000000000E+00 0. -1.
         -2    1    1    2    0  502 -0.19630833748E+02  0.26406928688E+02  0.26463866808E+02  0.42225960768E+02  0.00000000000E+00 0. -1.
</event>
<event>
 4    1  0.5465458E+003  0.3247694E+02  0.7546771E-02  0.1399225E+00
          2   -1    0    0  501    0  0.00000000000E+00  0.00000000000E+00  0.32226274764E+01  0.32226274764E+01  0.00000000000E+00 0. -1.
         -2   -1    0    0    0  501 -0.00000000000E+00 -0.00000000000E+00 -0.37590079593E+03  0.37590079593E+03  0.00000000000E+00 0. -1.
          2    1    1    2  502    0 -0.14187519077E+02 -0.29214139295E+02 -0.11817500518E+03  0.12255645018E+03  0.00000000000E+00 0. -1.
         -2    1    1    2    0  502  0.14187519077E+02  0.29214139295E+02 -0.25450316328E+03  0.25656697323E+03  0.00000000000E+00 0. -1.
</event>
<event>
 4    1  0.5465458E+003  0.7175248E+02  0.7546771E-02  0.1224409E+00
          2   -1    0    0  501    0  0.00000000000E+00  0.00000000000E+00  0.25622172757E+03  0.25622172757E+03  0.00000000000E+00 0.  1.
         -2   -1    0    0    0  501 -0.00000000000E+00 -0.00000000000E+00 -0.66678065857E+03  0.66678065857E+03  0.00000000000E+00 0. -1.
          2    1    1    2  502    0 -0.32694636350E+02 -0.63870804435E+02  0.24921480593E+03  0.25933846302E+03  0.00000000000E+00 0.  1.
         -2    1    1    2    0  502  0.32694636350E+02  0.63870804435E+02 -0.65977373693E+03  0.66366392312E+03  0.00000000000E+00 0. -1.
</event>
<event>
 4    1  0.5465458E+003  0.3293237E+02  0.7546771E-02  0.1395713E+00
          2   -1    0    0  501    0  0.00000000000E+00  0.00000000000E+00  0.16252198607E+04  0.16252198607E+04  0.00000000000E+00 0.  1.
         -2   -1    0    0    0  501 -0.00000000000E+00 -0.00000000000E+00 -0.64195838509E+01  0.64195838509E+01  0.00000000000E+00 0.  1.
          2    1    1    2  502    0  0.12105691083E+02 -0.30626671109E+02  0.15816541698E+04  0.15819969828E+04  0.00000000000E+00 0.  1.
         -2    1    1    2    0  502 -0.12105691083E+02  0.30626671109E+02  0.37146107046E+02  0.49642461748E+02  0.00000000000E+00 0.  1.
</event>
<event>
 4    1  0.5465458E+003  0.2208504E+02  0.7546771E-02  0.1504318E+00
          2   -1    0    0  501    0  0.00000000000E+00  0.00000000000E+00  0.46418351995E+03  0.46418351995E+03  0.00000000000E+00 0. -1.
         -2   -1    0    0    0  501 -0.00000000000E+00 -0.00000000000E+00 -0.15346817306E+02  0.15346817306E+02  0.00000000000E+00 0.  1.
          2    1    1    2  502    0  0.58317116131E+01  0.21301174405E+02  0.45582986281E+03  0.45636456120E+03  0.00000000000E+00 0. -1.
         -2    1    1    2    0  502 -0.58317116131E+01 -0.21301174405E+02 -0.69931601613E+01  0.23165776059E+02  0.00000000000E+00 0.  1.
</event>
<event>
 4    1  0.5465458E+003  0.9719388E+02  0.7546771E-02  0.1168761E+00
          2   -1    0    0  501    0  0.00000000000E+00  0.00000000000E+00  0.44601551711E+03  0.44601551711E+03  0.00000000000E+00 0.  1.
         -2   -1    0    0    0  501 -0.00000000000E+00 -0.00000000000E+00 -0.47490452819E+03  0.47490452819E+03  0.00000000000E+00 0.  1.
          2    1    1    2  502    0  0.82730779401E+02 -0.51012428469E+02  0.43563046324E+03  0.44634129343E+03  0.00000000000E+00 0.  1.
         -2    1    1    2    0  502 -0.82730779401E+02  0.51012428469E+02 -0.46451947431E+03  0.47457875187E+03  0.00000000000E+00 0.  1.
</event>
<event>
 4    1  0.5465458E+003  0.2468173E+02  0.7546771E-02  0.1472395E+00
          2   -1    0    0  501    0  0.00000000000E+00  0.00000000000E+00  0.89396207991E+02  0.89396207991E+02  0.00000000000E+00 0. -1.
         -2   -1    0    0    0  501 -0.00000000000E+00 -0.00000000000E+00 -0.17221778585E+02  0.17221778585E+02  0.00000000000E+00 0. -1.
          2    1    1    2  502    0 -0.12645648571E+02 -0.21196120912E+02  0.77528255254E+02  0.81362266022E+02  0.00000000000E+00 0. -1.
         -2    1    1    2    0  502  0.12645648571E+02  0.21196120912E+02 -0.53538258472E+01  0.25255720554E+02  0.00000000000E+00 0. -1.
</event>
<event>
 4    1  0.5465458E+003  0.3423300E+02  0.7546771E-02  0.1386037E+00
          2   -1    0    0  501    0  0.00000000000E+00  0.00000000000E+00  0.80594582629E+03  0.80594582629E+03  0.00000000000E+00 0. -1.
         -2   -1    0    0    0  501 -0.00000000000E+00 -0.00000000000E+00 -0.61508840729E+01  0.61508840729E+01  0.00000000000E+00 0. -1.
          2    1    1    2  502    0 -0.24975744564E+02 -0.23411762834E+02  0.75471972648E+03  0.75549570747E+03  0.00000000000E+00 0. -1.
         -2    1    1    2    0  502  0.24975744564E+02  0.23411762834E+02  0.45075215733E+02  0.56601002897E+02  0.00000000000E+00 0. -1.
</event>
<event>
 4    1  0.5465458E+003  0.2990852E+02  0.7546771E-02  0.1420393E+00
          2   -1    0    0  501    0  0.00000000000E+00  0.00000000000E+00  0.15218533474E+02  0.15218533474E+02  0.00000000000E+00 0. -1.
         -2   -1    0    0    0  501 -0.00000000000E+00 -0.00000000000E+00 -0.27534634604E+03  0.27534634604E+03  0.00000000000E+00 0. -1.
          2    1    1    2  502    0  0.29844439944E+02 -0.19568268503E+01 -0.12179957725E+01  0.29933313892E+02  0.00000000000E+00 0. -1.
         -2    1    1    2    0  502 -0.29844439944E+02  0.19568268503E+01 -0.25890981680E+03  0.26063156563E+03  0.00000000000E+00 0. -1.
</event>
<event>
 4    1  0.5465458E+003  0.3222016E+02  0.7546771E-02  0.1401236E+00
          2   -1    0    0  501    0  0.00000000000E+00  0.00000000000E+00  0.51861593985E+03  0.51861593985E+03  0.00000000000E+00 0. -1.
         -2   -1    0    0    0  501 -0.00000000000E+00 -0.00000000000E+00 -0.15225925170E+02  0.15225925170E+02  0.00000000000E+00 0.  1.
          2    1    1    2  502    0 -0.20479775163E+02 -0.24874028649E+02  0.50045189539E+03  0.50148802387E+03  0.00000000000E+00 0. -1.
         -2    1    1    2    0  502  0.20479775163E+02  0.24874028649E+02  0.29381192927E+01  0.32353841147E+02  0.00000000000E+00 0.  1.
</event>
<event>
 4    1  0.5465458E+003  0.2074618E+02  0.7546771E-02  0.1522920E+00
          2   -1    0    0  501    0  0.00000000000E+00  0.00000000000E+00  0.24666146797E+03  0.24666146797E+03  0.00000000000E+00 0. -1.
         -2   -1    0    0    0  501 -0.00000000000E+00 -0.00000000000E+00 -0.13894671582E+02  0.13894671582E+02  0.00000000000E+00 0. -1.
          2    1    1    2  502    0 -0.45115787754E+01  0.20249687177E+02  0.23820684896E+03  0.23910856753E+03  0.00000000000E+00 0. -1.
         -2    1    1    2    0  502  0.45115787754E+01 -0.20249687177E+02 -0.54400525702E+01  0.21447572025E+02  0.00000000000E+00 0. -1.
</event>
<event>
 4    1  0.5465458E+003  0.2045126E+02  0.7546771E-02  0.1527246E+00
          2   -1    0    0  501    0  0.00000000000E+00  0.00000000000E+00  0.72874035056E+02  0.72874035056E+02  0.00000000000E+00 0.  1.
         -2   -1    0    0    0  501 -0.00000000000E+00 -0.00000000000E+00 -0.27359252557E+03  0.27359252557E+03  0.00000000000E+00 0.  1.
          2    1    1    2  502    0  0.16222639261E+02  0.12453104438E+02  0.71047365462E+02  0.73932279647E+02  0.00000000000E+00 0.  1.
         -2    1    1    2    0  502 -0.16222639261E+02 -0.12453104438E+02 -0.27176585597E+03  0.27253428098E+03  0.00000000000E+00 0.  1.
</event>
<event>
 4    1  0.5465458E+003  0.3740569E+02  0.7546771E-02  0.1364398E+00
          2   -1    0    0  501    0  0.00000000000E+00  0.00000000000E+00  0.12797040877E+03  0.12797040877E+03  0.00000000000E+00 0. -1.
         -2   -1    0    0    0  501 -0.00000000000E+00 -0.00000000000E+00 -0.90578185286E+02  0.90578185286E+02  0.00000000000E+00 0. -1.
          2    1    1    2  502    0  0.32572169979E+02  0.18391275617E+02  0.12116314695E+03  0.12680573116E+03  0.00000000000E+00 0. -1.
         -2    1    1    2    0  502 -0.32572169979E+02 -0.18391275617E+02 -0.83770923461E+02  0.91742862902E+02  0.00000000000E+00 0. -1.
</event>
<event>
 4    1  0.5465458E+003  0.2533891E+02  0.7546771E-02  0.1465047E+00
          2   -1    0    0  501    0  0.00000000000E+00  0.00000000000E+00  0.19002492920E+03  0.19002492920E+03  0.00000000000E+00 0. -1.
         -2   -1    0    0    0  501 -0.00000000000E+00 -0.00000000000E+00 -0.33819978417E+01  0.33819978417E+01  0.00000000000E+00 0. -1.
          2    1    1    2  502    0  0.10013203327E+02 -0.23276515104E+02  0.96284865245E+02  0.99563224493E+02  0.00000000000E+00 0. -1.
         -2    1    1    2    0  502 -0.10013203327E+02  0.23276515104E+02  0.90358066113E+02  0.93843702548E+02  0.00000000000E+00 0. -1.
</event>
<event>
 4    1  0.5465458E+003  0.3167046E+02  0.7546771E-02  0.1405615E+00
          2   -1    0    0  501    0  0.00000000000E+00  0.00000000000E+00  0.18147999888E+04  0.18147999888E+04  0.00000000000E+00 0.  1.
         -2   -1    0    0    0  501 -0.00000000000E+00 -0.00000000000E+00 -0.75501011895E+01  0.75501011895E+01  0.00000000000E+00 0.  1.
          2    1    1    2  502    0  0.47547806479E+01 -0.31311502718E+02  0.17808159919E+04  0.17810975873E+04  0.00000000000E+00 0.  1.
         -2    1    1    2    0  502 -0.47547806479E+01  0.31311502718E+02  0.26433895641E+02  0.41252502715E+02  0.00000000000E+00 0.  1.
</event>
<event>
 4    1  0.5465458E+003  0.3339925E+02  0.7546771E-02  0.1392180E+00
          2   -1    0    0  501    0  0.00000000000E+00  0.00000000000E+00  0.52169860668E+03  0.52169860668E+03  0.00000000000E+00 0. -1.
         -2   -1    0    0    0  501 -0.00000000000E+00 -0.00000000000E+00 -0.10435205509E+02  0.10435205509E+02  0.00000000000E+00 0.  1.
          2    1    1    2  502    0  0.14131762602E+02 -0.30262241850E+02  0.49287848863E+03  0.49400882032E+03  0.00000000000E+00 0. -1.
         -2    1    1    2    0  502 -0.14131762602E+02  0.30262241850E+02  0.18384912539E+02  0.38124991871E+02  0.00000000000E+00 0.  1.
</event>
<event>
 4    1  0.5465458E+003  0.2581654E+02  0.7546771E-02  0.1459872E+00
          2   -1    0    0  501    0  0.00000000000E+00  0.00000000000E+00  0.70245914296E+02  0.70245914296E+02  0.00000000000E+00 0.  1.
         -2   -1    0    0    0  501 -0.00000000000E+00 -0.00000000000E+00 -0.17566651868E+02  0.17566651868E+02  0.00000000000E+00 0.  1.
          2    1    1    2  502    0  0.81988958324E+01 -0.24480034387E+02  0.56114601643E+02  0.61768458731E+02  0.00000000000E+00 0.  1.
         -2    1    1    2    0  502 -0.81988958324E+01  0.24480034387E+02 -0.34353392151E+01  0.26044107433E+02  0.00000000000E+00 0.  1.
</event>
<event>
 4    1  0.5465458E+003  0.2203538E+02  0.7546771E-02  0.1504980E+00
          2   -1    0    0  501    0  0.00000000000E+00  0.00000000000E+00  0.40060714159E+02  0.40060714159E+02  0.00000000000E+00 0.  1.
         -2   -1    0    0    0  501 -0.00000000000E+00 -0.00000000000E+00 -0.12653189931E+02  0.12653189931E+02  0.00000000000E+00 0.  1.
          2    1    1    2  502    0 -0.38401318130E+01  0.21698185375E+02  0.19111458741E+02  0.29168574119E+02  0.00000000000E+00 0.  1.
         -2    1    1    2    0  502  0.38401318130E+01 -0.21698185375E+02  0.82960654864E+01  0.23545329971E+02  0.00000000000E+00 0.  1.
</event>
<event>
 4    1  0.5465458E+003  0.3215025E+02  0.7546771E-02  0.1401787E+00
          2   -1    0    0  501    0  0.00000000000E+00  0.00000000000E+00  0.80695835145E+03  0.80695835145E+03  0.00000000000E+00 0.  1.
         -2   -1    0    0    0  501 -0.00000000000E+00 -0.00000000000E+00 -0.15763103869E+01  0.15763103869E+01  0.00000000000E+00 0.  1.
          2    1    1    2  502    0  0.12192067167E+02  0.29748816390E+02  0.57769806655E+03  0.57859199327E+03  0.00000000000E+00 0.  1.
         -2    1    1    2    0  502 -0.12192067167E+02 -0.29748816390E+02  0.22768397451E+03  0.22994266856E+03  0.00000000000E+00 0.  1.
</event>
<event>
 4    1  0.5465458E+003  0.2384296E+02  0.7546771E-02  0.1482176E+00
          2   -1    0    0  501    0  0.00000000000E+00  0.00000000000E+00  0.22989608487E+03  0.22989608487E+03  0.00000000000E+00 0. -1.
         -2   -1    0    0    0  501 -0.00000000000E+00 -0.00000000000E+00 -0.27481250495E+02  0.27481250495E+02  0.00000000000E+00 0.  1.
          2    1    1    2  502    0 -0.23645069665E+02  0.30655230849E+01  0.22396984314E+03  0.22523538218E+03  0.00000000000E+00 0. -1.
         -2    1    1    2    0  502  0.23645069665E+02 -0.30655230849E+01 -0.21555008767E+02  0.32141953180E+02  0.00000000000E+00 0.  1.
</event>
<event>
 4    1  0.5465458E+003  0.2009321E+02  0.7546771E-02  0.1532616E+00
          2   -1    0    0  501    0  0.00000000000E+00  0.00000000000E+00  0.82928099720E+03  0.82928099720E+03  0.00000000000E+00 0. -1.
         -2   -1    0    0    0  501 -0.00000000000E+00 -0.00000000000E+00 -0.40825747481E+01  0.40825747481E+01  0.00000000000E+00 0. -1.
          2    1    1    2  502    0 -0.19957176825E+02  0.23341102816E+01  0.80364764705E+03  0.80389879810E+03  0.00000000000E+00 0. -1.
         -2    1    1    2    0  502  0.19957176825E+02 -0.23341102816E+01  0.21550775411E+02  0.29464773857E+02  0.00000000000E+00 0. -1.
</event>
<event>
 4    1  0.5465458E+003  0.2085123E+02  0.7546771E-02  0.1521400E+00
          2   -1    0    0  501    0  0.00000000000E+00  0.00000000000E+00  0.14521309996E+04  0.14521309996E+04  0.00000000000E+00 0. -1.
         -2   -1    0    0    0  501 -0.00000000000E+00 -0.00000000000E+00 -0.30724553137E+00  0.30724553137E+00  0.00000000000E+00 0. -1.
          2    1    1    2  502    0 -0.19310850308E+02  0.78653932828E+01  0.60989144894E+03  0.61024777987E+03  0.00000000000E+00 0. -1.
         -2    1    1    2    0  502  0.19310850308E+02 -0.78653932828E+01  0.84193230518E+03  0.84219046530E+03  0.00000000000E+00 0. -1.
</event>
<event>
 4    1  0.5465458E+003  0.2458241E+02  0.7546771E-02  0.1473530E+00
          2   -1    0    0  501    0  0.00000000000E+00  0.00000000000E+00  0.13463876479E+04  0.13463876479E+04  0.00000000000E+00 0.  1.
         -2   -1    0    0    0  501 -0.00000000000E+00 -0.00000000000E+00 -0.13217713716E+01  0.13217713716E+01  0.00000000000E+00 0.  1.
          2    1    1    2  502    0 -0.23680907843E+02  0.65961647566E+01  0.12201556424E+04  0.12204032475E+04  0.00000000000E+00 0.  1.
         -2    1    1    2    0  502  0.23680907843E+02 -0.65961647566E+01  0.12491023417E+03  0.12730617183E+03  0.00000000000E+00 0.  1.
</event>
<event>
 4    1  0.5465458E+003  0.2100291E+02  0.7546771E-02  0.1519223E+00
          2   -1    0    0  501    0  0.00000000000E+00  0.00000000000E+00  0.21656256831E+03  0.21656256831E+03  0.00000000000E+00 0.  1.
         -2   -1    0    0    0  501 -0.00000000000E+00 -0.00000000000E+00 -0.52742640355E+01  0.52742640355E+01  0.00000000000E+00 0.  1.
          2    1    1    2  502    0 -0.18247253365E+02  0.10400001151E+02  0.19254352484E+03  0.19368565057E+03  0.00000000000E+00 0.  1.
         -2    1    1    2    0  502  0.18247253365E+02 -0.10400001151E+02  0.18744779437E+02  0.28151181777E+02  0.00000000000E+00 0.  1.
</event>
<event>
 4    1  0.5465458E+003  0.2703791E+02  0.7546771E-02  0.1447228E+00
          2   -1    0    0  501    0  0.00000000000E+00  0.00000000000E+00  0.25805409455E+03  0.25805409455E+03  0.00000000000E+00 0. -1.
         -2   -1    0    0    0  501 -0.00000000000E+00 -0.00000000000E+00 -0.28362909204E+01  0.28362909204E+01  0.00000000000E+00 0.  1.
          2    1    1    2  502    0  0.21961085629E+01  0.26948557701E+02  0.12311457338E+03  0.12604858521E+03  0.00000000000E+00 0. -1.
         -2    1    1    2    0  502 -0.21961085629E+01 -0.26948557701E+02  0.13210323025E+03  0.13484180026E+03  0.00000000000E+00 0.  1.
</event>
<event>
 4    1  0.5465458E+003  0.4499250E+02  0.7546771E-02  0.1321477E+00
          2   -1    0    0  501    0  0.00000000000E+00  0.00000000000E+00  0.29876325125E+03  0.29876325125E+03  0.00000000000E+00 0. -1.
         -2   -1    0    0    0  501 -0.00000000000E+00 -0.00000000000E+00 -0.13648004831E+02  0.13648004831E+02  0.00000000000E+00 0.  1.
          2    1    1    2  502    0  0.70590658876E+01  0.44435290272E+02  0.25340203451E+03  0.25736533668E+03  0.00000000000E+00 0. -1.
         -2    1    1    2    0  502 -0.70590658876E+01 -0.44435290272E+02  0.31713211910E+02  0.55045919398E+02  0.00000000000E+00 0.  1.
</event>
<event>
 4    1  0.5465458E+003  0.2129526E+02  0.7546771E-02  0.1515091E+00
          2   -1    0    0  501    0  0.00000000000E+00  0.00000000000E+00  0.19209747752E+04  0.19209747752E+04  0.00000000000E+00 0. -1.
         -2   -1    0    0    0  501 -0.00000000000E+00 -0.00000000000E+00 -0.27213482353E+00  0.27213482353E+00  0.00000000000E+00 0.  1.
          2    1    1    2  502    0 -0.11136252716E+02  0.18151362433E+02  0.13100482747E+04  0.13102213439E+04  0.00000000000E+00 0. -1.
         -2    1    1    2    0  502  0.11136252716E+02 -0.18151362433E+02  0.61065436572E+03  0.61102556612E+03  0.00000000000E+00 0.  1.
</event>
<event>
 4    1  0.5465458E+003  0.5901206E+02  0.7546771E-02  0.1263227E+00
          2   -1    0    0  501    0  0.00000000000E+00  0.00000000000E+00  0.37277349537E+02  0.37277349537E+02  0.00000000000E+00 0.  1.
         -2   -1    0    0    0  501 -0.00000000000E+00 -0.00000000000E+00 -0.31863527236E+03  0.31863527236E+03  0.00000000000E+00 0.  1.
          2    1    1    2  502    0  0.44311113240E+01  0.58845460433E+02  0.89329210369E+01  0.59684336633E+02  0.00000000000E+00 0.  1.
         -2    1    1    2    0  502 -0.44311113240E+01 -0.58845460433E+02 -0.29029084386E+03  0.29622828526E+03  0.00000000000E+00 0.  1.
</event>
<event>
 4    1  0.5465458E+003  0.2285093E+02  0.7546771E-02  0.1494379E+00
          2   -1    0    0  501    0  0.00000000000E+00  0.00000000000E+00  0.84881853915E+03  0.84881853915E+03  0.00000000000E+00 0. -1.
         -2   -1    0    0    0  501 -0.00000000000E+00 -0.00000000000E+00 -0.11991852162E+01  0.11991852162E+01  0.00000000000E+00 0.  1.
          2    1    1    2  502    0  0.18993340304E+02 -0.12705045771E+02  0.72040755905E+03  0.72076987749E+03  0.00000000000E+00 0. -1.
         -2    1    1    2    0  502 -0.18993340304E+02  0.12705045771E+02  0.12721179488E+03  0.12924784687E+03  0.00000000000E+00 0.  1.
</event>
<event>
 4    1  0.5465458E+003  0.2787321E+02  0.7546771E-02  0.1439028E+00
          2   -1    0    0  501    0  0.00000000000E+00  0.00000000000E+00  0.63947130729E+03  0.63947130729E+03  0.00000000000E+00 0.  1.
         -2   -1    0    0    0  501 -0.00000000000E+00 -0.00000000000E+00 -0.19965270755E+02  0.19965270755E+02  0.00000000000E+00 0.  1.
          2    1    1    2  502    0  0.62872433803E+00 -0.27866115039E+02  0.62928178805E+03  0.62989878903E+03  0.00000000000E+00 0.  1.
         -2    1    1    2    0  502 -0.62872433803E+00  0.27866115039E+02 -0.97757515154E+01  0.29537789006E+02  0.00000000000E+00 0.  1.
</event>
<event>
 4    1  0.5465458E+003  0.2064908E+02  0.7546771E-02  0.1524335E+00
          2   -1    0    0  501    0  0.00000000000E+00  0.00000000000E+00  0.82125957308E+00  0.82125957308E+00  0.00000000000E+00 0.  1.
         -2   -1    0    0    0  501 -0.00000000000E+00 -0.00000000000E+00 -0.93272831056E+03  0.93272831056E+03  0.00000000000E+00 0.  1.
          2    1    1    2  502    0  0.15578501397E+02  0.13553401936E+02 -0.15514630312E+03  0.15651440759E+03  0.00000000000E+00 0.  1.
         -2    1    1    2    0  502 -0.15578501397E+02 -0.13553401936E+02 -0.77676074786E+03  0.77703516255E+03  0.00000000000E+00 0.  1.
</event>
<event>
 4    1  0.5465458E+003  0.2090109E+02  0.7546771E-02  0.1520682E+00
          2   -1    0    0  501    0  0.00000000000E+00  0.00000000000E+00  0.22615570442E+04  0.22615570442E+04  0.00000000000E+00 0. -1.
         -2   -1    0    0    0  501 -0.00000000000E+00 -0.00000000000E+00 -0.21758423955E+00  0.21758423955E+00  0.00000000000E+00 0. -1.
          2    1    1    2  502    0  0.20717248783E+02 -0.27660462083E+01  0.15095175842E+04  0.15096622776E+04  0.00000000000E+00 0. -1.
         -2    1    1    2    0  502 -0.20717248783E+02  0.27660462083E+01  0.75182187573E+03  0.75211235080E+03  0.00000000000E+00 0. -1.
</event>
<event>
 4    1  0.5465458E+003  0.2097132E+02  0.7546771E-02  0.1519675E+00
          2   -1    0    0  501    0  0.00000000000E+00  0.00000000000E+00  0.86736273228E+03  0.86736273228E+03  0.00000000000E+00 0. -1.
         -2   -1    0    0    0  501 -0.00000000000E+00 -0.00000000000E+00 -0.47956328739E+01  0.47956328739E+01  0.00000000000E+00 0. -1.
          2    1    1    2  502    0  0.16304841149E+02 -0.13188957953E+02  0.84366515358E+03  0.84392575966E+03  0.00000000000E+00 0. -1.
         -2    1    1    2    0  502 -0.16304841149E+02  0.13188957953E+02  0.18901945824E+02  0.28232605489E+02  0.00000000000E+00 0. -1.
</event>
<event>
 4    1  0.5465458E+003  0.4406351E+02  0.7546771E-02  0.1326189E+00
          2   -1    0    0  501    0  0.00000000000E+00  0.00000000000E+00  0.86000515056E+03  0.86000515056E+03  0.00000000000E+00 0.  1.
         -2   -1    0    0    0  501 -0.00000000000E+00 -0.00000000000E+00 -0.49324886579E+02  0.49324886579E+02  0.00000000000E+00 0.  1.
          2    1    1    2  502    0  0.30237574801E+02 -0.32051241367E+02  0.84947802844E+03  0.85062007606E+03  0.00000000000E+00 0.  1.
         -2    1    1    2    0  502 -0.30237574801E+02  0.32051241367E+02 -0.38797764455E+02  0.58709961077E+02  0.00000000000E+00 0.  1.
</event>
<event>
 4    1  0.5465458E+003  0.2125995E+02  0.7546771E-02  0.1515586E+00
          2   -1    0    0  501    0  0.00000000000E+00  0.00000000000E+00  0.28693737630E+03  0.28693737630E+03  0.00000000000E+00 0.  1.
         -2   -1    0    0    0  501 -0.00000000000E+00 -0.00000000000E+00 -0.27880238486E+01  0.27880238486E+01  0.00000000000E+00 0.  1.
          2    1    1    2  502    0 -0.10716183446E+01 -0.21232928620E+02  0.23761925095E+03  0.23856842634E+03  0.00000000000E+00 0.  1.
         -2    1    1    2    0  502  0.10716183446E+01  0.21232928620E+02  0.46530101500E+02  0.51156973808E+02  0.00000000000E+00 0.  1.
</event>
<event>
 4    1  0.5465458E+003  0.2266852E+02  0.7546771E-02  0.1496703E+00
          2   -1    0    0  501    0  0.00000000000E+00  0.00000000000E+00  0.41625629497E+03  0.41625629497E+03  0.00000000000E+00 0. -1.
         -2   -1    0    0    0  501 -0.00000000000E+00 -0.00000000000E+00 -0.14020635483E+01  0.14020635483E+01  0.00000000000E+00 0. -1.
          2    1    1    2  502    0 -0.22372039916E+02 -0.36542768438E+01  0.27962380805E+03  0.28054114839E+03  0.00000000000E+00 0. -1.
         -2    1    1    2    0  502  0.22372039916E+02  0.36542768438E+01  0.13523042337E+03  0.13711721013E+03  0.00000000000E+00 0. -1.
</event>
<event>
 4    1  0.5465458E+003  0.2747182E+02  0.7546771E-02  0.1442925E+00
          2   -1    0    0  501    0  0.00000000000E+00  0.00000000000E+00  0.66403290406E+01  0.66403290406E+01  0.00000000000E+00 0. -1.
         -2   -1    0    0    0  501 -0.00000000000E+00 -0.00000000000E+00 -0.28842757046E+03  0.28842757046E+03  0.00000000000E+00 0. -1.
          2    1    1    2  502    0 -0.26654659836E+02  0.66505591160E+01 -0.26048830195E+02  0.37858187781E+02  0.00000000000E+00 0. -1.
         -2    1    1    2    0  502  0.26654659836E+02 -0.66505591160E+01 -0.25573841122E+03  0.25720971172E+03  0.00000000000E+00 0. -1.
</event>
<event>
 4    1  0.5465458E+003  0.2768227E+02  0.7546771E-02  0.1440872E+00
          2   -1    0    0  501    0  0.00000000000E+00  0.00000000000E+00  0.21059859048E+02  0.21059859048E+02  0.00000000000E+00 0. -1.
         -2   -1    0    0    0  501 -0.00000000000E+00 -0.00000000000E+00 -0.15667813089E+03  0.15667813089E+03  0.00000000000E+00 0.  1.
          2    1    1    2  502    0 -0.12066868335E+02 -0.24913823310E+02  0.10059513210E+02  0.29453381968E+02  0.00000000000E+00 0. -1.
         -2    1    1    2    0  502  0.12066868335E+02  0.24913823310E+02 -0.14567778506E+03  0.14828460797E+03  0.00000000000E+00 0.  1.
</event>
<event>
 4    1  0.5465458E+003  0.2121257E+02  0.7546771E-02  0.1516251E+00
          2   -1    0    0  501    0  0.00000000000E+00  0.00000000000E+00  0.42965147268E+03  0.42965147268E+03  0.00000000000E+00 0. -1.
         -2   -1    0    0    0  501 -0.00000000000E+00 -0.00000000000E+00 -0.86879325487E+01  0.86879325487E+01  0.00000000000E+00 0. -1.
          2    1    1    2  502    0 -0.96237289378E+01 -0.18903891068E+02  0.41601734566E+03  0.41655780529E+03  0.00000000000E+00 0. -1.
         -2    1    1    2    0  502  0.96237289378E+01  0.18903891068E+02  0.49461944701E+01  0.21781599940E+02  0.00000000000E+00 0. -1.
</event>
<event>
 4    1  0.5465458E+003  0.2637289E+02  0.7546771E-02  0.1454011E+00
          2   -1    0    0  501    0  0.00000000000E+00  0.00000000000E+00  0.38032083510E+02  0.38032083510E+02  0.00000000000E+00 0. -1.
         -2   -1    0    0    0  501 -0.00000000000E+00 -0.00000000000E+00 -0.18307305100E+02  0.18307305100E+02  0.00000000000E+00 0. -1.
          2    1    1    2  502    0 -0.13817412445E+02  0.22463493971E+02  0.10777953117E+02  0.28490239056E+02  0.00000000000E+00 0. -1.
         -2    1    1    2    0  502  0.13817412445E+02 -0.22463493971E+02  0.89468252928E+01  0.27849149554E+02  0.00000000000E+00 0. -1.
</event>
<event>
 4    1  0.5465458E+003  0.2125897E+02  0.7546771E-02  0.1515599E+00
          2   -1    0    0  501    0  0.00000000000E+00  0.00000000000E+00  0.16370030329E+04  0.16370030329E+04  0.00000000000E+00 0.  1.
         -2   -1    0    0    0  501 -0.00000000000E+00 -0.00000000000E+00 -0.40881588097E+00  0.40881588097E+00  0.00000000000E+00 0.  1.
          2    1    1    2  502    0 -0.52662295587E+01 -0.20596359246E+02  0.35178939260E+03  0.35243115630E+03  0.00000000000E+00 0.  1.
         -2    1    1    2    0  502  0.52662295587E+01  0.20596359246E+02  0.12848048244E+04  0.12849806924E+04  0.00000000000E+00 0.  1.
</event>
<event>
 4    1  0.5465458E+003  0.2626655E+02  0.7546771E-02  0.1455118E+00
          2   -1    0    0  501    0  0.00000000000E+00  0.00000000000E+00  0.96179208138E+03  0.96179208138E+03  0.00000000000E+00 0. -1.
         -2   -1    0    0    0  501 -0.00000000000E+00 -0.00000000000E+00 -0.27948109607E+01  0.27948109607E+01  0.00000000000E+00 0.  1.
          2    1    1    2  502    0 -0.24111204930E+02 -0.10420236518E+02  0.89531604216E+03  0.89570125984E+03  0.00000000000E+00 0. -1.
         -2    1    1    2    0  502  0.24111204930E+02  0.10420236518E+02  0.63681228260E+02  0.68885632500E+02  0.00000000000E+00 0.  1.
</event>
<event>
 4    1  0.5465458E+003  0.4923265E+02  0.7546771E-02  0.1301534E+00
          2   -1    0    0  501    0  0.00000000000E+00  0.00000000000E+00  0.10982185258E+04  0.10982185258E+04  0.00000000000E+00 0.  1.
         -2   -1    0    0    0  501 -0.00000000000E+00 -0.00000000000E+00 -0.64483462759E+01  0.64483462759E+01  0.00000000000E+00 0.  1.
          2    1    1    2  502    0 -0.17766128190E+02 -0.45915339036E+02  0.99383045138E+03  0.99504915445E+03  0.00000000000E+00 0.  1.
         -2    1    1    2    0  502  0.17766128190E+02  0.45915339036E+02  0.97939728134E+02  0.10961771762E+03  0.00000000000E+00 0.  1.
</event>
<event>
 4    1  0.5465458E+003  0.2056659E+02  0.7546771E-02  0.1525544E+00
          2   -1    0    0  501    0  0.00000000000E+00  0.00000000000E+00  0.14880954872E+03  0.14880954872E+03  0.00000000000E+00 0. -1.
         -2   -1    0    0    0  501 -0.00000000000E+00 -0.00000000000E+00 -0.14939397039E+02  0.14939397039E+02  0.00000000000E+00 0.  1.
          2    1    1    2  502    0  0.19849161544E+02 -0.53847208546E+01  0.14061001462E+03  0.14210615977E+03  0.00000000000E+00 0. -1.
         -2    1    1    2    0  502 -0.19849161544E+02  0.53847208546E+01 -0.67398629443E+01  0.21642785985E+02  0.00000000000E+00 0.  1.
</event>
<event>
 4    1  0.5465458E+003  0.2220764E+02  0.7546771E-02  0.1502695E+00
          2   -1    0    0  501    0  0.00000000000E+00  0.00000000000E+00  0.50279900803E+02  0.50279900803E+02  0.00000000000E+00 0.  1.
         -2   -1    0    0    0  501 -0.00000000000E+00 -0.00000000000E+00 -0.33311206436E+03  0.33311206436E+03  0.00000000000E+00 0.  1.
          2    1    1    2  502    0 -0.19443068590E+02  0.10730629924E+02  0.47436513526E+02  0.52377496601E+02  0.00000000000E+00 0.  1.
         -2    1    1    2    0  502  0.19443068590E+02 -0.10730629924E+02 -0.33026867708E+03  0.33101446856E+03  0.00000000000E+00 0.  1.
</event>
<event>
 4    1  0.5465458E+003  0.2331087E+02  0.7546771E-02  0.1488631E+00
          2   -1    0    0  501    0  0.00000000000E+00  0.00000000000E+00  0.34876234722E+03  0.34876234722E+03  0.00000000000E+00 0.  1.
         -2   -1    0    0    0  501 -0.00000000000E+00 -0.00000000000E+00 -0.34289924574E+01  0.34289924574E+01  0.00000000000E+00 0. -1.
          2    1    1    2  502    0  0.21392225614E+02 -0.92611627509E+01  0.30274148898E+03  0.30363762217E+03  0.00000000000E+00 0.  1.
         -2    1    1    2    0  502 -0.21392225614E+02  0.92611627509E+01  0.42591865788E+02  0.48553717505E+02  0.00000000000E+00 0. -1.
</event>
<event>
 4    1  0.5465458E+003  0.7098079E+02  0.7546771E-02  0.1226492E+00
          2   -1    0    0  501    0  0.00000000000E+00  0.00000000000E+00  0.39223768458E+03  0.39223768458E+03  0.00000000000E+00 0. -1.
         -2   -1    0    0    0  501 -0.00000000000E+00 -0.00000000000E+00 -0.16356925941E+02  0.16356925941E+02  0.00000000000E+00 0. -1.
          2    1    1    2  502    0  0.23898468822E+02 -0.66836636346E+02  0.28260499306E+03  0.29138266056E+03  0.00000000000E+00 0. -1.
         -2    1    1    2    0  502 -0.23898468822E+02  0.66836636346E+02  0.93275765578E+02  0.11721194996E+03  0.00000000000E+00 0. -1.
</event>
<event>
 4    1  0.5465458E+003  0.2117707E+02  0.7546771E-02  0.1516752E+00
          2   -1    0    0  501    0  0.00000000000E+00  0.00000000000E+00  0.72332765470E+03  0.72332765470E+03  0.00000000000E+00 0. -1.
         -2   -1    0    0    0  501 -0.00000000000E+00 -0.00000000000E+00 -0.48039441774E+02  0.48039441774E+02  0.00000000000E+00 0. -1.
          2    1    1    2  502    0  0.20009045966E+02 -0.69358890311E+01  0.72083071460E+03  0.72114172503E+03  0.00000000000E+00 0. -1.
         -2    1    1    2    0  502 -0.20009045966E+02  0.69358890311E+01 -0.45542501675E+02  0.50225371436E+02  0.00000000000E+00 0. -1.
</event>
<event>
 4    1  0.5465458E+003  0.2109180E+02  0.7546771E-02  0.1517958E+00
          2   -1    0    0  501    0  0.00000000000E+00  0.00000000000E+00  0.35065927977E+02  0.35065927977E+02  0.00000000000E+00 0.  1.
         -2   -1    0    0    0  501 -0.00000000000E+00 -0.00000000000E+00 -0.13501403240E+02  0.13501403240E+02  0.00000000000E+00 0.  1.
          2    1    1    2  502    0 -0.65849135744E+01 -0.20037542411E+02  0.16748156637E+02  0.26932600012E+02  0.00000000000E+00 0.  1.
         -2    1    1    2    0  502  0.65849135744E+01  0.20037542411E+02  0.48163680997E+01  0.21634731205E+02  0.00000000000E+00 0.  1.
</event>
<event>
 4    1  0.5465458E+003  0.2278485E+02  0.7546771E-02  0.1495218E+00
          2   -1    0    0  501    0  0.00000000000E+00  0.00000000000E+00  0.11578947166E+04  0.11578947166E+04  0.00000000000E+00 0. -1.
         -2   -1    0    0    0  501 -0.00000000000E+00 -0.00000000000E+00 -0.38804991676E+01  0.38804991676E+01  0.00000000000E+00 0. -1.
          2    1    1    2  502    0 -0.14856968028E+02  0.17274829015E+02  0.11233068600E+04  0.11235379170E+04  0.00000000000E+00 0. -1.
         -2    1    1    2    0  502  0.14856968028E+02 -0.17274829015E+02  0.30707357433E+02  0.38237298766E+02  0.00000000000E+00 0. -1.
</event>
<event>
 4    1  0.5465458E+003  0.2678738E+02  0.7546771E-02  0.1449756E+00
          2   -1    0    0  501    0  0.00000000000E+00  0.00000000000E+00  0.24763476434E+02  0.24763476434E+02  0.00000000000E+00 0. -1.
         -2   -1    0    0    0  501 -0.00000000000E+00 -0.00000000000E+00 -0.11597888521E+03  0.11597888521E+03  0.00000000000E+00 0.  1.
          2    1    1    2  502    0 -0.26296621583E+02 -0.51040400273E+01  0.15341842845E+02  0.30869656188E+02  0.00000000000E+00 0. -1.
         -2    1    1    2    0  502  0.26296621583E+02  0.51040400273E+01 -0.10655725162E+03  0.10987270546E+03  0.00000000000E+00 0.  1.
</event>
<event>
 4    1  0.5465458E+003  0.2145045E+02  0.7546771E-02  0.1512930E+00
          2   -1    0    0  501    0  0.00000000000E+00  0.00000000000E+00  0.97633116533E+03  0.97633116533E+03  0.00000000000E+00 0. -1.
         -2   -1    0    0    0  501 -0.00000000000E+00 -0.00000000000E+00 -0.77589485012E+00  0.77589485012E+00  0.00000000000E+00 0.  1.
          2    1    1    2  502    0 -0.19235989235E+02  0.94920324048E+01  0.79389554020E+03  0.79418527480E+03  0.00000000000E+00 0. -1.
         -2    1    1    2    0  502  0.19235989235E+02 -0.94920324048E+01  0.18165973029E+03  0.18292178539E+03  0.00000000000E+00 0.  1.
</event>
<event>
 4    1  0.5465458E+003  0.2884658E+02  0.7546771E-02  0.1429892E+00
          2   -1    0    0  501    0  0.00000000000E+00  0.00000000000E+00  0.12196919535E+04  0.12196919535E+04  0.00000000000E+00 0.  1.
         -2   -1    0    0    0  501 -0.00000000000E+00 -0.00000000000E+00 -0.97952426273E+00  0.97952426273E+00  0.00000000000E+00 0.  1.
          2    1    1    2  502    0  0.84052001225E+01  0.27594882821E+02  0.94559342943E+03  0.94603332855E+03  0.00000000000E+00 0.  1.
         -2    1    1    2    0  502 -0.84052001225E+01 -0.27594882821E+02  0.27311899981E+03  0.27463814921E+03  0.00000000000E+00 0.  1.
</event>
<event>
 4    1  0.5465458E+003  0.2766945E+02  0.7546771E-02  0.1440997E+00
          2   -1    0    0  501    0  0.00000000000E+00  0.00000000000E+00  0.20510297224E+03  0.20510297224E+03  0.00000000000E+00 0. -1.
         -2   -1    0    0    0  501 -0.00000000000E+00 -0.00000000000E+00 -0.72967942043E+02  0.72967942043E+02  0.00000000000E+00 0.  1.
          2    1    1    2  502    0 -0.49613915090E+01  0.27220999618E+02  0.20150003814E+03  0.20339091326E+03  0.00000000000E+00 0. -1.
         -2    1    1    2    0  502  0.49613915090E+01 -0.27220999618E+02 -0.69365007944E+02  0.74680001024E+02  0.00000000000E+00 0.  1.
</event>
<event>
 4    1  0.5465458E+003  0.2200888E+02  0.7546771E-02  0.1505333E+00
          2   -1    0    0  501    0  0.00000000000E+00  0.00000000000E+00  0.30201996951E+03  0.30201996951E+03  0.00000000000E+00 0.  1.
         -2   -1    0    0    0  501 -0.00000000000E+00 -0.00000000000E+00 -0.17546671355E+01  0.17546671355E+01  0.00000000000E+00 0.  1.
          2    1    1    2  502    0  0.20746362076E+02  0.73470514646E+01  0.19466428892E+03  0.19590450757E+03  0.00000000000E+00 0.  1.
         -2    1    1    2    0  502 -0.20746362076E+02 -0.73470514646E+01  0.10560101346E+03  0.10787012908E+03  0.00000000000E+00 0.  1.
</event>
<event>
 4    1  0.5465458E+003  0.2231206E+02  0.7546771E-02  0.1501322E+00
          2   -1    0    0  501    0  0.00000000000E+00  0.00000000000E+00  0.27260842785E+02  0.27260842785E+02  0.00000000000E+00 0. -1.
         -2   -1    0    0    0  501 -0.00000000000E+00 -0.00000000000E+00 -0.42000025972E+02  0.42000025972E+02  0.00000000000E+00 0. -1.
          2    1    1    2  502    0  0.58831206060E+01 -0.21522478426E+02  0.18665468777E+02  0.29089996740E+02  0.00000000000E+00 0. -1.
         -2    1    1    2    0  502 -0.58831206060E+01  0.21522478426E+02 -0.33404651964E+02  0.40170872016E+02  0.00000000000E+00 0. -1.
</event>
<event>
 4    1  0.5465458E+003  0.2464038E+02  0.7546771E-02  0.1472867E+00
          2   -1    0    0  501    0  0.00000000000E+00  0.00000000000E+00  0.28268394353E+03  0.28268394353E+03  0.00000000000E+00 0.  1.
         -2   -1    0    0    0  501 -0.00000000000E+00 -0.00000000000E+00 -0.17381863199E+02  0.17381863199E+02  0.00000000000E+00 0.  1.
          2    1    1    2  502    0 -0.24037059583E+02 -0.54192341036E+01  0.27310896202E+03  0.27421825881E+03  0.00000000000E+00 0.  1.
         -2    1    1    2    0  502  0.24037059583E+02  0.54192341036E+01 -0.78068816861E+01  0.25847547917E+02  0.00000000000E+00 0.  1.
</event>
<event>
 4    1  0.5465458E+003  0.3264139E+02  0.7546771E-02  0.1397949E+00
          2   -1    0    0  501    0  0.00000000000E+00  0.00000000000E+00  0.16797006604E+04  0.16797006604E+04  0.00000000000E+00 0.  1.
         -2   -1    0    0    0  501 -0.00000000000E+00 -0.00000000000E+00 -0.59500795764E+01  0.59500795764E+01  0.00000000000E+00 0. -1.
          2    1    1    2  502    0  0.89128621474E+01 -0.31400976147E+02  0.16335096898E+04  0.16338357834E+04  0.00000000000E+00 0.  1.
         -2    1    1    2    0  502 -0.89128621474E+01  0.31400976147E+02  0.40240890979E+02  0.51814956542E+02  0.00000000000E+00 0. -1.
</event>
<event>
 4    1  0.5465458E+003  0.2071759E+02  0.7546771E-02  0.1523335E+00
          2   -1    0    0  501    0  0.00000000000E+00  0.00000000000E+00  0.24059123686E+02  0.24059123686E+02  0.00000000000E+00 0.  1.
         -2   -1    0    0    0  501 -0.00000000000E+00 -0.00000000000E+00 -0.28007758138E+02  0.28007758138E+02  0.00000000000E+00 0. -1.
          2    1    1    2  502    0  0.15485453500E+02 -0.13762969477E+02  0.13711299602E+02  0.24843879240E+02  0.00000000000E+00 0.  1.
         -2    1    1    2    0  502 -0.15485453500E+02  0.13762969477E+02 -0.17659934054E+02  0.27223002584E+02  0.00000000000E+00 0. -1.
</event>
<event>
 4    1  0.5465458E+003  0.2028527E+02  0.7546771E-02  0.1529719E+00
          2   -1    0    0  501    0  0.00000000000E+00  0.00000000000E+00  0.11027320151E+03  0.11027320151E+03  0.00000000000E+00 0. -1.
         -2   -1    0    0    0  501 -0.00000000000E+00 -0.00000000000E+00 -0.53976872028E+01  0.53976872028E+01  0.00000000000E+00 0.  1.
          2    1    1    2  502    0  0.17312056564E+02 -0.10572835172E+02  0.84570146688E+02  0.86968970655E+02  0.00000000000E+00 0. -1.
         -2    1    1    2    0  502 -0.17312056564E+02  0.10572835172E+02  0.20305367622E+02  0.28701918060E+02  0.00000000000E+00 0.  1.
</event>
<event>
 4    1  0.6400018E+003  0.2565578E+02  0.7546771E-02  0.1461599E+00
          2   -1    0    0  501    0  0.00000000000E+00  0.00000000000E+00  0.12612291097E+04  0.12612291097E+04  0.00000000000E+00 0. -1.
         -2   -1    0    0    0  501 -0.00000000000E+00 -0.00000000000E+00 -0.19409188140E+03  0.19409188140E+03  0.00000000000E+00 0. -1.
          2    1    1    2  502    0 -0.44570682963E+01  0.25265656647E+02  0.12602501609E+04  0.12605112799E+04  0.00000000000E+00 0. -1.
         -2    1    1    2    0  502  0.44570682963E+01 -0.25265656647E+02 -0.19311293254E+03  0.19480971120E+03  0.00000000000E+00 0. -1.
</event>
<event>
 4    1  0.5465458E+003  0.2947979E+02  0.7546771E-02  0.1424172E+00
          2   -1    0    0  501    0  0.00000000000E+00  0.00000000000E+00  0.75340826416E+03  0.75340826416E+03  0.00000000000E+00 0. -1.
         -2   -1    0    0    0  501 -0.00000000000E+00 -0.00000000000E+00 -0.18068461327E+01  0.18068461327E+01  0.00000000000E+00 0. -1.
          2    1    1    2  502    0  0.16119785962E+02 -0.24682193841E+02  0.60286611637E+03  0.60358645815E+03  0.00000000000E+00 0. -1.
         -2    1    1    2    0  502 -0.16119785962E+02  0.24682193841E+02  0.14873530166E+03  0.15162865215E+03  0.00000000000E+00 0. -1.
</event>
<event>
 4    1  0.5465458E+003  0.2053905E+02  0.7546771E-02  0.1525949E+00
          2   -1    0    0  501    0  0.00000000000E+00  0.00000000000E+00  0.75945421892E+01  0.75945421892E+01  0.00000000000E+00 0.  1.
         -2   -1    0    0    0  501 -0.00000000000E+00 -0.00000000000E+00 -0.69348269864E+02  0.69348269864E+02  0.00000000000E+00 0. -1.
          2    1    1    2  502    0 -0.99251880824E+01 -0.17981748232E+02 -0.13714279571E+02  0.24696843768E+02  0.00000000000E+00 0.  1.
         -2    1    1    2    0  502  0.99251880824E+01  0.17981748232E+02 -0.48039448103E+02  0.52245968285E+02  0.00000000000E+00 0. -1.
</event>
<event>
 4    1  0.5465458E+003  0.2752487E+02  0.7546771E-02  0.1442406E+00
          2   -1    0    0  501    0  0.00000000000E+00  0.00000000000E+00  0.71854598025E+03  0.71854598025E+03  0.00000000000E+00 0. -1.
         -2   -1    0    0    0  501 -0.00000000000E+00 -0.00000000000E+00 -0.11798879997E+02  0.11798879997E+02  0.00000000000E+00 0.  1.
          2    1    1    2  502    0  0.27524836719E+02  0.44554478173E-01  0.70184784483E+03  0.70238736885E+03  0.00000000000E+00 0. -1.
         -2    1    1    2    0  502 -0.27524836719E+02 -0.44554478173E-01  0.48992554175E+01  0.27957491396E+02  0.00000000000E+00 0.  1.
</event>
<event>
 4    1  0.5465458E+003  0.3080947E+02  0.7546771E-02  0.1412690E+00
          2   -1    0    0  501    0  0.00000000000E+00  0.00000000000E+00  0.77850187927E+03  0.77850187927E+03  0.00000000000E+00 0. -1.
         -2   -1    0    0    0  501 -0.00000000000E+00 -0.00000000000E+00 -0.43547993565E+02  0.43547993565E+02  0.00000000000E+00 0. -1.
          2    1    1    2  502    0  0.19596391931E+02 -0.23774037864E+02  0.77270690939E+03  0.77332088506E+03  0.00000000000E+00 0. -1.
         -2    1    1    2    0  502 -0.19596391931E+02  0.23774037864E+02 -0.37753023679E+02  0.48728987780E+02  0.00000000000E+00 0. -1.
</event>
<event>
 4    1  0.5465458E+003  0.2709260E+02  0.7546771E-02  0.1446680E+00
          2   -1    0    0  501    0  0.00000000000E+00  0.00000000000E+00  0.72485728505E+01  0.72485728505E+01  0.00000000000E+00 0. -1.
         -2   -1    0    0    0  501 -0.00000000000E+00 -0.00000000000E+00 -0.15057952259E+03  0.15057952259E+03  0.00000000000E+00 0. -1.
          2    1    1    2  502    0 -0.21865504968E+02  0.15997143756E+02 -0.26503845750E+02  0.37900695975E+02  0.00000000000E+00 0. -1.
         -2    1    1    2    0  502  0.21865504968E+02 -0.15997143756E+02 -0.11682710399E+03  0.11992739947E+03  0.00000000000E+00 0. -1.
</event>
<event>
 4    1  0.5465458E+003  0.2512036E+02  0.7546771E-02  0.1467461E+00
          2   -1    0    0  501    0  0.00000000000E+00  0.00000000000E+00  0.16155199654E+04  0.16155199654E+04  0.00000000000E+00 0. -1.
         -2   -1    0    0    0  501 -0.00000000000E+00 -0.00000000000E+00 -0.16850365590E+01  0.16850365590E+01  0.00000000000E+00 0.  1.
          2    1    1    2  502    0  0.19234027232E+02 -0.16158117720E+02  0.15156293462E+04  0.15158375070E+04  0.00000000000E+00 0. -1.
         -2    1    1    2    0  502 -0.19234027232E+02  0.16158117720E+02  0.98205582615E+02  0.10136749493E+03  0.00000000000E+00 0.  1.
</event>
<event>
 4    1  0.5465458E+003  0.2519931E+02  0.7546771E-02  0.1466586E+00
          2   -1    0    0  501    0  0.00000000000E+00  0.00000000000E+00  0.16235575205E+02  0.16235575205E+02  0.00000000000E+00 0.  1.
         -2   -1    0    0    0  501 -0.00000000000E+00 -0.00000000000E+00 -0.63570973038E+03  0.63570973038E+03  0.00000000000E+00 0. -1.
          2    1    1    2  502    0 -0.21925726920E+02  0.12420459857E+02  0.60486858608E+01  0.25915090675E+02  0.00000000000E+00 0.  1.
         -2    1    1    2    0  502  0.21925726920E+02 -0.12420459857E+02 -0.62552284104E+03  0.62603021491E+03  0.00000000000E+00 0. -1.
</event>
<event>
 4    1  0.5465458E+003  0.2197228E+02  0.7546771E-02  0.1505823E+00
          2   -1    0    0  501    0  0.00000000000E+00  0.00000000000E+00  0.53213560036E+03  0.53213560036E+03  0.00000000000E+00 0.  1.
         -2   -1    0    0    0  501 -0.00000000000E+00 -0.00000000000E+00 -0.10087703414E+02  0.10087703414E+02  0.00000000000E+00 0.  1.
          2    1    1    2  502    0  0.26997030913E+01 -0.21805791436E+02  0.51965701882E+03  0.52012133022E+03  0.00000000000E+00 0.  1.
         -2    1    1    2    0  502 -0.26997030913E+01  0.21805791436E+02  0.23908781256E+01  0.22101973557E+02  0.00000000000E+00 0.  1.
</event>
<event>
 4    1  0.5465458E+003  0.3023337E+02  0.7546771E-02  0.1417579E+00
          2   -1    0    0  501    0  0.00000000000E+00  0.00000000000E+00  0.11166947334E+04  0.11166947334E+04  0.00000000000E+00 0. -1.
         -2   -1    0    0    0  501 -0.00000000000E+00 -0.00000000000E+00 -0.18205075386E+01  0.18205075386E+01  0.00000000000E+00 0.  1.
          2    1    1    2  502    0 -0.14845406847E+02  0.26337621469E+02  0.97233675291E+03  0.97280667014E+03  0.00000000000E+00 0. -1.
         -2    1    1    2    0  502  0.14845406847E+02 -0.26337621469E+02  0.14253747299E+03  0.14570857084E+03  0.00000000000E+00 0.  1.
</event>
<event>
 4    1  0.5465458E+003  0.2313428E+02  0.7546771E-02  0.1490819E+00
          2   -1    0    0  501    0  0.00000000000E+00  0.00000000000E+00  0.32821571523E+03  0.32821571523E+03  0.00000000000E+00 0.  1.
         -2   -1    0    0    0  501 -0.00000000000E+00 -0.00000000000E+00 -0.48207932346E+02  0.48207932346E+02  0.00000000000E+00 0.  1.
          2    1    1    2  502    0 -0.19196094399E+02 -0.12911428551E+02  0.32500522723E+03  0.32582755063E+03  0.00000000000E+00 0.  1.
         -2    1    1    2    0  502  0.19196094399E+02  0.12911428551E+02 -0.44997444348E+02  0.50596096937E+02  0.00000000000E+00 0.  1.
</event>
<event>
 4    1  0.5465458E+003  0.2635551E+02  0.7546771E-02  0.1454192E+00
          2   -1    0    0  501    0  0.00000000000E+00  0.00000000000E+00  0.77983830018E+03  0.77983830018E+03  0.00000000000E+00 0.  1.
         -2   -1    0    0    0  501 -0.00000000000E+00 -0.00000000000E+00 -0.10417753338E+01  0.10417753338E+01  0.00000000000E+00 0.  1.
          2    1    1    2  502    0  0.13488201658E+02 -0.22642455051E+02  0.24072086228E+03  0.24215933988E+03  0.00000000000E+00 0.  1.
         -2    1    1    2    0  502 -0.13488201658E+02  0.22642455051E+02  0.53807566256E+03  0.53872073563E+03  0.00000000000E+00 0.  1.
</event>
<event>
 4    1  0.5465458E+003  0.2391449E+02  0.7546771E-02  0.1481323E+00
          2   -1    0    0  501    0  0.00000000000E+00  0.00000000000E+00  0.12171951531E+04  0.12171951531E+04  0.00000000000E+00 0.  1.
         -2   -1    0    0    0  501 -0.00000000000E+00 -0.00000000000E+00 -0.65803769470E+01  0.65803769470E+01  0.00000000000E+00 0.  1.
          2    1    1    2  502    0 -0.22191273066E+02  0.89134820641E+01  0.11949455848E+04  0.11951848616E+04  0.00000000000E+00 0.  1.
         -2    1    1    2    0  502  0.22191273066E+02 -0.89134820641E+01  0.15669191282E+02  0.28590668377E+02  0.00000000000E+00 0.  1.
</event>
<event>
 4    1  0.5465458E+003  0.2808001E+02  0.7546771E-02  0.1437051E+00
          2   -1    0    0  501    0  0.00000000000E+00  0.00000000000E+00  0.10237376237E+03  0.10237376237E+03  0.00000000000E+00 0. -1.
         -2   -1    0    0    0  501 -0.00000000000E+00 -0.00000000000E+00 -0.15907865370E+02  0.15907865370E+02  0.00000000000E+00 0.  1.
          2    1    1    2  502    0  0.27960323738E+02 -0.25898083769E+01  0.85708837680E+02  0.90191416817E+02  0.00000000000E+00 0. -1.
         -2    1    1    2    0  502 -0.27960323738E+02  0.25898083769E+01  0.75705932106E+00  0.28090210924E+02  0.00000000000E+00 0.  1.
</event>
<event>
 4    1  0.5465458E+003  0.2687285E+02  0.7546771E-02  0.1448890E+00
          2   -1    0    0  501    0  0.00000000000E+00  0.00000000000E+00  0.27912060191E+03  0.27912060191E+03  0.00000000000E+00 0. -1.
         -2   -1    0    0    0  501 -0.00000000000E+00 -0.00000000000E+00 -0.38193961271E+02  0.38193961271E+02  0.00000000000E+00 0. -1.
          2    1    1    2  502    0  0.18022457270E+02  0.19933423251E+02  0.27365270998E+03  0.27496900918E+03  0.00000000000E+00 0. -1.
         -2    1    1    2    0  502 -0.18022457270E+02 -0.19933423251E+02 -0.32726069346E+02  0.42345553998E+02  0.00000000000E+00 0. -1.
</event>
<event>
 4    1  0.5465458E+003  0.3199883E+02  0.7546771E-02  0.1402986E+00
          2   -1    0    0  501    0  0.00000000000E+00  0.00000000000E+00  0.66457996726E+03  0.66457996726E+03  0.00000000000E+00 0. -1.
         -2   -1    0    0    0  501 -0.00000000000E+00 -0.00000000000E+00 -0.15426240860E+01  0.15426240860E+01  0.00000000000E+00 0. -1.
          2    1    1    2  502    0  0.18947158816E+02 -0.25786223617E+02  0.31978269697E+03  0.32137967801E+03  0.00000000000E+00 0. -1.
         -2    1    1    2    0  502 -0.18947158816E+02  0.25786223617E+02  0.34325464620E+03  0.34474291333E+03  0.00000000000E+00 0. -1.
</event>
<event>
 4    1  0.5465458E+003  0.2050896E+02  0.7546771E-02  0.1526392E+00
          2   -1    0    0  501    0  0.00000000000E+00  0.00000000000E+00  0.12486542370E+03  0.12486542370E+03  0.00000000000E+00 0.  1.
         -2   -1    0    0    0  501 -0.00000000000E+00 -0.00000000000E+00 -0.41712243099E+01  0.41712243099E+01  0.00000000000E+00 0. -1.
          2    1    1    2  502    0  0.16242068649E+02 -0.12522478576E+02  0.88649091343E+02  0.90990541594E+02  0.00000000000E+00 0.  1.
         -2    1    1    2    0  502 -0.16242068649E+02  0.12522478576E+02  0.32045108050E+02  0.38046106419E+02  0.00000000000E+00 0. -1.
</event>
<event>
 4    1  0.5465458E+003  0.2781414E+02  0.7546771E-02  0.1439597E+00
          2   -1    0    0  501    0  0.00000000000E+00  0.00000000000E+00  0.52618517372E+03  0.52618517372E+03  0.00000000000E+00 0. -1.
         -2   -1    0    0    0  501 -0.00000000000E+00 -0.00000000000E+00 -0.22569006561E+01  0.22569006561E+01  0.00000000000E+00 0. -1.
          2    1    1    2  502    0  0.27803817180E+02 -0.75757762279E+00  0.41795560831E+03  0.41888007435E+03  0.00000000000E+00 0. -1.
         -2    1    1    2    0  502 -0.27803817180E+02  0.75757762279E+00  0.10597266475E+03  0.10956200002E+03  0.00000000000E+00 0. -1.
</event>
<event>
 4    1  0.5465458E+003  0.2551742E+02  0.7546771E-02  0.1463097E+00
          2   -1    0    0  501    0  0.00000000000E+00  0.00000000000E+00  0.26061696466E+03  0.26061696466E+03  0.00000000000E+00 0. -1.
         -2   -1    0    0    0  501 -0.00000000000E+00 -0.00000000000E+00 -0.35779671968E+01  0.35779671968E+01  0.00000000000E+00 0. -1.
          2    1    1    2  502    0  0.23820492614E+02  0.91500294367E+01  0.20107840758E+03  0.20269105777E+03  0.00000000000E+00 0. -1.
         -2    1    1    2    0  502 -0.23820492614E+02 -0.91500294367E+01  0.55960589892E+02  0.61503874091E+02  0.00000000000E+00 0. -1.
</event>
<event>
 4    1  0.5465458E+003  0.2354933E+02  0.7546771E-02  0.1485713E+00
          2   -1    0    0  501    0  0.00000000000E+00  0.00000000000E+00  0.34139839435E+03  0.34139839435E+03  0.00000000000E+00 0. -1.
         -2   -1    0    0    0  501 -0.00000000000E+00 -0.00000000000E+00 -0.25169884287E+01  0.25169884287E+01  0.00000000000E+00 0. -1.
          2    1    1    2  502    0 -0.10783013400E+02  0.20935562878E+02  0.27184166660E+03  0.27285978610E+03  0.00000000000E+00 0. -1.
         -2    1    1    2    0  502  0.10783013400E+02 -0.20935562878E+02  0.67039739318E+02  0.71055596675E+02  0.00000000000E+00 0. -1.
</event>
<event>
 4    1  0.5465458E+003  0.2282073E+02  0.7546771E-02  0.1494762E+00
          2   -1    0    0  501    0  0.00000000000E+00  0.00000000000E+00  0.62048653969E+03  0.62048653969E+03  0.00000000000E+00 0.  1.
         -2   -1    0    0    0  501 -0.00000000000E+00 -0.00000000000E+00 -0.61981944187E+03  0.61981944187E+03  0.00000000000E+00 0.  1.
          2    1    1    2  502    0  0.20246726633E+02 -0.10528816447E+02  0.62006651229E+03  0.62048631377E+03  0.00000000000E+00 0.  1.
         -2    1    1    2    0  502 -0.20246726633E+02  0.10528816447E+02 -0.61939941448E+03  0.61981966778E+03  0.00000000000E+00 0.  1.
</event>
<event>
 4    1  0.5465458E+003  0.2094763E+02  0.7546771E-02  0.1520014E+00
          2   -1    0    0  501    0  0.00000000000E+00  0.00000000000E+00  0.79318552141E+03  0.79318552141E+03  0.00000000000E+00 0.  1.
         -2   -1    0    0    0  501 -0.00000000000E+00 -0.00000000000E+00 -0.29724407467E+02  0.29724407467E+02  0.00000000000E+00 0. -1.
          2    1    1    2  502    0 -0.40481637403E+00 -0.20943722986E+02  0.78933863563E+03  0.78961654308E+03  0.00000000000E+00 0.  1.
         -2    1    1    2    0  502  0.40481637403E+00  0.20943722986E+02 -0.25877521689E+02  0.33293385793E+02  0.00000000000E+00 0. -1.
</event>
<event>
 4    1  0.5465458E+003  0.3799971E+02  0.7546771E-02  0.1360624E+00
          2   -1    0    0  501    0  0.00000000000E+00  0.00000000000E+00  0.13017881775E+04  0.13017881775E+04  0.00000000000E+00 0. -1.
         -2   -1    0    0    0  501 -0.00000000000E+00 -0.00000000000E+00 -0.25123876868E+01  0.25123876868E+01  0.00000000000E+00 0.  1.
          2    1    1    2  502    0 -0.37938515612E+02  0.21556418272E+01  0.11370071874E+04  0.11376420008E+04  0.00000000000E+00 0. -1.
         -2    1    1    2    0  502  0.37938515612E+02 -0.21556418272E+01  0.16226860245E+03  0.16665856444E+03  0.00000000000E+00 0.  1.
</event>
<event>
 4    1  0.5465458E+003  0.4331180E+02  0.7546771E-02  0.1330100E+00
          2   -1    0    0  501    0  0.00000000000E+00  0.00000000000E+00  0.35827124357E+03  0.35827124357E+03  0.00000000000E+00 0.  1.
         -2   -1    0    0    0  501 -0.00000000000E+00 -0.00000000000E+00 -0.57709200116E+01  0.57709200116E+01  0.00000000000E+00 0. -1.
          2    1    1    2  502    0 -0.20519654320E+02 -0.38142575958E+02  0.23166664483E+03  0.23568060302E+03  0.00000000000E+00 0.  1.
         -2    1    1    2    0  502  0.20519654320E+02  0.38142575958E+02  0.12083367873E+03  0.12836156056E+03  0.00000000000E+00 0. -1.
</event>
<event>
 4    1  0.6055979E+003  0.2459457E+02  0.7546771E-02  0.1473390E+00
          2   -1    0    0  501    0  0.00000000000E+00  0.00000000000E+00  0.12245579229E+04  0.12245579229E+04  0.00000000000E+00 0.  1.
         -2   -1    0    0    0  501 -0.00000000000E+00 -0.00000000000E+00 -0.26902559994E+03  0.26902559994E+03  0.00000000000E+00 0. -1.
          2    1    1    2  502    0  0.17500142299E+01  0.24532229171E+02  0.12238720012E+04  0.12241190989E+04  0.00000000000E+00 0.  1.
         -2    1    1    2    0  502 -0.17500142299E+01 -0.24532229171E+02 -0.26833967830E+03  0.26946442394E+03  0.00000000000E+00 0. -1.
</event>
<event>
 4    1  0.5465458E+003  0.2215589E+02  0.7546771E-02  0.1503379E+00
          2   -1    0    0  501    0  0.00000000000E+00  0.00000000000E+00  0.49970062350E+03  0.49970062350E+03  0.00000000000E+00 0.  1.
         -2   -1    0    0    0  501 -0.00000000000E+00 -0.00000000000E+00 -0.28128764760E+01  0.28128764760E+01  0.00000000000E+00 0. -1.
          2    1    1    2  502    0 -0.13980050605E+02 -0.17188418392E+02  0.45113269118E+03  0.45167642023E+03  0.00000000000E+00 0.  1.
         -2    1    1    2    0  502  0.13980050605E+02  0.17188418392E+02  0.45755055851E+02  0.50837079751E+02  0.00000000000E+00 0. -1.
</event>
<event>
 4    1  0.5465458E+003  0.2141692E+02  0.7546771E-02  0.1513395E+00
          2   -1    0    0  501    0  0.00000000000E+00  0.00000000000E+00  0.21887387693E+03  0.21887387693E+03  0.00000000000E+00 0.  1.
         -2   -1    0    0    0  501 -0.00000000000E+00 -0.00000000000E+00 -0.32595540405E+01  0.32595540405E+01  0.00000000000E+00 0.  1.
          2    1    1    2  502    0 -0.16776323404E+02 -0.13313132422E+02  0.17417568572E+03  0.17548747538E+03  0.00000000000E+00 0.  1.
         -2    1    1    2    0  502  0.16776323404E+02  0.13313132422E+02  0.41438637173E+02  0.46645955587E+02  0.00000000000E+00 0.  1.
</event>
<event>
 4    1  0.5465458E+003  0.2173185E+02  0.7546771E-02  0.1509067E+00
          2   -1    0    0  501    0  0.00000000000E+00  0.00000000000E+00  0.34988141465E+03  0.34988141465E+03  0.00000000000E+00 0.  1.
         -2   -1    0    0    0  501 -0.00000000000E+00 -0.00000000000E+00 -0.15748350476E+01  0.15748350476E+01  0.00000000000E+00 0. -1.
          2    1    1    2  502    0  0.21383319571E+02  0.38764331604E+01  0.24057959776E+03  0.24155913551E+03  0.00000000000E+00 0.  1.
         -2    1    1    2    0  502 -0.21383319571E+02 -0.38764331604E+01  0.10772698184E+03  0.10989711419E+03  0.00000000000E+00 0. -1.
</event>
<event>
 4    1  0.5465458E+003  0.8012846E+02  0.7546771E-02  0.1203550E+00
          2   -1    0    0  501    0  0.00000000000E+00  0.00000000000E+00  0.26077936911E+03  0.26077936911E+03  0.00000000000E+00 0. -1.
         -2   -1    0    0    0  501 -0.00000000000E+00 -0.00000000000E+00 -0.85429102180E+02  0.85429102180E+02  0.00000000000E+00 0.  1.
          2    1    1    2  502    0 -0.28966543454E+02  0.74709499128E+02  0.23372009521E+03  0.24707418482E+03  0.00000000000E+00 0. -1.
         -2    1    1    2    0  502  0.28966543454E+02 -0.74709499128E+02 -0.58369828283E+02  0.99134286467E+02  0.00000000000E+00 0.  1.
</event>
<event>
 4    1  0.5465458E+003  0.3189831E+02  0.7546771E-02  0.1403787E+00
          2   -1    0    0  501    0  0.00000000000E+00  0.00000000000E+00  0.66837299385E+01  0.66837299385E+01  0.00000000000E+00 0. -1.
         -2   -1    0    0    0  501 -0.00000000000E+00 -0.00000000000E+00 -0.26508680211E+03  0.26508680211E+03  0.00000000000E+00 0.  1.
          2    1    1    2  502    0  0.29715776101E+02 -0.11596336133E+02 -0.40540826577E+02  0.51585472573E+02  0.00000000000E+00 0. -1.
         -2    1    1    2    0  502 -0.29715776101E+02  0.11596336133E+02 -0.21786224559E+03  0.22018505947E+03  0.00000000000E+00 0.  1.
</event>
<event>
 4    1  0.5465458E+003  0.2541690E+02  0.7546771E-02  0.1464193E+00
          2   -1    0    0  501    0  0.00000000000E+00  0.00000000000E+00  0.33307156517E+03  0.33307156517E+03  0.00000000000E+00 0.  1.
         -2   -1    0    0    0  501 -0.00000000000E+00 -0.00000000000E+00 -0.36149763224E+01  0.36149763224E+01  0.00000000000E+00 0. -1.
          2    1    1    2  502    0 -0.46549307849E+01 -0.24987002773E+02  0.27933285800E+03  0.28048683436E+03  0.00000000000E+00 0.  1.
         -2    1    1    2    0  502  0.46549307849E+01  0.24987002773E+02  0.50123730843E+02  0.56199707133E+02  0.00000000000E+00 0. -1.
</event>
<event>
 4    1  0.5465458E+003  0.3569970E+02  0.7546771E-02  0.1375710E+00
          2   -1    0    0  501    0  0.00000000000E+00  0.00000000000E+00  0.21617027970E+02  0.21617027970E+02  0.00000000000E+00 0. -1.
         -2   -1    0    0    0  501 -0.00000000000E+00 -0.00000000000E+00 -0.10164843560E+03  0.10164843560E+03  0.00000000000E+00 0.  1.
          2    1    1    2  502    0 -0.22695247288E+02 -0.27557106390E+02 -0.73406746930E-01  0.35699772417E+02  0.00000000000E+00 0. -1.
         -2    1    1    2    0  502  0.22695247288E+02  0.27557106390E+02 -0.79958000886E+02  0.87565691157E+02  0.00000000000E+00 0.  1.
</event>
<event>
 4    1  0.5465458E+003  0.3719764E+02  0.7546771E-02  0.1365739E+00
          2   -1    0    0  501    0  0.00000000000E+00  0.00000000000E+00  0.97916197731E+02  0.97916197731E+02  0.00000000000E+00 0. -1.
         -2   -1    0    0    0  501 -0.00000000000E+00 -0.00000000000E+00 -0.88734397108E+02  0.88734397108E+02  0.00000000000E+00 0. -1.
          2    1    1    2  502    0  0.33461913286E+02  0.16246997436E+02  0.90163034348E+02  0.97534800606E+02  0.00000000000E+00 0. -1.
         -2    1    1    2    0  502 -0.33461913286E+02 -0.16246997436E+02 -0.80981233724E+02  0.89115794233E+02  0.00000000000E+00 0. -1.
</event>
<event>
 4    1  0.5465458E+003  0.2009192E+02  0.7546771E-02  0.1532635E+00
          2   -1    0    0  501    0  0.00000000000E+00  0.00000000000E+00  0.71867784761E+02  0.71867784761E+02  0.00000000000E+00 0.  1.
         -2   -1    0    0    0  501 -0.00000000000E+00 -0.00000000000E+00 -0.31058383669E+03  0.31058383669E+03  0.00000000000E+00 0. -1.
          2    1    1    2  502    0 -0.16032263451E+02 -0.12109983568E+02  0.70130690994E+02  0.72952032135E+02  0.00000000000E+00 0.  1.
         -2    1    1    2    0  502  0.16032263451E+02  0.12109983568E+02 -0.30884674292E+03  0.30949958932E+03  0.00000000000E+00 0. -1.
</event>
<event>
 4    1  0.5465458E+003  0.3509508E+02  0.7546771E-02  0.1379896E+00
          2   -1    0    0  501    0  0.00000000000E+00  0.00000000000E+00  0.73731688430E+03  0.73731688430E+03  0.00000000000E+00 0. -1.
         -2   -1    0    0    0  501 -0.00000000000E+00 -0.00000000000E+00 -0.29071278514E+03  0.29071278514E+03  0.00000000000E+00 0. -1.
          2    1    1    2  502    0 -0.43252782088E+01 -0.34827525993E+02  0.73583796311E+03  0.73667440064E+03  0.00000000000E+00 0. -1.
         -2    1    1    2    0  502  0.43252782088E+01  0.34827525993E+02 -0.28923386396E+03  0.29135526880E+03  0.00000000000E+00 0. -1.
</event>
<event>
 4    1  0.6087121E+003  0.2406989E+02  0.7546771E-02  0.1479483E+00
          2   -1    0    0  501    0  0.00000000000E+00  0.00000000000E+00  0.11361249792E+04  0.11361249792E+04  0.00000000000E+00 0.  1.
         -2   -1    0    0    0  501 -0.00000000000E+00 -0.00000000000E+00 -0.23677900586E+03  0.23677900586E+03  0.00000000000E+00 0. -1.
          2    1    1    2  502    0  0.99059052742E+01 -0.21937018715E+02  0.11353853855E+04  0.11356404948E+04  0.00000000000E+00 0.  1.
         -2    1    1    2    0  502 -0.99059052742E+01  0.21937018715E+02 -0.23603941214E+03  0.23726349031E+03  0.00000000000E+00 0. -1.
</event>
<event>
 4    1  0.5465458E+003  0.2913483E+02  0.7546771E-02  0.1427267E+00
          2   -1    0    0  501    0  0.00000000000E+00  0.00000000000E+00  0.21935339976E+04  0.21935339976E+04  0.00000000000E+00 0.  1.
         -2   -1    0    0    0  501 -0.00000000000E+00 -0.00000000000E+00 -0.73468193107E+00  0.73468193107E+00  0.00000000000E+00 0.  1.
          2    1    1    2  502    0 -0.11857370988E+02 -0.26612793622E+02  0.18511758035E+04  0.18514050592E+04  0.00000000000E+00 0.  1.
         -2    1    1    2    0  502  0.11857370988E+02  0.26612793622E+02  0.34162351220E+03  0.34286362029E+03  0.00000000000E+00 0.  1.
</event>
<event>
 4    1  0.5465458E+003  0.2627056E+02  0.7546771E-02  0.1455076E+00
          2   -1    0    0  501    0  0.00000000000E+00  0.00000000000E+00  0.62360038516E+03  0.62360038516E+03  0.00000000000E+00 0.  1.
         -2   -1    0    0    0  501 -0.00000000000E+00 -0.00000000000E+00 -0.55144526596E+01  0.55144526596E+01  0.00000000000E+00 0. -1.
          2    1    1    2  502    0  0.24341581564E+02 -0.98807876189E+01  0.59026996845E+03  0.59085427832E+03  0.00000000000E+00 0.  1.
         -2    1    1    2    0  502 -0.24341581564E+02  0.98807876189E+01  0.27815964047E+02  0.38260559495E+02  0.00000000000E+00 0. -1.
</event>
<event>
 4    1  0.5465458E+003  0.2218026E+02  0.7546771E-02  0.1503056E+00
          2   -1    0    0  501    0  0.00000000000E+00  0.00000000000E+00  0.29015821263E+03  0.29015821263E+03  0.00000000000E+00 0. -1.
         -2   -1    0    0    0  501 -0.00000000000E+00 -0.00000000000E+00 -0.29262043745E+01  0.29262043745E+01  0.00000000000E+00 0. -1.
          2    1    1    2  502    0 -0.22112110017E+02 -0.17373941865E+01  0.23865172039E+03  0.23968021944E+03  0.00000000000E+00 0. -1.
         -2    1    1    2    0  502  0.22112110017E+02  0.17373941865E+01  0.48580287871E+02  0.53404197565E+02  0.00000000000E+00 0. -1.
</event>
<event>
 4    1  0.5465458E+003  0.2080848E+02  0.7546771E-02  0.1522017E+00
          2   -1    0    0  501    0  0.00000000000E+00  0.00000000000E+00  0.81676595318E+03  0.81676595318E+03  0.00000000000E+00 0. -1.
         -2   -1    0    0    0  501 -0.00000000000E+00 -0.00000000000E+00 -0.59841858012E+00  0.59841858012E+00  0.00000000000E+00 0. -1.
          2    1    1    2  502    0 -0.13834920730E+02  0.15543100645E+02  0.54613929795E+03  0.54653556679E+03  0.00000000000E+00 0. -1.
         -2    1    1    2    0  502  0.13834920730E+02 -0.15543100645E+02  0.27002823665E+03  0.27082880497E+03  0.00000000000E+00 0. -1.
</event>
<event>
 4    1  0.5465458E+003  0.3190704E+02  0.7546771E-02  0.1403717E+00
          2   -1    0    0  501    0  0.00000000000E+00  0.00000000000E+00  0.15379934727E+02  0.15379934727E+02  0.00000000000E+00 0. -1.
         -2   -1    0    0    0  501 -0.00000000000E+00 -0.00000000000E+00 -0.13587187872E+03  0.13587187872E+03  0.00000000000E+00 0. -1.
          2    1    1    2  502    0 -0.31906953600E+02 -0.72973045964E-01 -0.60891286039E+01  0.32482864718E+02  0.00000000000E+00 0. -1.
         -2    1    1    2    0  502  0.31906953600E+02  0.72973045964E-01 -0.11440281539E+03  0.11876894873E+03  0.00000000000E+00 0. -1.
</event>
<event>
 4    1  0.5465458E+003  0.4912536E+02  0.7546771E-02  0.1302010E+00
          2   -1    0    0  501    0  0.00000000000E+00  0.00000000000E+00  0.16891751455E+02  0.16891751455E+02  0.00000000000E+00 0. -1.
         -2   -1    0    0    0  501 -0.00000000000E+00 -0.00000000000E+00 -0.29247000081E+03  0.29247000081E+03  0.00000000000E+00 0. -1.
          2    1    1    2  502    0  0.20520267436E+02  0.44634286033E+02 -0.27161448031E+02  0.56134170738E+02  0.00000000000E+00 0. -1.
         -2    1    1    2    0  502 -0.20520267436E+02 -0.44634286033E+02 -0.24841680132E+03  0.25322758152E+03  0.00000000000E+00 0. -1.
</event>
<event>
 4    1  0.5465458E+003  0.4237389E+02  0.7546771E-02  0.1335110E+00
          2   -1    0    0  501    0  0.00000000000E+00  0.00000000000E+00  0.11696143045E+04  0.11696143045E+04  0.00000000000E+00 0. -1.
         -2   -1    0    0    0  501 -0.00000000000E+00 -0.00000000000E+00 -0.65251110043E+01  0.65251110043E+01  0.00000000000E+00 0. -1.
          2    1    1    2  502    0  0.39706481530E+02  0.14796693696E+02  0.10958048191E+04  0.10966237953E+04  0.00000000000E+00 0. -1.
         -2    1    1    2    0  502 -0.39706481530E+02 -0.14796693696E+02  0.67284374337E+02  0.79515620162E+02  0.00000000000E+00 0. -1.
</event>
<event>
 4    1  0.5465458E+003  0.4441066E+02  0.7546771E-02  0.1324413E+00
          2   -1    0    0  501    0  0.00000000000E+00  0.00000000000E+00  0.86720721032E+03  0.86720721032E+03  0.00000000000E+00 0. -1.
         -2   -1    0    0    0  501 -0.00000000000E+00 -0.00000000000E+00 -0.89257909327E+01  0.89257909327E+01  0.00000000000E+00 0. -1.
          2    1    1    2  502    0 -0.15041384232E+02  0.41785928865E+02  0.80730065159E+03  0.80852127316E+03  0.00000000000E+00 0. -1.
         -2    1    1    2    0  502  0.15041384232E+02 -0.41785928865E+02  0.50980767796E+02  0.67611728093E+02  0.00000000000E+00 0. -1.
</event>
<event>
 4    1  0.5465458E+003  0.2207357E+02  0.7546771E-02  0.1504471E+00
          2   -1    0    0  501    0  0.00000000000E+00  0.00000000000E+00  0.28202002652E+03  0.28202002652E+03  0.00000000000E+00 0. -1.
         -2   -1    0    0    0  501 -0.00000000000E+00 -0.00000000000E+00 -0.89333062113E+01  0.89333062113E+01  0.00000000000E+00 0.  1.
          2    1    1    2  502    0  0.18557348539E+02 -0.11952709245E+02  0.26719740889E+03  0.26810762346E+03  0.00000000000E+00 0. -1.
         -2    1    1    2    0  502 -0.18557348539E+02  0.11952709245E+02  0.58893114264E+01  0.22845709273E+02  0.00000000000E+00 0.  1.
</event>
<event>
 4    1  0.5465458E+003  0.2262488E+02  0.7546771E-02  0.1497263E+00
          2   -1    0    0  501    0  0.00000000000E+00  0.00000000000E+00  0.62857859920E+03  0.62857859920E+03  0.00000000000E+00 0. -1.
         -2   -1    0    0    0  501 -0.00000000000E+00 -0.00000000000E+00 -0.44754683115E+03  0.44754683115E+03  0.00000000000E+00 0. -1.
          2    1    1    2  502    0 -0.96851243491E+01  0.20447089197E+02  0.62808884858E+03  0.62849621065E+03  0.00000000000E+00 0. -1.
         -2    1    1    2    0  502  0.96851243491E+01 -0.20447089197E+02 -0.44705708053E+03  0.44762921971E+03  0.00000000000E+00 0. -1.
</event>
<event>
 4    1  0.5465458E+003  0.2113794E+02  0.7546771E-02  0.1517304E+00
          2   -1    0    0  501    0  0.00000000000E+00  0.00000000000E+00  0.54647962214E+03  0.54647962214E+03  0.00000000000E+00 0.  1.
         -2   -1    0    0    0  501 -0.00000000000E+00 -0.00000000000E+00 -0.47356743179E+01  0.47356743179E+01  0.00000000000E+00 0. -1.
          2    1    1    2  502    0  0.13543457219E+02 -0.16229207001E+02  0.52156116313E+03  0.52198932870E+03  0.00000000000E+00 0.  1.
         -2    1    1    2    0  502 -0.13543457219E+02  0.16229207001E+02  0.20182784690E+02  0.29225967754E+02  0.00000000000E+00 0. -1.
</event>
<event>
 4    1  0.5465458E+003  0.2607931E+02  0.7546771E-02  0.1457082E+00
          2   -1    0    0  501    0  0.00000000000E+00  0.00000000000E+00  0.10302559756E+04  0.10302559756E+04  0.00000000000E+00 0.  1.
         -2   -1    0    0    0  501 -0.00000000000E+00 -0.00000000000E+00 -0.89981811312E+00  0.89981811312E+00  0.00000000000E+00 0.  1.
          2    1    1    2  502    0  0.24831481851E+02  0.79704341628E+01  0.78076041637E+03  0.78119585129E+03  0.00000000000E+00 0.  1.
         -2    1    1    2    0  502 -0.24831481851E+02 -0.79704341628E+01  0.24859574108E+03  0.24995994238E+03  0.00000000000E+00 0.  1.
</event>
<event>
 4    1  0.5465458E+003  0.2560083E+02  0.7546771E-02  0.1462193E+00
          2   -1    0    0  501    0  0.00000000000E+00  0.00000000000E+00  0.10130944521E+04  0.10130944521E+04  0.00000000000E+00 0.  1.
         -2   -1    0    0    0  501 -0.00000000000E+00 -0.00000000000E+00 -0.36610980284E+02  0.36610980284E+02  0.00000000000E+00 0.  1.
          2    1    1    2  502    0  0.25385667282E+02  0.33121900966E+01  0.10084365992E+04  0.10087615066E+04  0.00000000000E+00 0.  1.
         -2    1    1    2    0  502 -0.25385667282E+02 -0.33121900966E+01 -0.31953127368E+02  0.40943925743E+02  0.00000000000E+00 0.  1.
</event>
<event>
 4    1  0.5465458E+003  0.2752637E+02  0.7546771E-02  0.1442391E+00
          2   -1    0    0  501    0  0.00000000000E+00  0.00000000000E+00  0.10322285574E+04  0.10322285574E+04  0.00000000000E+00 0. -1.
         -2   -1    0    0    0  501 -0.00000000000E+00 -0.00000000000E+00 -0.73752609916E+00  0.73752609916E+00  0.00000000000E+00 0.  1.
          2    1    1    2  502    0  0.24805764159E+02  0.11932104953E+02  0.55123460792E+03  0.55192145640E+03  0.00000000000E+00 0. -1.
         -2    1    1    2    0  502 -0.24805764159E+02 -0.11932104953E+02  0.48025642342E+03  0.48104462714E+03  0.00000000000E+00 0.  1.
</event>
<event>
 4    1  0.5465458E+003  0.2655370E+02  0.7546771E-02  0.1452144E+00
          2   -1    0    0  501    0  0.00000000000E+00  0.00000000000E+00  0.12814993440E+04  0.12814993440E+04  0.00000000000E+00 0.  1.
         -2   -1    0    0    0  501 -0.00000000000E+00 -0.00000000000E+00 -0.14473146800E+01  0.14473146800E+01  0.00000000000E+00 0.  1.
          2    1    1    2  502    0 -0.21102704530E+02  0.16117525988E+02  0.11450566602E+04  0.11453645069E+04  0.00000000000E+00 0.  1.
         -2    1    1    2    0  502  0.21102704530E+02 -0.16117525988E+02  0.13499536914E+03  0.13758215172E+03  0.00000000000E+00 0.  1.
</event>
<event>
 4    1  0.5465458E+003  0.2068051E+02  0.7546771E-02  0.1523876E+00
          2   -1    0    0  501    0  0.00000000000E+00  0.00000000000E+00  0.47726921525E+02  0.47726921525E+02  0.00000000000E+00 0. -1.
         -2   -1    0    0    0  501 -0.00000000000E+00 -0.00000000000E+00 -0.36229427197E+03  0.36229427197E+03  0.00000000000E+00 0. -1.
          2    1    1    2  502    0 -0.19322207247E+02  0.73712889884E+01  0.45175661334E+02  0.49684242686E+02  0.00000000000E+00 0. -1.
         -2    1    1    2    0  502  0.19322207247E+02 -0.73712889884E+01 -0.35974301178E+03  0.36033695081E+03  0.00000000000E+00 0. -1.
</event>
<event>
 4    1  0.5465458E+003  0.2162789E+02  0.7546771E-02  0.1510486E+00
          2   -1    0    0  501    0  0.00000000000E+00  0.00000000000E+00  0.67180413198E+01  0.67180413198E+01  0.00000000000E+00 0. -1.
         -2   -1    0    0    0  501 -0.00000000000E+00 -0.00000000000E+00 -0.41922695970E+03  0.41922695970E+03  0.00000000000E+00 0.  1.
          2    1    1    2  502    0  0.19218828386E+02  0.99198010788E+01 -0.11770491646E+02  0.24623368810E+02  0.00000000000E+00 0. -1.
         -2    1    1    2    0  502 -0.19218828386E+02 -0.99198010788E+01 -0.40073842674E+03  0.40132163221E+03  0.00000000000E+00 0.  1.
</event>
<event>
 4    1  0.5465458E+003  0.2561111E+02  0.7546771E-02  0.1462082E+00
          2   -1    0    0  501    0  0.00000000000E+00  0.00000000000E+00  0.55309546211E+03  0.55309546211E+03  0.00000000000E+00 0.  1.
         -2   -1    0    0    0  501 -0.00000000000E+00 -0.00000000000E+00 -0.21750970322E+01  0.21750970322E+01  0.00000000000E+00 0. -1.
          2    1    1    2  502    0 -0.66952126908E+01  0.24720495659E+02  0.46268854037E+03  0.46339682150E+03  0.00000000000E+00 0.  1.
         -2    1    1    2    0  502  0.66952126908E+01 -0.24720495659E+02  0.88231824700E+02  0.91873737643E+02  0.00000000000E+00 0. -1.
</event>
<event>
 4    1  0.5465458E+003  0.5024233E+02  0.7546771E-02  0.1297125E+00
          2   -1    0    0  501    0  0.00000000000E+00  0.00000000000E+00  0.76272964438E+02  0.76272964438E+02  0.00000000000E+00 0.  1.
         -2   -1    0    0    0  501 -0.00000000000E+00 -0.00000000000E+00 -0.42274299582E+02  0.42274299582E+02  0.00000000000E+00 0.  1.
          2    1    1    2  502    0  0.48279428448E+02  0.13906422086E+02  0.44618863851E+02  0.67194752755E+02  0.00000000000E+00 0.  1.
         -2    1    1    2    0  502 -0.48279428448E+02 -0.13906422086E+02 -0.10620198995E+02  0.51352511264E+02  0.00000000000E+00 0.  1.
</event>
<event>
 4    1  0.5465458E+003  0.2198466E+02  0.7546771E-02  0.1505657E+00
          2   -1    0    0  501    0  0.00000000000E+00  0.00000000000E+00  0.22134290276E+03  0.22134290276E+03  0.00000000000E+00 0. -1.
         -2   -1    0    0    0  501 -0.00000000000E+00 -0.00000000000E+00 -0.41733897283E+01  0.41733897283E+01  0.00000000000E+00 0.  1.
          2    1    1    2  502    0  0.11529524523E+02 -0.18718848120E+02  0.18644336366E+03  0.18773506082E+03  0.00000000000E+00 0. -1.
         -2    1    1    2    0  502 -0.11529524523E+02  0.18718848120E+02  0.30726149371E+02  0.37781231662E+02  0.00000000000E+00 0.  1.
</event>
<event>
 4    1  0.5465458E+003  0.2070661E+02  0.7546771E-02  0.1523495E+00
          2   -1    0    0  501    0  0.00000000000E+00  0.00000000000E+00  0.10787079036E+03  0.10787079036E+03  0.00000000000E+00 0.  1.
         -2   -1    0    0    0  501 -0.00000000000E+00 -0.00000000000E+00 -0.46134761362E+01  0.46134761362E+01  0.00000000000E+00 0.  1.
          2    1    1    2  502    0  0.11811131490E+02  0.17007659561E+02  0.30702343030E+02  0.37032380133E+02  0.00000000000E+00 0.  1.
         -2    1    1    2    0  502 -0.11811131490E+02 -0.17007659561E+02  0.72554971192E+02  0.75451886361E+02  0.00000000000E+00 0.  1.
</event>
<event>
 4    1  0.5465458E+003  0.2216081E+02  0.7546771E-02  0.1503314E+00
          2   -1    0    0  501    0  0.00000000000E+00  0.00000000000E+00  0.35317959152E+03  0.35317959152E+03  0.00000000000E+00 0.  1.
         -2   -1    0    0    0  501 -0.00000000000E+00 -0.00000000000E+00 -0.30866398871E+03  0.30866398871E+03  0.00000000000E+00 0. -1.
          2    1    1    2  502    0  0.12706093779E+02  0.18156453426E+02  0.35243335738E+03  0.35312939981E+03  0.00000000000E+00 0.  1.
         -2    1    1    2    0  502 -0.12706093779E+02 -0.18156453426E+02 -0.30791775456E+03  0.30871418042E+03  0.00000000000E+00 0. -1.
</event>
<event>
 4    1  0.5465458E+003  0.2053287E+02  0.7546771E-02  0.1526040E+00
          2   -1    0    0  501    0  0.00000000000E+00  0.00000000000E+00  0.10340055596E+03  0.10340055596E+03  0.00000000000E+00 0.  1.
         -2   -1    0    0    0  501 -0.00000000000E+00 -0.00000000000E+00 -0.31869787233E+02  0.31869787233E+02  0.00000000000E+00 0. -1.
          2    1    1    2  502    0 -0.20530960784E+02 -0.28016282370E+00  0.98926012119E+02  0.10103442342E+03  0.00000000000E+00 0.  1.
         -2    1    1    2    0  502  0.20530960784E+02  0.28016282370E+00 -0.27395243394E+02  0.34235919771E+02  0.00000000000E+00 0. -1.
</event>
<event>
 4    1  0.5465458E+003  0.2248143E+02  0.7546771E-02  0.1499115E+00
          2   -1    0    0  501    0  0.00000000000E+00  0.00000000000E+00  0.25111975909E+03  0.25111975909E+03  0.00000000000E+00 0.  1.
         -2   -1    0    0    0  501 -0.00000000000E+00 -0.00000000000E+00 -0.35689132172E+01  0.35689132172E+01  0.00000000000E+00 0.  1.
          2    1    1    2  502    0 -0.22308853562E+02 -0.27802676609E+01  0.20786727453E+03  0.20907945537E+03  0.00000000000E+00 0.  1.
         -2    1    1    2    0  502  0.22308853562E+02  0.27802676609E+01  0.39683571345E+02  0.45609216944E+02  0.00000000000E+00 0.  1.
</event>
<event>
 4    1  0.5465458E+003  0.2408697E+02  0.7546771E-02  0.1479282E+00
          2   -1    0    0  501    0  0.00000000000E+00  0.00000000000E+00  0.15001078842E+03  0.15001078842E+03  0.00000000000E+00 0. -1.
         -2   -1    0    0    0  501 -0.00000000000E+00 -0.00000000000E+00 -0.40894666743E+01  0.40894666743E+01  0.00000000000E+00 0. -1.
          2    1    1    2  502    0  0.23130805372E+02 -0.67192329223E+01  0.90907280178E+02  0.94044222776E+02  0.00000000000E+00 0. -1.
         -2    1    1    2    0  502 -0.23130805372E+02  0.67192329223E+01  0.55014041573E+02  0.60056032323E+02  0.00000000000E+00 0. -1.
</event>
<event>
 4    1  0.5465458E+003  0.2628272E+02  0.7546771E-02  0.1454949E+00
          2   -1    0    0  501    0  0.00000000000E+00  0.00000000000E+00  0.12720797332E+04  0.12720797332E+04  0.00000000000E+00 0.  1.
         -2   -1    0    0    0  501 -0.00000000000E+00 -0.00000000000E+00 -0.56248235160E+00  0.56248235160E+00  0.00000000000E+00 0.  1.
          2    1    1    2  502    0 -0.20345873969E+02  0.16638113083E+02  0.75408277265E+03  0.75454066120E+03  0.00000000000E+00 0.  1.
         -2    1    1    2    0  502  0.20345873969E+02 -0.16638113083E+02  0.51743447816E+03  0.51810155432E+03  0.00000000000E+00 0.  1.
</event>
<event>
 4    1  0.5465458E+003  0.2284589E+02  0.7546771E-02  0.1494442E+00
          2   -1    0    0  501    0  0.00000000000E+00  0.00000000000E+00  0.51514021073E+03  0.51514021073E+03  0.00000000000E+00 0.  1.
         -2   -1    0    0    0  501 -0.00000000000E+00 -0.00000000000E+00 -0.68082225263E+02  0.68082225263E+02  0.00000000000E+00 0.  1.
          2    1    1    2  502    0  0.72838484139E+01 -0.21653637554E+02  0.51296222072E+03  0.51347071421E+03  0.00000000000E+00 0.  1.
         -2    1    1    2    0  502 -0.72838484139E+01  0.21653637554E+02 -0.65904235254E+02  0.69751721781E+02  0.00000000000E+00 0.  1.
</event>
<event>
 4    1  0.5465458E+003  0.3461019E+02  0.7546771E-02  0.1383325E+00
          2   -1    0    0  501    0  0.00000000000E+00  0.00000000000E+00  0.19157934411E+04  0.19157934411E+04  0.00000000000E+00 0.  1.
         -2   -1    0    0    0  501 -0.00000000000E+00 -0.00000000000E+00 -0.16059075736E+01  0.16059075736E+01  0.00000000000E+00 0.  1.
          2    1    1    2  502    0 -0.75469051398E+01  0.33777346535E+02  0.17062618357E+04  0.17066128198E+04  0.00000000000E+00 0.  1.
         -2    1    1    2    0  502  0.75469051398E+01 -0.33777346535E+02  0.20792569783E+03  0.21078652883E+03  0.00000000000E+00 0.  1.
</event>
<event>
 4    1  0.5465458E+003  0.3561998E+02  0.7546771E-02  0.1376256E+00
          2   -1    0    0  501    0  0.00000000000E+00  0.00000000000E+00  0.27605280821E+03  0.27605280821E+03  0.00000000000E+00 0.  1.
         -2   -1    0    0    0  501 -0.00000000000E+00 -0.00000000000E+00 -0.83961008411E+01  0.83961008411E+01  0.00000000000E+00 0.  1.
          2    1    1    2  502    0 -0.93623186914E+00 -0.35607671081E+02  0.22950895439E+03  0.23225663158E+03  0.00000000000E+00 0.  1.
         -2    1    1    2    0  502  0.93623186914E+00  0.35607671081E+02  0.38147752985E+02  0.52192277473E+02  0.00000000000E+00 0.  1.
</event>
<event>
 4    1  0.5465458E+003  0.4248589E+02  0.7546771E-02  0.1334504E+00
          2   -1    0    0  501    0  0.00000000000E+00  0.00000000000E+00  0.49226809777E+03  0.49226809777E+03  0.00000000000E+00 0. -1.
         -2   -1    0    0    0  501 -0.00000000000E+00 -0.00000000000E+00 -0.21975552869E+02  0.21975552869E+02  0.00000000000E+00 0.  1.
          2    1    1    2  502    0 -0.41381020141E+02  0.96261185266E+01  0.46983831398E+03  0.47175533094E+03  0.00000000000E+00 0. -1.
         -2    1    1    2    0  502  0.41381020141E+02 -0.96261185266E+01  0.45423092775E+00  0.42488319707E+02  0.00000000000E+00 0.  1.
</event>
<event>
 4    1  0.5465458E+003  0.2192831E+02  0.7546771E-02  0.1506412E+00
          2   -1    0    0  501    0  0.00000000000E+00  0.00000000000E+00  0.14019824984E+03  0.14019824984E+03  0.00000000000E+00 0.  1.
         -2   -1    0    0    0  501 -0.00000000000E+00 -0.00000000000E+00 -0.36268383958E+01  0.36268383958E+01  0.00000000000E+00 0.  1.
          2    1    1    2  502    0 -0.33752949483E+01 -0.21666983536E+02  0.85047679074E+02  0.87829143839E+02  0.00000000000E+00 0.  1.
         -2    1    1    2    0  502  0.33752949483E+01  0.21666983536E+02  0.51523732366E+02  0.55995944393E+02  0.00000000000E+00 0.  1.
</event>
<event>
 4    1  0.5465458E+003  0.2731396E+02  0.7546771E-02  0.1444480E+00
          2   -1    0    0  501    0  0.00000000000E+00  0.00000000000E+00  0.98969793360E+02  0.98969793360E+02  0.00000000000E+00 0.  1.
         -2   -1    0    0    0  501 -0.00000000000E+00 -0.00000000000E+00 -0.49701653914E+02  0.49701653914E+02  0.00000000000E+00 0.  1.
          2    1    1    2  502    0 -0.17677697979E+02 -0.20821901156E+02  0.93100915747E+02  0.97024909619E+02  0.00000000000E+00 0.  1.
         -2    1    1    2    0  502  0.17677697979E+02  0.20821901156E+02 -0.43832776300E+02  0.51646537655E+02  0.00000000000E+00 0.  1.
</event>
<event>
 4    1  0.5465458E+003  0.3477115E+02  0.7546771E-02  0.1382179E+00
          2   -1    0    0  501    0  0.00000000000E+00  0.00000000000E+00  0.30903216186E+04  0.30903216186E+04  0.00000000000E+00 0.  1.
         -2   -1    0    0    0  501 -0.00000000000E+00 -0.00000000000E+00 -0.39808576577E+00  0.39808576577E+00  0.00000000000E+00 0. -1.
          2    1    1    2  502    0 -0.34708270933E+02  0.20900893012E+01  0.17477335876E+04  0.17480794392E+04  0.00000000000E+00 0.  1.
         -2    1    1    2    0  502  0.34708270933E+02 -0.20900893012E+01  0.13421899453E+04  0.13426402652E+04  0.00000000000E+00 0. -1.
</event>
<event>
 4    1  0.5465458E+003  0.5649697E+02  0.7546771E-02  0.1272223E+00
          2   -1    0    0  501    0  0.00000000000E+00  0.00000000000E+00  0.49551710428E+03  0.49551710428E+03  0.00000000000E+00 0.  1.
         -2   -1    0    0    0  501 -0.00000000000E+00 -0.00000000000E+00 -0.49619235124E+02  0.49619235124E+02  0.00000000000E+00 0.  1.
          2    1    1    2  502    0 -0.22939134117E+02  0.51630457293E+02  0.47720989508E+03  0.48054260161E+03  0.00000000000E+00 0.  1.
         -2    1    1    2    0  502  0.22939134117E+02 -0.51630457293E+02 -0.31312025929E+02  0.64593737793E+02  0.00000000000E+00 0.  1.
</event>
<event>
 4    1  0.5465458E+003  0.4564111E+02  0.7546771E-02  0.1318264E+00
          2   -1    0    0  501    0  0.00000000000E+00  0.00000000000E+00  0.16287046885E+04  0.16287046885E+04  0.00000000000E+00 0.  1.
         -2   -1    0    0    0  501 -0.00000000000E+00 -0.00000000000E+00 -0.30999780707E+01  0.30999780707E+01  0.00000000000E+00 0. -1.
          2    1    1    2  502    0  0.22351757102E+02  0.39793342334E+02  0.14381354017E+04  0.14388594597E+04  0.00000000000E+00 0.  1.
         -2    1    1    2    0  502 -0.22351757102E+02 -0.39793342334E+02  0.18746930873E+03  0.19294520687E+03  0.00000000000E+00 0. -1.
</event>
<event>
 4    1  0.5465458E+003  0.2046837E+02  0.7546771E-02  0.1526992E+00
          2   -1    0    0  501    0  0.00000000000E+00  0.00000000000E+00  0.14536212131E+04  0.14536212131E+04  0.00000000000E+00 0.  1.
         -2   -1    0    0    0  501 -0.00000000000E+00 -0.00000000000E+00 -0.21477018429E+01  0.21477018429E+01  0.00000000000E+00 0.  1.
          2    1    1    2  502    0  0.94236143535E+00 -0.20446663029E+02  0.14030227822E+04  0.14031720783E+04  0.00000000000E+00 0.  1.
         -2    1    1    2    0  502 -0.94236143535E+00  0.20446663029E+02  0.48450729074E+02  0.52596836615E+02  0.00000000000E+00 0.  1.
</event>
<event>
 4    1  0.5465458E+003  0.2506922E+02  0.7546771E-02  0.1468031E+00
          2   -1    0    0  501    0  0.00000000000E+00  0.00000000000E+00  0.10457412923E+04  0.10457412923E+04  0.00000000000E+00 0.  1.
         -2   -1    0    0    0  501 -0.00000000000E+00 -0.00000000000E+00 -0.36025096866E+01  0.36025096866E+01  0.00000000000E+00 0. -1.
          2    1    1    2  502    0  0.18561630041E+02 -0.16850268102E+02  0.99998260816E+03  0.10002967971E+04  0.00000000000E+00 0.  1.
         -2    1    1    2    0  502 -0.18561630041E+02  0.16850268102E+02  0.42156174457E+02  0.49047004901E+02  0.00000000000E+00 0. -1.
</event>
<event>
 4    1  0.5465458E+003  0.3693151E+02  0.7546771E-02  0.1367470E+00
          2   -1    0    0  501    0  0.00000000000E+00  0.00000000000E+00  0.29518458019E+02  0.29518458019E+02  0.00000000000E+00 0.  1.
         -2   -1    0    0    0  501 -0.00000000000E+00 -0.00000000000E+00 -0.58460667376E+02  0.58460667376E+02  0.00000000000E+00 0. -1.
          2    1    1    2  502    0 -0.21396833868E+02  0.30101687917E+02  0.56691415595E+01  0.37364090797E+02  0.00000000000E+00 0.  1.
         -2    1    1    2    0  502  0.21396833868E+02 -0.30101687917E+02 -0.34611350917E+02  0.50615034598E+02  0.00000000000E+00 0. -1.
</event>
<event>
 4    1  0.5465458E+003  0.2169265E+02  0.7546771E-02  0.1509601E+00
          2   -1    0    0  501    0  0.00000000000E+00  0.00000000000E+00  0.39917414802E+03  0.39917414802E+03  0.00000000000E+00 0. -1.
         -2   -1    0    0    0  501 -0.00000000000E+00 -0.00000000000E+00 -0.14943130119E+02  0.14943130119E+02  0.00000000000E+00 0. -1.
          2    1    1    2  502    0 -0.12886834636E+02 -0.17449940919E+02  0.39083896866E+03  0.39144050681E+03  0.00000000000E+00 0. -1.
         -2    1    1    2    0  502  0.12886834636E+02  0.17449940919E+02 -0.66079507561E+01  0.22676771336E+02  0.00000000000E+00 0. -1.
</event>
<event>
 4    1  0.5465458E+003  0.2045307E+02  0.7546771E-02  0.1527219E+00
          2   -1    0    0  501    0  0.00000000000E+00  0.00000000000E+00  0.57847070197E+01  0.57847070197E+01  0.00000000000E+00 0. -1.
         -2   -1    0    0    0  501 -0.00000000000E+00 -0.00000000000E+00 -0.10195673873E+03  0.10195673873E+03  0.00000000000E+00 0.  1.
          2    1    1    2  502    0 -0.18960392331E+01 -0.20364992639E+02 -0.19039900414E+02  0.27943616404E+02  0.00000000000E+00 0.  1.
         -2    1    1    2    0  502  0.18960392331E+01  0.20364992639E+02 -0.77132131299E+02  0.79797829348E+02  0.00000000000E+00 0. -1.
</event>
<event>
 4    1  0.5465458E+003  0.2378305E+02  0.7546771E-02  0.1482893E+00
          2   -1    0    0  501    0  0.00000000000E+00  0.00000000000E+00  0.58691541191E+02  0.58691541191E+02  0.00000000000E+00 0.  1.
         -2   -1    0    0    0  501 -0.00000000000E+00 -0.00000000000E+00 -0.95333753852E+02  0.95333753852E+02  0.00000000000E+00 0.  1.
          2    1    1    2  502    0  0.85593484695E+01 -0.22189434754E+02  0.54695206126E+02  0.59642258794E+02  0.00000000000E+00 0.  1.
         -2    1    1    2    0  502 -0.85593484695E+01  0.22189434754E+02 -0.91337418787E+02  0.94383036249E+02  0.00000000000E+00 0.  1.
</event>
<event>
 4    1  0.5465458E+003  0.2489165E+02  0.7546771E-02  0.1470019E+00
          2   -1    0    0  501    0  0.00000000000E+00  0.00000000000E+00  0.10276298505E+03  0.10276298505E+03  0.00000000000E+00 0.  1.
         -2   -1    0    0    0  501 -0.00000000000E+00 -0.00000000000E+00 -0.16420421162E+02  0.16420421162E+02  0.00000000000E+00 0.  1.
          2    1    1    2  502    0  0.24701843305E+02 -0.30681071890E+01  0.90576237292E+02  0.93934280783E+02  0.00000000000E+00 0.  1.
         -2    1    1    2    0  502 -0.24701843305E+02  0.30681071890E+01 -0.42336734049E+01  0.25249125428E+02  0.00000000000E+00 0.  1.
</event>
<event>
 4    1  0.5465458E+003  0.2527010E+02  0.7546771E-02  0.1465804E+00
          2   -1    0    0  501    0  0.00000000000E+00  0.00000000000E+00  0.18165792999E+03  0.18165792999E+03  0.00000000000E+00 0.  1.
         -2   -1    0    0    0  501 -0.00000000000E+00 -0.00000000000E+00 -0.16536409547E+02  0.16536409547E+02  0.00000000000E+00 0. -1.
          2    1    1    2  502    0 -0.22842818895E+02 -0.10806645316E+02  0.17049641866E+03  0.17235894736E+03  0.00000000000E+00 0.  1.
         -2    1    1    2    0  502  0.22842818895E+02  0.10806645316E+02 -0.53748982201E+01  0.25835392177E+02  0.00000000000E+00 0. -1.
</event>
<event>
 4    1  0.5465458E+003  0.2047287E+02  0.7546771E-02  0.1526926E+00
          2   -1    0    0  501    0  0.00000000000E+00  0.00000000000E+00  0.14155994038E+02  0.14155994038E+02  0.00000000000E+00 0. -1.
         -2   -1    0    0    0  501 -0.00000000000E+00 -0.00000000000E+00 -0.73583908994E+02  0.73583908994E+02  0.00000000000E+00 0.  1.
          2    1    1    2  502    0  0.14897448037E+02 -0.14042948918E+02  0.42001547710E+01  0.20899274447E+02  0.00000000000E+00 0. -1.
         -2    1    1    2    0  502 -0.14897448037E+02  0.14042948918E+02 -0.63628069727E+02  0.66840628584E+02  0.00000000000E+00 0.  1.
</event>
<event>
 4    1  0.5465458E+003  0.2272964E+02  0.7546771E-02  0.1495921E+00
          2   -1    0    0  501    0  0.00000000000E+00  0.00000000000E+00  0.12901625713E+04  0.12901625713E+04  0.00000000000E+00 0.  1.
         -2   -1    0    0    0  501 -0.00000000000E+00 -0.00000000000E+00 -0.19862209522E+02  0.19862209522E+02  0.00000000000E+00 0.  1.
          2    1    1    2  502    0 -0.22661497317E+02  0.17587365727E+01  0.12835260820E+04  0.12837273230E+04  0.00000000000E+00 0.  1.
         -2    1    1    2    0  502  0.22661497317E+02 -0.17587365727E+01 -0.13225720197E+02  0.26297457857E+02  0.00000000000E+00 0.  1.
</event>
<event>
 4    1  0.5465458E+003  0.2972469E+02  0.7546771E-02  0.1422004E+00
          2   -1    0    0  501    0  0.00000000000E+00  0.00000000000E+00  0.12222803345E+04  0.12222803345E+04  0.00000000000E+00 0.  1.
         -2   -1    0    0    0  501 -0.00000000000E+00 -0.00000000000E+00 -0.33906423084E+02  0.33906423084E+02  0.00000000000E+00 0. -1.
          2    1    1    2  502    0  0.28202653567E+02 -0.93897453716E+01  0.12155488714E+04  0.12159122566E+04  0.00000000000E+00 0.  1.
         -2    1    1    2    0  502 -0.28202653567E+02  0.93897453716E+01 -0.27174959933E+02  0.40274501036E+02  0.00000000000E+00 0. -1.
</event>
<event>
 4    1  0.5465458E+003  0.2229826E+02  0.7546771E-02  0.1501503E+00
          2   -1    0    0  501    0  0.00000000000E+00  0.00000000000E+00  0.69764604767E+03  0.69764604767E+03  0.00000000000E+00 0.  1.
         -2   -1    0    0    0  501 -0.00000000000E+00 -0.00000000000E+00 -0.32797806442E+01  0.32797806442E+01  0.00000000000E+00 0. -1.
          2    1    1    2  502    0  0.10324064557E+02 -0.19764266829E+02  0.65723860432E+03  0.65761675432E+03  0.00000000000E+00 0.  1.
         -2    1    1    2    0  502 -0.10324064557E+02  0.19764266829E+02  0.37127662700E+02  0.43309073990E+02  0.00000000000E+00 0. -1.
</event>
<event>
 4    1  0.5465458E+003  0.4770061E+02  0.7546771E-02  0.1308462E+00
          2   -1    0    0  501    0  0.00000000000E+00  0.00000000000E+00  0.19188269493E+04  0.19188269493E+04  0.00000000000E+00 0. -1.
         -2   -1    0    0    0  501 -0.00000000000E+00 -0.00000000000E+00 -0.34196035566E+02  0.34196035566E+02  0.00000000000E+00 0. -1.
          2    1    1    2  502    0  0.47410725162E+01  0.47464416213E+02  0.19017465265E+04  0.19023446584E+04  0.00000000000E+00 0. -1.
         -2    1    1    2    0  502 -0.47410725162E+01 -0.47464416213E+02 -0.17115612694E+02  0.50678326462E+02  0.00000000000E+00 0. -1.
</event>
<event>
 4    1  0.5465458E+003  0.3007563E+02  0.7546771E-02  0.1418940E+00
          2   -1    0    0  501    0  0.00000000000E+00  0.00000000000E+00  0.92723795925E+03  0.92723795925E+03  0.00000000000E+00 0.  1.
         -2   -1    0    0    0  501 -0.00000000000E+00 -0.00000000000E+00 -0.18550788276E+02  0.18550788276E+02  0.00000000000E+00 0. -1.
          2    1    1    2  502    0 -0.29968064486E+02  0.25414335173E+01  0.91463606887E+03  0.91513041816E+03  0.00000000000E+00 0.  1.
         -2    1    1    2    0  502  0.29968064486E+02 -0.25414335173E+01 -0.59488978917E+01  0.30658329366E+02  0.00000000000E+00 0. -1.
</event>
<event>
 4    1  0.5465458E+003  0.3326855E+02  0.7546771E-02  0.1393162E+00
          2   -1    0    0  501    0  0.00000000000E+00  0.00000000000E+00  0.78982532558E+03  0.78982532558E+03  0.00000000000E+00 0. -1.
         -2   -1    0    0    0  501 -0.00000000000E+00 -0.00000000000E+00 -0.15309607910E+01  0.15309607910E+01  0.00000000000E+00 0. -1.
          2    1    1    2  502    0  0.32978726732E+02  0.43817761159E+01  0.50928933770E+03  0.51037478961E+03  0.00000000000E+00 0. -1.
         -2    1    1    2    0  502 -0.32978726732E+02 -0.43817761159E+01  0.27900502709E+03  0.28098149675E+03  0.00000000000E+00 0. -1.
</event>
<event>
 4    1  0.5465458E+003  0.6250326E+02  0.7546771E-02  0.1251557E+00
          2   -1    0    0  501    0  0.00000000000E+00  0.00000000000E+00  0.72525694076E+03  0.72525694076E+03  0.00000000000E+00 0.  1.
         -2   -1    0    0    0  501 -0.00000000000E+00 -0.00000000000E+00 -0.59394245571E+01  0.59394245571E+01  0.00000000000E+00 0.  1.
          2    1    1    2  502    0  0.25840734914E+02  0.56911457642E+02  0.47119903159E+03  0.47532639835E+03  0.00000000000E+00 0.  1.
         -2    1    1    2    0  502 -0.25840734914E+02 -0.56911457642E+02  0.24811848461E+03  0.25586996697E+03  0.00000000000E+00 0.  1.
</event>
<event>
 4    1  0.5465458E+003  0.2389942E+02  0.7546771E-02  0.1481503E+00
          2   -1    0    0  501    0  0.00000000000E+00  0.00000000000E+00  0.67315393149E+03  0.67315393149E+03  0.00000000000E+00 0.  1.
         -2   -1    0    0    0  501 -0.00000000000E+00 -0.00000000000E+00 -0.38248473373E+02  0.38248473373E+02  0.00000000000E+00 0. -1.
          2    1    1    2  502    0  0.23401995420E+02 -0.48506655077E+01  0.66918630719E+03  0.66961294497E+03  0.00000000000E+00 0.  1.
         -2    1    1    2    0  502 -0.23401995420E+02  0.48506655077E+01 -0.34280849068E+02  0.41789459895E+02  0.00000000000E+00 0. -1.
</event>
<event>
 4    1  0.5465458E+003  0.2329897E+02  0.7546771E-02  0.1488778E+00
          2   -1    0    0  501    0  0.00000000000E+00  0.00000000000E+00  0.70298710833E+03  0.70298710833E+03  0.00000000000E+00 0. -1.
         -2   -1    0    0    0  501 -0.00000000000E+00 -0.00000000000E+00 -0.40652285398E+02  0.40652285398E+02  0.00000000000E+00 0. -1.
          2    1    1    2  502    0  0.24117954855E+01 -0.23173806507E+02  0.69943880469E+03  0.69982675254E+03  0.00000000000E+00 0. -1.
         -2    1    1    2    0  502 -0.24117954855E+01  0.23173806507E+02 -0.37103981758E+02  0.43812641187E+02  0.00000000000E+00 0. -1.
</event>
<event>
 4    1  0.5465458E+003  0.2119444E+02  0.7546771E-02  0.1516507E+00
          2   -1    0    0  501    0  0.00000000000E+00  0.00000000000E+00  0.52872354602E+03  0.52872354602E+03  0.00000000000E+00 0.  1.
         -2   -1    0    0    0  501 -0.00000000000E+00 -0.00000000000E+00 -0.70768537128E+02  0.70768537128E+02  0.00000000000E+00 0.  1.
          2    1    1    2  502    0  0.13818378679E+02  0.16070366801E+02  0.52691883426E+03  0.52734491765E+03  0.00000000000E+00 0.  1.
         -2    1    1    2    0  502 -0.13818378679E+02 -0.16070366801E+02 -0.68963825371E+02  0.72147165490E+02  0.00000000000E+00 0.  1.
</event>
<event>
 4    1  0.5465458E+003  0.3053269E+02  0.7546771E-02  0.1415023E+00
          2   -1    0    0  501    0  0.00000000000E+00  0.00000000000E+00  0.15938640497E+03  0.15938640497E+03  0.00000000000E+00 0.  1.
         -2   -1    0    0    0  501 -0.00000000000E+00 -0.00000000000E+00 -0.15104674295E+02  0.15104674295E+02  0.00000000000E+00 0.  1.
          2    1    1    2  502    0  0.16905569687E+02 -0.25425316313E+02  0.14043642659E+03  0.14371720464E+03  0.00000000000E+00 0.  1.
         -2    1    1    2    0  502 -0.16905569687E+02  0.25425316313E+02  0.38453040874E+01  0.30773874627E+02  0.00000000000E+00 0.  1.
</event>
<event>
 4    1  0.5465458E+003  0.2373479E+02  0.7546771E-02  0.1483472E+00
          2   -1    0    0  501    0  0.00000000000E+00  0.00000000000E+00  0.44379248685E+02  0.44379248685E+02  0.00000000000E+00 0. -1.
         -2   -1    0    0    0  501 -0.00000000000E+00 -0.00000000000E+00 -0.14423571441E+02  0.14423571441E+02  0.00000000000E+00 0. -1.
          2    1    1    2  502    0 -0.78986271229E+01  0.22381955808E+02  0.25159744726E+02  0.34588336342E+02  0.00000000000E+00 0. -1.
         -2    1    1    2    0  502  0.78986271229E+01 -0.22381955808E+02  0.47959325192E+01  0.24214483784E+02  0.00000000000E+00 0. -1.
</event>
<event>
 4    1  0.5465458E+003  0.2899143E+02  0.7546771E-02  0.1428568E+00
          2   -1    0    0  501    0  0.00000000000E+00  0.00000000000E+00  0.16255382800E+04  0.16255382800E+04  0.00000000000E+00 0. -1.
         -2   -1    0    0    0  501 -0.00000000000E+00 -0.00000000000E+00 -0.11623648085E+02  0.11623648085E+02  0.00000000000E+00 0.  1.
          2    1    1    2  502    0  0.21159668547E+02 -0.19818455719E+02  0.16071244770E+04  0.16073859485E+04  0.00000000000E+00 0. -1.
         -2    1    1    2    0  502 -0.21159668547E+02  0.19818455719E+02  0.67901549514E+01  0.29775979654E+02  0.00000000000E+00 0.  1.
</event>
<event>
 4    1  0.5465458E+003  0.3365104E+02  0.7546771E-02  0.1390303E+00
          2   -1    0    0  501    0  0.00000000000E+00  0.00000000000E+00  0.77489733027E+01  0.77489733027E+01  0.00000000000E+00 0.  1.
         -2   -1    0    0    0  501 -0.00000000000E+00 -0.00000000000E+00 -0.15732716076E+03  0.15732716076E+03  0.00000000000E+00 0.  1.
          2    1    1    2  502    0  0.32628826363E+02  0.82311747538E+01 -0.52774098807E+02  0.62589919736E+02  0.00000000000E+00 0.  1.
         -2    1    1    2    0  502 -0.32628826363E+02 -0.82311747538E+01 -0.96804088651E+02  0.10248621433E+03  0.00000000000E+00 0.  1.
</event>
<event>
 4    1  0.5465458E+003  0.2123948E+02  0.7546771E-02  0.1515873E+00
          2   -1    0    0  501    0  0.00000000000E+00  0.00000000000E+00  0.11101235164E+04  0.11101235164E+04  0.00000000000E+00 0.  1.
         -2   -1    0    0    0  501 -0.00000000000E+00 -0.00000000000E+00 -0.75190547472E+01  0.75190547472E+01  0.00000000000E+00 0. -1.
          2    1    1    2  502    0 -0.81387151229E+01 -0.19618276399E+02  0.10948131158E+04  0.10950191204E+04  0.00000000000E+00 0.  1.
         -2    1    1    2    0  502  0.81387151229E+01  0.19618276399E+02  0.77913457833E+01  0.22623450706E+02  0.00000000000E+00 0. -1.
</event>
<event>
 4    1  0.5465458E+003  0.2265430E+02  0.7546771E-02  0.1496885E+00
          2   -1    0    0  501    0  0.00000000000E+00  0.00000000000E+00  0.19083740354E+03  0.19083740354E+03  0.00000000000E+00 0. -1.
         -2   -1    0    0    0  501 -0.00000000000E+00 -0.00000000000E+00 -0.11187088234E+02  0.11187088234E+02  0.00000000000E+00 0. -1.
          2    1    1    2  502    0 -0.21773563126E+02 -0.62553314193E+01  0.17786285797E+03  0.17929978658E+03  0.00000000000E+00 0. -1.
         -2    1    1    2    0  502  0.21773563126E+02  0.62553314193E+01  0.17874573350E+01  0.22724705193E+02  0.00000000000E+00 0. -1.
</event>
<event>
 4    1  0.5465458E+003  0.3248022E+02  0.7546771E-02  0.1399200E+00
          2   -1    0    0  501    0  0.00000000000E+00  0.00000000000E+00  0.99307819064E+03  0.99307819064E+03  0.00000000000E+00 0. -1.
         -2   -1    0    0    0  501 -0.00000000000E+00 -0.00000000000E+00 -0.98836504800E+01  0.98836504800E+01  0.00000000000E+00 0. -1.
          2    1    1    2  502    0 -0.15612137822E+02 -0.28482025982E+02  0.96536210826E+03  0.96590836249E+03  0.00000000000E+00 0. -1.
         -2    1    1    2    0  502  0.15612137822E+02  0.28482025982E+02  0.17832431896E+02  0.37053478632E+02  0.00000000000E+00 0. -1.
</event>
<event>
 4    1  0.5465458E+003  0.2470436E+02  0.7546771E-02  0.1472138E+00
          2   -1    0    0  501    0  0.00000000000E+00  0.00000000000E+00  0.10441346399E+03  0.10441346399E+03  0.00000000000E+00 0.  1.
         -2   -1    0    0    0  501 -0.00000000000E+00 -0.00000000000E+00 -0.18009837600E+02  0.18009837600E+02  0.00000000000E+00 0. -1.
          2    1    1    2  502    0  0.19236650575E+02 -0.15500216188E+02  0.93509095775E+02  0.96717404948E+02  0.00000000000E+00 0.  1.
         -2    1    1    2    0  502 -0.19236650575E+02  0.15500216188E+02 -0.71054693817E+01  0.25705896645E+02  0.00000000000E+00 0. -1.
</event>
<event>
 4    1  0.5465458E+003  0.2364171E+02  0.7546771E-02  0.1484594E+00
          2   -1    0    0  501    0  0.00000000000E+00  0.00000000000E+00  0.11623185584E+03  0.11623185584E+03  0.00000000000E+00 0. -1.
         -2   -1    0    0    0  501 -0.00000000000E+00 -0.00000000000E+00 -0.50353627843E+01  0.50353627843E+01  0.00000000000E+00 0.  1.
          2    1    1    2  502    0 -0.21730174099E+02 -0.93128959334E+01  0.68461049660E+02  0.72428211476E+02  0.00000000000E+00 0. -1.
         -2    1    1    2    0  502  0.21730174099E+02  0.93128959334E+01  0.42735443396E+02  0.48839007148E+02  0.00000000000E+00 0.  1.
</event>
<event>
 4    1  0.5465458E+003  0.2304420E+02  0.7546771E-02  0.1491944E+00
          2   -1    0    0  501    0  0.00000000000E+00  0.00000000000E+00  0.31054880384E+03  0.31054880384E+03  0.00000000000E+00 0.  1.
         -2   -1    0    0    0  501 -0.00000000000E+00 -0.00000000000E+00 -0.46867393315E+01  0.46867393315E+01  0.00000000000E+00 0.  1.
          2    1    1    2  502    0 -0.24718692864E+01 -0.22911245328E+02  0.27854586581E+03  0.27949746808E+03  0.00000000000E+00 0.  1.
         -2    1    1    2    0  502  0.24718692864E+01  0.22911245328E+02  0.27316198696E+02  0.35738075095E+02  0.00000000000E+00 0.  1.
</event>
<event>
 4    1  0.5465458E+003  0.5717349E+02  0.7546771E-02  0.1269751E+00
          2   -1    0    0  501    0  0.00000000000E+00  0.00000000000E+00  0.45507619528E+03  0.45507619528E+03  0.00000000000E+00 0. -1.
         -2   -1    0    0    0  501 -0.00000000000E+00 -0.00000000000E+00 -0.87759083965E+01  0.87759083965E+01  0.00000000000E+00 0.  1.
          2    1    1    2  502    0  0.39141825206E+02 -0.41674043719E+02  0.32195995392E+03  0.32699697297E+03  0.00000000000E+00 0. -1.
         -2    1    1    2    0  502 -0.39141825206E+02  0.41674043719E+02  0.12434033296E+03  0.13685513071E+03  0.00000000000E+00 0.  1.
</event>
<event>
 4    1  0.5465458E+003  0.3730953E+02  0.7546771E-02  0.1365016E+00
          2   -1    0    0  501    0  0.00000000000E+00  0.00000000000E+00  0.45974855914E+03  0.45974855914E+03  0.00000000000E+00 0. -1.
         -2   -1    0    0    0  501 -0.00000000000E+00 -0.00000000000E+00 -0.38695256110E+02  0.38695256110E+02  0.00000000000E+00 0. -1.
          2    1    1    2  502    0  0.10531025142E+02  0.35792440502E+02  0.44979968595E+03  0.45134439042E+03  0.00000000000E+00 0. -1.
         -2    1    1    2    0  502 -0.10531025142E+02 -0.35792440502E+02 -0.28746382921E+02  0.47099424823E+02  0.00000000000E+00 0. -1.
</event>
<event>
 4    1  0.5465458E+003  0.2297458E+02  0.7546771E-02  0.1492818E+00
          2   -1    0    0  501    0  0.00000000000E+00  0.00000000000E+00  0.49349436009E+01  0.49349436009E+01  0.00000000000E+00 0.  1.
         -2   -1    0    0    0  501 -0.00000000000E+00 -0.00000000000E+00 -0.10979422505E+03  0.10979422505E+03  0.00000000000E+00 0. -1.
          2    1    1    2  502    0 -0.10893223509E+02  0.20227921728E+02 -0.43209593150E+02  0.48937716293E+02  0.00000000000E+00 0.  1.
         -2    1    1    2    0  502  0.10893223509E+02 -0.20227921728E+02 -0.61649688296E+02  0.65791452354E+02  0.00000000000E+00 0. -1.
</event>
<event>
 4    1  0.5465458E+003  0.2599581E+02  0.7546771E-02  0.1457965E+00
          2   -1    0    0  501    0  0.00000000000E+00  0.00000000000E+00  0.14954969963E+03  0.14954969963E+03  0.00000000000E+00 0. -1.
         -2   -1    0    0    0  501 -0.00000000000E+00 -0.00000000000E+00 -0.11197187525E+02  0.11197187525E+02  0.00000000000E+00 0.  1.
          2    1    1    2  502    0  0.18507894789E+02  0.18254865960E+02  0.13124808396E+03  0.13379776472E+03  0.00000000000E+00 0. -1.
         -2    1    1    2    0  502 -0.18507894789E+02 -0.18254865960E+02  0.71044281447E+01  0.26949122434E+02  0.00000000000E+00 0.  1.
</event>
<event>
 4    1  0.5465458E+003  0.2019867E+02  0.7546771E-02  0.1531020E+00
          2   -1    0    0  501    0  0.00000000000E+00  0.00000000000E+00  0.82937886786E+03  0.82937886786E+03  0.00000000000E+00 0.  1.
         -2   -1    0    0    0  501 -0.00000000000E+00 -0.00000000000E+00 -0.13174125497E+01  0.13174125497E+01  0.00000000000E+00 0. -1.
          2    1    1    2  502    0  0.24981420961E+01  0.20043587997E+02  0.74281312641E+03  0.74308769799E+03  0.00000000000E+00 0.  1.
         -2    1    1    2    0  502 -0.24981420961E+01 -0.20043587997E+02  0.85248328906E+02  0.87608582427E+02  0.00000000000E+00 0. -1.
</event>
<event>
 4    1  0.5465458E+003  0.2773583E+02  0.7546771E-02  0.1440353E+00
          2   -1    0    0  501    0  0.00000000000E+00  0.00000000000E+00  0.38106843940E+03  0.38106843940E+03  0.00000000000E+00 0.  1.
         -2   -1    0    0    0  501 -0.00000000000E+00 -0.00000000000E+00 -0.23160402734E+02  0.23160402734E+02  0.00000000000E+00 0.  1.
          2    1    1    2  502    0  0.29339632918E+01 -0.27580212874E+02  0.37205917338E+03  0.37309155013E+03  0.00000000000E+00 0.  1.
         -2    1    1    2    0  502 -0.29339632918E+01  0.27580212874E+02 -0.14151136717E+02  0.31137292001E+02  0.00000000000E+00 0.  1.
</event>
<event>
 4    1  0.5465458E+003  0.2586097E+02  0.7546771E-02  0.1459398E+00
          2   -1    0    0  501    0  0.00000000000E+00  0.00000000000E+00  0.26919247505E+03  0.26919247505E+03  0.00000000000E+00 0.  1.
         -2   -1    0    0    0  501 -0.00000000000E+00 -0.00000000000E+00 -0.13361551416E+02  0.13361551416E+02  0.00000000000E+00 0.  1.
          2    1    1    2  502    0  0.69969273414E+01 -0.24896443761E+02  0.25538313147E+03  0.25668917730E+03  0.00000000000E+00 0.  1.
         -2    1    1    2    0  502 -0.69969273414E+01  0.24896443761E+02  0.44779215692E+00  0.25864849158E+02  0.00000000000E+00 0.  1.
</event>
<event>
 4    1  0.5465458E+003  0.3623105E+02  0.7546771E-02  0.1372109E+00
          2   -1    0    0  501    0  0.00000000000E+00  0.00000000000E+00  0.13772884203E+04  0.13772884203E+04  0.00000000000E+00 0. -1.
         -2   -1    0    0    0  501 -0.00000000000E+00 -0.00000000000E+00 -0.24775168248E+02  0.24775168248E+02  0.00000000000E+00 0.  1.
          2    1    1    2  502    0 -0.17221784878E+02 -0.31876310695E+02  0.13636718898E+04  0.13641531117E+04  0.00000000000E+00 0. -1.
         -2    1    1    2    0  502  0.17221784878E+02  0.31876310695E+02 -0.11158637773E+02  0.37910476848E+02  0.00000000000E+00 0.  1.
</event>
<event>
 4    1  0.5465458E+003  0.2431364E+02  0.7546771E-02  0.1476630E+00
          2   -1    0    0  501    0  0.00000000000E+00  0.00000000000E+00  0.15849297072E+03  0.15849297072E+03  0.00000000000E+00 0. -1.
         -2   -1    0    0    0  501 -0.00000000000E+00 -0.00000000000E+00 -0.12274568652E+02  0.12274568652E+02  0.00000000000E+00 0.  1.
          2    1    1    2  502    0  0.11543970054E+02 -0.21398358336E+02  0.14434879137E+03  0.14638212512E+03  0.00000000000E+00 0. -1.
         -2    1    1    2    0  502 -0.11543970054E+02  0.21398358336E+02  0.18696106953E+01  0.24385414252E+02  0.00000000000E+00 0.  1.
</event>
<event>
 4    1  0.5465458E+003  0.4444264E+02  0.7546771E-02  0.1324250E+00
          2   -1    0    0  501    0  0.00000000000E+00  0.00000000000E+00  0.47280499551E+02  0.47280499551E+02  0.00000000000E+00 0.  1.
         -2   -1    0    0    0  501 -0.00000000000E+00 -0.00000000000E+00 -0.19814905364E+03  0.19814905364E+03  0.00000000000E+00 0.  1.
          2    1    1    2  502    0 -0.28387677859E+02 -0.34194857729E+02  0.33579914955E+02  0.55702416803E+02  0.00000000000E+00 0.  1.
         -2    1    1    2    0  502  0.28387677859E+02  0.34194857729E+02 -0.18444846905E+03  0.18972713639E+03  0.00000000000E+00 0.  1.
</event>
<event>
 4    1  0.5465458E+003  0.2534117E+02  0.7546771E-02  0.1465023E+00
          2   -1    0    0  501    0  0.00000000000E+00  0.00000000000E+00  0.15686945146E+02  0.15686945146E+02  0.00000000000E+00 0. -1.
         -2   -1    0    0    0  501 -0.00000000000E+00 -0.00000000000E+00 -0.25984933903E+03  0.25984933903E+03  0.00000000000E+00 0. -1.
          2    1    1    2  502    0  0.22969538460E+02  0.10703983755E+02  0.43700771198E+01  0.25715219994E+02  0.00000000000E+00 0. -1.
         -2    1    1    2    0  502 -0.22969538460E+02 -0.10703983755E+02 -0.24853247100E+03  0.24982106418E+03  0.00000000000E+00 0. -1.
</event>
<event>
 4    1  0.5465458E+003  0.3931779E+02  0.7546771E-02  0.1352531E+00
          2   -1    0    0  501    0  0.00000000000E+00  0.00000000000E+00  0.14691724525E+03  0.14691724525E+03  0.00000000000E+00 0. -1.
         -2   -1    0    0    0  501 -0.00000000000E+00 -0.00000000000E+00 -0.23989792705E+02  0.23989792705E+02  0.00000000000E+00 0.  1.
          2    1    1    2  502    0 -0.30509590619E+02  0.24800269988E+02  0.12549057744E+03  0.13150579279E+03  0.00000000000E+00 0. -1.
         -2    1    1    2    0  502  0.30509590619E+02 -0.24800269988E+02 -0.25631248962E+01  0.39401245164E+02  0.00000000000E+00 0.  1.
</event>
<event>
 4    1  0.5465458E+003  0.2590802E+02  0.7546771E-02  0.1458897E+00
          2   -1    0    0  501    0  0.00000000000E+00  0.00000000000E+00  0.98744964710E+03  0.98744964710E+03  0.00000000000E+00 0.  1.
         -2   -1    0    0    0  501 -0.00000000000E+00 -0.00000000000E+00 -0.18868678069E+01  0.18868678069E+01  0.00000000000E+00 0. -1.
          2    1    1    2  502    0  0.22457968637E+02  0.12917625409E+02  0.88843665428E+03  0.88881433049E+03  0.00000000000E+00 0.  1.
         -2    1    1    2    0  502 -0.22457968637E+02 -0.12917625409E+02  0.97126125004E+02  0.10052218442E+03  0.00000000000E+00 0. -1.
</event>
<event>
 4    1  0.5465458E+003  0.2641320E+02  0.7546771E-02  0.1453593E+00
          2   -1    0    0  501    0  0.00000000000E+00  0.00000000000E+00  0.75627735944E+02  0.75627735944E+02  0.00000000000E+00 0. -1.
         -2   -1    0    0    0  501 -0.00000000000E+00 -0.00000000000E+00 -0.18749955568E+02  0.18749955568E+02  0.00000000000E+00 0. -1.
          2    1    1    2  502    0 -0.26327655943E+02  0.21241198065E+01  0.62072484248E+02  0.67458510605E+02  0.00000000000E+00 0. -1.
         -2    1    1    2    0  502  0.26327655943E+02 -0.21241198065E+01 -0.51947038711E+01  0.26919180907E+02  0.00000000000E+00 0. -1.
</event>
<event>
 4    1  0.5465458E+003  0.3092188E+02  0.7546771E-02  0.1411751E+00
          2   -1    0    0  501    0  0.00000000000E+00  0.00000000000E+00  0.31684296086E+03  0.31684296086E+03  0.00000000000E+00 0.  1.
         -2   -1    0    0    0  501 -0.00000000000E+00 -0.00000000000E+00 -0.87698858570E+02  0.87698858570E+02  0.00000000000E+00 0.  1.
          2    1    1    2  502    0  0.27545619494E+02 -0.14049969710E+02  0.31333235136E+03  0.31485445084E+03  0.00000000000E+00 0.  1.
         -2    1    1    2    0  502 -0.27545619494E+02  0.14049969710E+02 -0.84188249075E+02  0.89687368589E+02  0.00000000000E+00 0.  1.
</event>
<event>
 4    1  0.5465458E+003  0.2692219E+02  0.7546771E-02  0.1448391E+00
          2   -1    0    0  501    0  0.00000000000E+00  0.00000000000E+00  0.12352957206E+04  0.12352957206E+04  0.00000000000E+00 0. -1.
         -2   -1    0    0    0  501 -0.00000000000E+00 -0.00000000000E+00 -0.11244762972E+01  0.11244762972E+01  0.00000000000E+00 0. -1.
          2    1    1    2  502    0 -0.61648294776E+01 -0.26206854706E+02  0.10445927381E+04  0.10449396121E+04  0.00000000000E+00 0. -1.
         -2    1    1    2    0  502  0.61648294776E+01  0.26206854706E+02  0.18957850611E+03  0.19148058475E+03  0.00000000000E+00 0. -1.
</event>
<event>
 4    1  0.5465458E+003  0.2284371E+02  0.7546771E-02  0.1494470E+00
          2   -1    0    0  501    0  0.00000000000E+00  0.00000000000E+00  0.78671393415E+03  0.78671393415E+03  0.00000000000E+00 0.  1.
         -2   -1    0    0    0  501 -0.00000000000E+00 -0.00000000000E+00 -0.92473949132E+01  0.92473949132E+01  0.00000000000E+00 0.  1.
          2    1    1    2  502    0 -0.10243554742E+02 -0.20418245201E+02  0.77217491113E+03  0.77251273681E+03  0.00000000000E+00 0.  1.
         -2    1    1    2    0  502  0.10243554742E+02  0.20418245201E+02  0.52916281091E+01  0.23448592258E+02  0.00000000000E+00 0.  1.
</event>
<event>
 4    1  0.5465458E+003  0.2136792E+02  0.7546771E-02  0.1514076E+00
          2   -1    0    0  501    0  0.00000000000E+00  0.00000000000E+00  0.12219134468E+03  0.12219134468E+03  0.00000000000E+00 0. -1.
         -2   -1    0    0    0  501 -0.00000000000E+00 -0.00000000000E+00 -0.13256195030E+02  0.13256195030E+02  0.00000000000E+00 0.  1.
          2    1    1    2  502    0 -0.78613897484E+01  0.19869235057E+02  0.11185800349E+03  0.11388064320E+03  0.00000000000E+00 0. -1.
         -2    1    1    2    0  502  0.78613897484E+01 -0.19869235057E+02 -0.29228538415E+01  0.21566896510E+02  0.00000000000E+00 0.  1.
</event>
<event>
 4    1  0.5465458E+003  0.2414989E+02  0.7546771E-02  0.1478543E+00
          2   -1    0    0  501    0  0.00000000000E+00  0.00000000000E+00  0.36355658751E+02  0.36355658751E+02  0.00000000000E+00 0.  1.
         -2   -1    0    0    0  501 -0.00000000000E+00 -0.00000000000E+00 -0.42736400404E+02  0.42736400404E+02  0.00000000000E+00 0.  1.
          2    1    1    2  502    0 -0.75065955664E+01 -0.22953608236E+02  0.28064239234E+02  0.37024567949E+02  0.00000000000E+00 0.  1.
         -2    1    1    2    0  502  0.75065955664E+01  0.22953608236E+02 -0.34444980887E+02  0.42067491206E+02  0.00000000000E+00 0.  1.
</event>
<event>
 4    1  0.5465458E+003  0.2183540E+02  0.7546771E-02  0.1507664E+00
          2   -1    0    0  501    0  0.00000000000E+00  0.00000000000E+00  0.78327025720E+02  0.78327025720E+02  0.00000000000E+00 0. -1.
         -2   -1    0    0    0  501 -0.00000000000E+00 -0.00000000000E+00 -0.15159610470E+02  0.15159610470E+02  0.00000000000E+00 0. -1.
          2    1    1    2  502    0  0.13738072616E+02  0.16972038476E+02  0.67744602279E+02  0.71176652542E+02  0.00000000000E+00 0. -1.
         -2    1    1    2    0  502 -0.13738072616E+02 -0.16972038476E+02 -0.45771870293E+01  0.22309983648E+02  0.00000000000E+00 0. -1.
</event>
<event>
 4    1  0.5465458E+003  0.2308065E+02  0.7546771E-02  0.1491488E+00
          2   -1    0    0  501    0  0.00000000000E+00  0.00000000000E+00  0.52146797006E+03  0.52146797006E+03  0.00000000000E+00 0. -1.
         -2   -1    0    0    0  501 -0.00000000000E+00 -0.00000000000E+00 -0.88750023976E+01  0.88750023976E+01  0.00000000000E+00 0.  1.
          2    1    1    2  502    0 -0.19904456856E+02 -0.11684557081E+02  0.50574006058E+03  0.50626645667E+03  0.00000000000E+00 0. -1.
         -2    1    1    2    0  502  0.19904456856E+02  0.11684557081E+02  0.68529070847E+01  0.24076515787E+02  0.00000000000E+00 0.  1.
</event>
<event>
 4    1  0.5465458E+003  0.2689548E+02  0.7546771E-02  0.1448661E+00
          2   -1    0    0  501    0  0.00000000000E+00  0.00000000000E+00  0.43763808800E+01  0.43763808800E+01  0.00000000000E+00 0. -1.
         -2   -1    0    0    0  501 -0.00000000000E+00 -0.00000000000E+00 -0.37257992881E+03  0.37257992881E+03  0.00000000000E+00 0. -1.
          2    1    1    2  502    0  0.18938570345E+01 -0.26828715084E+02 -0.43515903211E+02  0.51156626939E+02  0.00000000000E+00 0. -1.
         -2    1    1    2    0  502 -0.18938570345E+01  0.26828715084E+02 -0.32468764471E+03  0.32579968275E+03  0.00000000000E+00 0. -1.
</event>
<event>
 4    1  0.5465458E+003  0.4755667E+02  0.7546771E-02  0.1309128E+00
          2   -1    0    0  501    0  0.00000000000E+00  0.00000000000E+00  0.40525267628E+03  0.40525267628E+03  0.00000000000E+00 0. -1.
         -2   -1    0    0    0  501 -0.00000000000E+00 -0.00000000000E+00 -0.75788472884E+01  0.75788472884E+01  0.00000000000E+00 0. -1.
          2    1    1    2  502    0 -0.23157392473E+00  0.47556106017E+02  0.30482167751E+03  0.30850914399E+03  0.00000000000E+00 0. -1.
         -2    1    1    2    0  502  0.23157392473E+00 -0.47556106017E+02  0.92852151480E+02  0.10432237958E+03  0.00000000000E+00 0. -1.
</event>
<event>
 4    1  0.5465458E+003  0.3181655E+02  0.7546771E-02  0.1404441E+00
          2   -1    0    0  501    0  0.00000000000E+00  0.00000000000E+00  0.77547118246E+01  0.77547118246E+01  0.00000000000E+00 0.  1.
         -2   -1    0    0    0  501 -0.00000000000E+00 -0.00000000000E+00 -0.21031238734E+03  0.21031238734E+03  0.00000000000E+00 0.  1.
          2    1    1    2  502    0  0.11695922287E+02 -0.29588818285E+02 -0.34127203444E+02  0.46657890871E+02  0.00000000000E+00 0.  1.
         -2    1    1    2    0  502 -0.11695922287E+02  0.29588818285E+02 -0.16843047207E+03  0.17140920829E+03  0.00000000000E+00 0.  1.
</event>
<event>
 4    1  0.5465458E+003  0.2132156E+02  0.7546771E-02  0.1514723E+00
          2   -1    0    0  501    0  0.00000000000E+00  0.00000000000E+00  0.10087276748E+04  0.10087276748E+04  0.00000000000E+00 0. -1.
         -2   -1    0    0    0  501 -0.00000000000E+00 -0.00000000000E+00 -0.50697621327E+00  0.50697621327E+00  0.00000000000E+00 0. -1.
          2    1    1    2  502    0 -0.98966938355E+01  0.18885563433E+02  0.67227105729E+03  0.67260908671E+03  0.00000000000E+00 0. -1.
         -2    1    1    2    0  502  0.98966938355E+01 -0.18885563433E+02  0.33594964126E+03  0.33662556426E+03  0.00000000000E+00 0. -1.
</event>
<event>
 4    1  0.5465458E+003  0.2831951E+02  0.7546771E-02  0.1434785E+00
          2   -1    0    0  501    0  0.00000000000E+00  0.00000000000E+00  0.82673344109E+03  0.82673344109E+03  0.00000000000E+00 0. -1.
         -2   -1    0    0    0  501 -0.00000000000E+00 -0.00000000000E+00 -0.95612051007E+02  0.95612051007E+02  0.00000000000E+00 0.  1.
          2    1    1    2  502    0 -0.26569752262E+02 -0.98001505344E+01  0.82438795540E+03  0.82487423022E+03  0.00000000000E+00 0. -1.
         -2    1    1    2    0  502  0.26569752262E+02  0.98001505344E+01 -0.93266565313E+02  0.97471261872E+02  0.00000000000E+00 0.  1.
</event>
<event>
 4    1  0.5465458E+003  0.2464518E+02  0.7546771E-02  0.1472812E+00
          2   -1    0    0  501    0  0.00000000000E+00  0.00000000000E+00  0.65774536522E+02  0.65774536522E+02  0.00000000000E+00 0. -1.
         -2   -1    0    0    0  501 -0.00000000000E+00 -0.00000000000E+00 -0.10963603508E+02  0.10963603508E+02  0.00000000000E+00 0. -1.
          2    1    1    2  502    0 -0.33852256686E+01  0.24411580011E+02  0.42643682872E+02  0.49253108332E+02  0.00000000000E+00 0. -1.
         -2    1    1    2    0  502  0.33852256686E+01 -0.24411580011E+02  0.12167250143E+02  0.27485031699E+02  0.00000000000E+00 0. -1.
</event>
<event>
 4    1  0.5465458E+003  0.2835881E+02  0.7546771E-02  0.1434416E+00
          2   -1    0    0  501    0  0.00000000000E+00  0.00000000000E+00  0.50791606324E+03  0.50791606324E+03  0.00000000000E+00 0.  1.
         -2   -1    0    0    0  501 -0.00000000000E+00 -0.00000000000E+00 -0.29245068598E+01  0.29245068598E+01  0.00000000000E+00 0. -1.
          2    1    1    2  502    0 -0.25818557795E+02  0.11731336869E+02  0.42546331999E+03  0.42640738602E+03  0.00000000000E+00 0.  1.
         -2    1    1    2    0  502  0.25818557795E+02 -0.11731336869E+02  0.79528236391E+02  0.84433184085E+02  0.00000000000E+00 0. -1.
</event>
<event>
 4    1  0.5465458E+003  0.2895032E+02  0.7546771E-02  0.1428943E+00
          2   -1    0    0  501    0  0.00000000000E+00  0.00000000000E+00  0.47063554583E+03  0.47063554583E+03  0.00000000000E+00 0.  1.
         -2   -1    0    0    0  501 -0.00000000000E+00 -0.00000000000E+00 -0.81717259157E+01  0.81717259157E+01  0.00000000000E+00 0. -1.
          2    1    1    2  502    0 -0.17598770945E+02  0.22987042407E+02  0.44294845267E+03  0.44389351492E+03  0.00000000000E+00 0.  1.
         -2    1    1    2    0  502  0.17598770945E+02 -0.22987042407E+02  0.19515367236E+02  0.34913756827E+02  0.00000000000E+00 0. -1.
</event>
<event>
 4    1  0.5465458E+003  0.2296341E+02  0.7546771E-02  0.1492958E+00
          2   -1    0    0  501    0  0.00000000000E+00  0.00000000000E+00  0.35995904196E+03  0.35995904196E+03  0.00000000000E+00 0.  1.
         -2   -1    0    0    0  501 -0.00000000000E+00 -0.00000000000E+00 -0.40437494257E+02  0.40437494257E+02  0.00000000000E+00 0.  1.
          2    1    1    2  502    0  0.52345646242E+00 -0.22957440004E+02  0.35629927441E+03  0.35703850073E+03  0.00000000000E+00 0.  1.
         -2    1    1    2    0  502 -0.52345646242E+00  0.22957440004E+02 -0.36777726716E+02  0.43358035479E+02  0.00000000000E+00 0.  1.
</event>
<event>
 4    1  0.5465458E+003  0.3818378E+02  0.7546771E-02  0.1359470E+00
          2   -1    0    0  501    0  0.00000000000E+00  0.00000000000E+00  0.73379132003E+02  0.73379132003E+02  0.00000000000E+00 0. -1.
         -2   -1    0    0    0  501 -0.00000000000E+00 -0.00000000000E+00 -0.27729262528E+03  0.27729262528E+03  0.00000000000E+00 0. -1.
          2    1    1    2  502    0  0.13917490929E+01  0.38158409281E+02  0.66980525321E+02  0.77099882857E+02  0.00000000000E+00 0. -1.
         -2    1    1    2    0  502 -0.13917490929E+01 -0.38158409281E+02 -0.27089401860E+03  0.27357187443E+03  0.00000000000E+00 0. -1.
</event>
<event>
 4    1  0.5465458E+003  0.2436843E+02  0.7546771E-02  0.1475994E+00
          2   -1    0    0  501    0  0.00000000000E+00  0.00000000000E+00  0.12755698099E+02  0.12755698099E+02  0.00000000000E+00 0. -1.
         -2   -1    0    0    0  501 -0.00000000000E+00 -0.00000000000E+00 -0.80105499126E+02  0.80105499126E+02  0.00000000000E+00 0. -1.
          2    1    1    2  502    0 -0.16831664696E+02 -0.17621452347E+02 -0.36256760161E+01  0.24636680901E+02  0.00000000000E+00 0. -1.
         -2    1    1    2    0  502  0.16831664696E+02  0.17621452347E+02 -0.63724125011E+02  0.68224516324E+02  0.00000000000E+00 0. -1.
</event>
<event>
 4    1  0.5465458E+003  0.2081447E+02  0.7546771E-02  0.1521930E+00
          2   -1    0    0  501    0  0.00000000000E+00  0.00000000000E+00  0.59759292649E+03  0.59759292649E+03  0.00000000000E+00 0.  1.
         -2   -1    0    0    0  501 -0.00000000000E+00 -0.00000000000E+00 -0.79586581711E+01  0.79586581711E+01  0.00000000000E+00 0.  1.
          2    1    1    2  502    0 -0.13106073297E+02  0.16170127910E+02  0.58347330838E+03  0.58384445171E+03  0.00000000000E+00 0.  1.
         -2    1    1    2    0  502  0.13106073297E+02 -0.16170127910E+02  0.61609599405E+01  0.21707132959E+02  0.00000000000E+00 0.  1.
</event>
<event>
 4    1  0.5465458E+003  0.3568834E+02  0.7546771E-02  0.1375788E+00
          2   -1    0    0  501    0  0.00000000000E+00  0.00000000000E+00  0.42579428019E+03  0.42579428019E+03  0.00000000000E+00 0. -1.
         -2   -1    0    0    0  501 -0.00000000000E+00 -0.00000000000E+00 -0.15617884413E+02  0.15617884413E+02  0.00000000000E+00 0. -1.
          2    1    1    2  502    0  0.35281576086E+02 -0.53728852640E+01  0.40353631742E+03  0.40511136368E+03  0.00000000000E+00 0. -1.
         -2    1    1    2    0  502 -0.35281576086E+02  0.53728852640E+01  0.66400783604E+01  0.36300800925E+02  0.00000000000E+00 0. -1.
</event>
<event>
 4    1  0.5465458E+003  0.3514028E+02  0.7546771E-02  0.1379580E+00
          2   -1    0    0  501    0  0.00000000000E+00  0.00000000000E+00  0.19399191218E+04  0.19399191218E+04  0.00000000000E+00 0. -1.
         -2   -1    0    0    0  501 -0.00000000000E+00 -0.00000000000E+00 -0.11955920533E+02  0.11955920533E+02  0.00000000000E+00 0. -1.
          2    1    1    2  502    0  0.27094513332E+02 -0.22376920019E+02  0.19135840039E+04  0.19139066276E+04  0.00000000000E+00 0. -1.
         -2    1    1    2    0  502 -0.27094513332E+02  0.22376920019E+02  0.14379197411E+02  0.37968414774E+02  0.00000000000E+00 0. -1.
</event>
<event>
 4    1  0.5465458E+003  0.2606691E+02  0.7546771E-02  0.1457213E+00
          2   -1    0    0  501    0  0.00000000000E+00  0.00000000000E+00  0.32458843528E+02  0.32458843528E+02  0.00000000000E+00 0. -1.
         -2   -1    0    0    0  501 -0.00000000000E+00 -0.00000000000E+00 -0.34659740926E+03  0.34659740926E+03  0.00000000000E+00 0. -1.
          2    1    1    2  502    0  0.25794916368E+01  0.25938969235E+02  0.26646171636E+02  0.37276029361E+02  0.00000000000E+00 0. -1.
         -2    1    1    2    0  502 -0.25794916368E+01 -0.25938969235E+02 -0.34078473737E+03  0.34178022342E+03  0.00000000000E+00 0. -1.
</event>
<event>
 4    1  0.5465458E+003  0.2749011E+02  0.7546771E-02  0.1442746E+00
          2   -1    0    0  501    0  0.00000000000E+00  0.00000000000E+00  0.35027179740E+02  0.35027179740E+02  0.00000000000E+00 0. -1.
         -2   -1    0    0    0  501 -0.00000000000E+00 -0.00000000000E+00 -0.12949090841E+03  0.12949090841E+03  0.00000000000E+00 0. -1.
          2    1    1    2  502    0  0.10905794855E+02 -0.25234293925E+02  0.27862452058E+02  0.39141054994E+02  0.00000000000E+00 0. -1.
         -2    1    1    2    0  502 -0.10905794855E+02  0.25234293925E+02 -0.12232618072E+03  0.12537703315E+03  0.00000000000E+00 0. -1.
</event>
<event>
 4    1  0.5465458E+003  0.2048337E+02  0.7546771E-02  0.1526770E+00
          2   -1    0    0  501    0  0.00000000000E+00  0.00000000000E+00  0.12140644672E+04  0.12140644672E+04  0.00000000000E+00 0.  1.
         -2   -1    0    0    0  501 -0.00000000000E+00 -0.00000000000E+00 -0.40376684461E+00  0.40376684461E+00  0.00000000000E+00 0.  1.
          2    1    1    2  502    0 -0.13979168572E+02  0.14971667637E+02  0.37633210693E+03  0.37688913846E+03  0.00000000000E+00 0.  1.
         -2    1    1    2    0  502  0.13979168572E+02 -0.14971667637E+02  0.83732859340E+03  0.83757909556E+03  0.00000000000E+00 0.  1.
</event>
<event>
 4    1  0.5465458E+003  0.2012428E+02  0.7546771E-02  0.1532144E+00
          2   -1    0    0  501    0  0.00000000000E+00  0.00000000000E+00  0.12365330017E+01  0.12365330017E+01  0.00000000000E+00 0.  1.
         -2   -1    0    0    0  501 -0.00000000000E+00 -0.00000000000E+00 -0.35032063134E+03  0.35032063134E+03  0.00000000000E+00 0.  1.
          2    1    1    2  502    0  0.88391624577E+01  0.18079141826E+02 -0.21938876200E+03  0.22030981606E+03  0.00000000000E+00 0.  1.
         -2    1    1    2    0  502 -0.88391624577E+01 -0.18079141826E+02 -0.12969533634E+03  0.13124734828E+03  0.00000000000E+00 0.  1.
</event>
<event>
 4    1  0.5465458E+003  0.2952475E+02  0.7546771E-02  0.1423772E+00
          2   -1    0    0  501    0  0.00000000000E+00  0.00000000000E+00  0.51262078607E+01  0.51262078607E+01  0.00000000000E+00 0. -1.
         -2   -1    0    0    0  501 -0.00000000000E+00 -0.00000000000E+00 -0.80555452368E+03  0.80555452368E+03  0.00000000000E+00 0. -1.
          2    1    1    2  502    0 -0.17275546850E+02 -0.23942977693E+02 -0.40189894162E+02  0.49869211870E+02  0.00000000000E+00 0. -1.
         -2    1    1    2    0  502  0.17275546850E+02  0.23942977693E+02 -0.76023842166E+03  0.76081151967E+03  0.00000000000E+00 0. -1.
</event>
<event>
 4    1  0.5465458E+003  0.4344689E+02  0.7546771E-02  0.1329391E+00
          2   -1    0    0  501    0  0.00000000000E+00  0.00000000000E+00  0.28047680390E+03  0.28047680390E+03  0.00000000000E+00 0. -1.
         -2   -1    0    0    0  501 -0.00000000000E+00 -0.00000000000E+00 -0.77762893267E+01  0.77762893267E+01  0.00000000000E+00 0. -1.
          2    1    1    2  502    0 -0.29234067119E+02 -0.32140315929E+02  0.83485332737E+02  0.94113927612E+02  0.00000000000E+00 0. -1.
         -2    1    1    2    0  502  0.29234067119E+02  0.32140315929E+02  0.18921518183E+03  0.19413916561E+03  0.00000000000E+00 0. -1.
</event>
<event>
 4    1  0.5465458E+003  0.3342303E+02  0.7546771E-02  0.1392002E+00
          2   -1    0    0  501    0  0.00000000000E+00  0.00000000000E+00  0.15038904525E+04  0.15038904525E+04  0.00000000000E+00 0.  1.
         -2   -1    0    0    0  501 -0.00000000000E+00 -0.00000000000E+00 -0.11336233612E+01  0.11336233612E+01  0.00000000000E+00 0. -1.
          2    1    1    2  502    0 -0.13577147593E+02 -0.30541124453E+02  0.11932192448E+04  0.11936872561E+04  0.00000000000E+00 0.  1.
         -2    1    1    2    0  502  0.13577147593E+02  0.30541124453E+02  0.30953758442E+03  0.31133681984E+03  0.00000000000E+00 0. -1.
</event>
<event>
 4    1  0.5465458E+003  0.2686882E+02  0.7546771E-02  0.1448930E+00
          2   -1    0    0  501    0  0.00000000000E+00  0.00000000000E+00  0.63826413925E+01  0.63826413925E+01  0.00000000000E+00 0.  1.
         -2   -1    0    0    0  501 -0.00000000000E+00 -0.00000000000E+00 -0.23177933732E+03  0.23177933732E+03  0.00000000000E+00 0.  1.
          2    1    1    2  502    0 -0.26696439680E+02  0.30387107373E+01 -0.27491143602E+02  0.38440819854E+02  0.00000000000E+00 0.  1.
         -2    1    1    2    0  502  0.26696439680E+02 -0.30387107373E+01 -0.19790555233E+03  0.19972115886E+03  0.00000000000E+00 0.  1.
</event>
<event>
 4    1  0.5465458E+003  0.2432101E+02  0.7546771E-02  0.1476545E+00
          2   -1    0    0  501    0  0.00000000000E+00  0.00000000000E+00  0.12881491538E+02  0.12881491538E+02  0.00000000000E+00 0. -1.
         -2   -1    0    0    0  501 -0.00000000000E+00 -0.00000000000E+00 -0.60675745809E+02  0.60675745809E+02  0.00000000000E+00 0.  1.
          2    1    1    2  502    0  0.19646956422E+02  0.14335572309E+02 -0.57596895593E+01  0.24993710287E+02  0.00000000000E+00 0. -1.
         -2    1    1    2    0  502 -0.19646956422E+02 -0.14335572309E+02 -0.42034564711E+02  0.48563527060E+02  0.00000000000E+00 0.  1.
</event>
<event>
 4    1  0.5465458E+003  0.4343206E+02  0.7546771E-02  0.1329468E+00
          2   -1    0    0  501    0  0.00000000000E+00  0.00000000000E+00  0.24614794739E+04  0.24614794739E+04  0.00000000000E+00 0. -1.
         -2   -1    0    0    0  501 -0.00000000000E+00 -0.00000000000E+00 -0.44950217492E+02  0.44950217492E+02  0.00000000000E+00 0.  1.
          2    1    1    2  502    0 -0.52854910723E+01 -0.43109250376E+02  0.24507506682E+04  0.24511354882E+04  0.00000000000E+00 0. -1.
         -2    1    1    2    0  502  0.52854910723E+01  0.43109250376E+02 -0.34221411772E+02  0.55294203201E+02  0.00000000000E+00 0.  1.
</event>
<event>
 4    1  0.5465458E+003  0.4355022E+02  0.7546771E-02  0.1328850E+00
          2   -1    0    0  501    0  0.00000000000E+00  0.00000000000E+00  0.13255268386E+04  0.13255268386E+04  0.00000000000E+00 0. -1.
         -2   -1    0    0    0  501 -0.00000000000E+00 -0.00000000000E+00 -0.71478471682E+01  0.71478471682E+01  0.00000000000E+00 0.  1.
          2    1    1    2  502    0 -0.43963821476E+01 -0.43327746725E+02  0.12551133210E+04  0.12558686517E+04  0.00000000000E+00 0. -1.
         -2    1    1    2    0  502  0.43963821476E+01  0.43327746725E+02  0.63265670458E+02  0.76806034078E+02  0.00000000000E+00 0.  1.
</event>
<event>
 4    1  0.5465458E+003  0.2011303E+02  0.7546771E-02  0.1532315E+00
          2   -1    0    0  501    0  0.00000000000E+00  0.00000000000E+00  0.19080251024E+04  0.19080251024E+04  0.00000000000E+00 0.  1.
         -2   -1    0    0    0  501 -0.00000000000E+00 -0.00000000000E+00 -0.25565925840E+00  0.25565925840E+00  0.00000000000E+00 0. -1.
          2    1    1    2  502    0  0.10677763310E+02  0.17044625511E+02  0.13481012083E+04  0.13482512383E+04  0.00000000000E+00 0.  1.
         -2    1    1    2    0  502 -0.10677763310E+02 -0.17044625511E+02  0.55966823486E+03  0.56002952333E+03  0.00000000000E+00 0. -1.
</event>
<event>
 4    1  0.5465458E+003  0.2566465E+02  0.7546771E-02  0.1461504E+00
          2   -1    0    0  501    0  0.00000000000E+00  0.00000000000E+00  0.15927219830E+04  0.15927219830E+04  0.00000000000E+00 0.  1.
         -2   -1    0    0    0  501 -0.00000000000E+00 -0.00000000000E+00 -0.54548327390E+01  0.54548327390E+01  0.00000000000E+00 0. -1.
          2    1    1    2  502    0  0.25014275438E+02 -0.57410888348E+01  0.15618339832E+04  0.15620448346E+04  0.00000000000E+00 0.  1.
         -2    1    1    2    0  502 -0.25014275438E+02  0.57410888348E+01  0.25433167018E+02  0.36131981142E+02  0.00000000000E+00 0. -1.
</event>
<event>
 4    1  0.5465458E+003  0.2099693E+02  0.7546771E-02  0.1519309E+00
          2   -1    0    0  501    0  0.00000000000E+00  0.00000000000E+00  0.58529210403E+03  0.58529210403E+03  0.00000000000E+00 0.  1.
         -2   -1    0    0    0  501 -0.00000000000E+00 -0.00000000000E+00 -0.26786104386E+03  0.26786104386E+03  0.00000000000E+00 0. -1.
          2    1    1    2  502    0  0.62589637767E+01  0.20042364066E+02  0.58469189580E+03  0.58506878570E+03  0.00000000000E+00 0.  1.
         -2    1    1    2    0  502 -0.62589637767E+01 -0.20042364066E+02 -0.26726083563E+03  0.26808436218E+03  0.00000000000E+00 0. -1.
</event>
<event>
 4    1  0.5465458E+003  0.2399786E+02  0.7546771E-02  0.1480334E+00
          2   -1    0    0  501    0  0.00000000000E+00  0.00000000000E+00  0.19038174314E+02  0.19038174314E+02  0.00000000000E+00 0.  1.
         -2   -1    0    0    0  501 -0.00000000000E+00 -0.00000000000E+00 -0.60354270012E+03  0.60354270012E+03  0.00000000000E+00 0.  1.
          2    1    1    2  502    0 -0.53156988228E+01 -0.23401722127E+02  0.11136949296E+02  0.26456169264E+02  0.00000000000E+00 0.  1.
         -2    1    1    2    0  502  0.53156988228E+01  0.23401722127E+02 -0.59564147511E+03  0.59612470517E+03  0.00000000000E+00 0.  1.
</event>
<event>
 4    1  0.5465458E+003  0.2845793E+02  0.7546771E-02  0.1433488E+00
          2   -1    0    0  501    0  0.00000000000E+00  0.00000000000E+00  0.24080899617E+03  0.24080899617E+03  0.00000000000E+00 0. -1.
         -2   -1    0    0    0  501 -0.00000000000E+00 -0.00000000000E+00 -0.32139849423E+02  0.32139849423E+02  0.00000000000E+00 0. -1.
          2    1    1    2  502    0  0.22373207841E+02 -0.17586731857E+02  0.23347153527E+03  0.23519951391E+03  0.00000000000E+00 0. -1.
         -2    1    1    2    0  502 -0.22373207841E+02  0.17586731857E+02 -0.24802388514E+02  0.37749331683E+02  0.00000000000E+00 0. -1.
</event>
<event>
 4    1  0.5465458E+003  0.2189506E+02  0.7546771E-02  0.1506859E+00
          2   -1    0    0  501    0  0.00000000000E+00  0.00000000000E+00  0.58037467731E+03  0.58037467731E+03  0.00000000000E+00 0. -1.
         -2   -1    0    0    0  501 -0.00000000000E+00 -0.00000000000E+00 -0.11104442751E+02  0.11104442751E+02  0.00000000000E+00 0.  1.
          2    1    1    2  502    0 -0.21885530005E+02  0.64609466928E+00  0.56916280794E+03  0.56958379174E+03  0.00000000000E+00 0. -1.
         -2    1    1    2    0  502  0.21885530005E+02 -0.64609466928E+00  0.10742661324E+00  0.21895328324E+02  0.00000000000E+00 0.  1.
</event>
<event>
 4    1  0.5465458E+003  0.2915744E+02  0.7546771E-02  0.1427062E+00
          2   -1    0    0  501    0  0.00000000000E+00  0.00000000000E+00  0.17038169987E+03  0.17038169987E+03  0.00000000000E+00 0.  1.
         -2   -1    0    0    0  501 -0.00000000000E+00 -0.00000000000E+00 -0.96583467263E+01  0.96583467263E+01  0.00000000000E+00 0.  1.
          2    1    1    2  502    0 -0.20829286182E+02  0.20403356472E+02  0.14294844600E+03  0.14589178980E+03  0.00000000000E+00 0.  1.
         -2    1    1    2    0  502  0.20829286182E+02 -0.20403356472E+02  0.17774907147E+02  0.34148256796E+02  0.00000000000E+00 0.  1.
</event>
<event>
 4    1  0.5465458E+003  0.2569705E+02  0.7546771E-02  0.1461154E+00
          2   -1    0    0  501    0  0.00000000000E+00  0.00000000000E+00  0.24081122028E+04  0.24081122028E+04  0.00000000000E+00 0.  1.
         -2   -1    0    0    0  501 -0.00000000000E+00 -0.00000000000E+00 -0.28717706539E+00  0.28717706539E+00  0.00000000000E+00 0.  1.
          2    1    1    2  502    0  0.18178110915E+02 -0.18162987802E+02  0.94806621283E+03  0.94841440402E+03  0.00000000000E+00 0.  1.
         -2    1    1    2    0  502 -0.18178110915E+02  0.18162987802E+02  0.14597588129E+04  0.14599849758E+04  0.00000000000E+00 0.  1.
</event>
<event>
 4    1  0.5465458E+003  0.4371616E+02  0.7546771E-02  0.1327985E+00
          2   -1    0    0  501    0  0.00000000000E+00  0.00000000000E+00  0.15540004721E+04  0.15540004721E+04  0.00000000000E+00 0. -1.
         -2   -1    0    0    0  501 -0.00000000000E+00 -0.00000000000E+00 -0.12375540283E+01  0.12375540283E+01  0.00000000000E+00 0.  1.
          2    1    1    2  502    0 -0.24550987839E+02 -0.36171143743E+02  0.83795257943E+03  0.83909214513E+03  0.00000000000E+00 0. -1.
         -2    1    1    2    0  502  0.24550987839E+02  0.36171143743E+02  0.71481033866E+03  0.71614588101E+03  0.00000000000E+00 0.  1.
</event>
<event>
 4    1  0.5465458E+003  0.2513157E+02  0.7546771E-02  0.1467337E+00
          2   -1    0    0  501    0  0.00000000000E+00  0.00000000000E+00  0.18599687262E+02  0.18599687262E+02  0.00000000000E+00 0. -1.
         -2   -1    0    0    0  501 -0.00000000000E+00 -0.00000000000E+00 -0.34206295506E+02  0.34206295506E+02  0.00000000000E+00 0.  1.
          2    1    1    2  502    0  0.16288636562E+02 -0.19138336017E+02 -0.55507466543E+01  0.25737256555E+02  0.00000000000E+00 0. -1.
         -2    1    1    2    0  502 -0.16288636562E+02  0.19138336017E+02 -0.10055861589E+02  0.27068726214E+02  0.00000000000E+00 0.  1.
</event>
<event>
 4    1  0.5465458E+003  0.3177532E+02  0.7546771E-02  0.1404772E+00
          2   -1    0    0  501    0  0.00000000000E+00  0.00000000000E+00  0.58566530611E+02  0.58566530611E+02  0.00000000000E+00 0. -1.
         -2   -1    0    0    0  501 -0.00000000000E+00 -0.00000000000E+00 -0.18573497609E+02  0.18573497609E+02  0.00000000000E+00 0. -1.
          2    1    1    2  502    0 -0.27520566180E+02 -0.15883625073E+02  0.30332295591E+02  0.43928570021E+02  0.00000000000E+00 0. -1.
         -2    1    1    2    0  502  0.27520566180E+02  0.15883625073E+02  0.96607374115E+01  0.33211458198E+02  0.00000000000E+00 0. -1.
</event>
<event>
 4    1  0.5465458E+003  0.2110039E+02  0.7546771E-02  0.1517836E+00
          2   -1    0    0  501    0  0.00000000000E+00  0.00000000000E+00  0.19072194770E+03  0.19072194770E+03  0.00000000000E+00 0.  1.
         -2   -1    0    0    0  501 -0.00000000000E+00 -0.00000000000E+00 -0.10821130095E+03  0.10821130095E+03  0.00000000000E+00 0. -1.
          2    1    1    2  502    0  0.19042745562E+02 -0.90884697653E+01  0.18910094660E+03  0.19027452390E+03  0.00000000000E+00 0.  1.
         -2    1    1    2    0  502 -0.19042745562E+02  0.90884697653E+01 -0.10659029986E+03  0.10865872475E+03  0.00000000000E+00 0. -1.
</event>
<event>
 4    1  0.5465458E+003  0.2957152E+02  0.7546771E-02  0.1423357E+00
          2   -1    0    0  501    0  0.00000000000E+00  0.00000000000E+00  0.64014102444E+03  0.64014102444E+03  0.00000000000E+00 0. -1.
         -2   -1    0    0    0  501 -0.00000000000E+00 -0.00000000000E+00 -0.40034016683E+01  0.40034016683E+01  0.00000000000E+00 0. -1.
          2    1    1    2  502    0  0.24063014515E+02  0.17188542992E+02  0.57947833513E+03  0.58023238065E+03  0.00000000000E+00 0. -1.
         -2    1    1    2    0  502 -0.24063014515E+02 -0.17188542992E+02  0.56659287642E+02  0.63912045452E+02  0.00000000000E+00 0. -1.
</event>
<event>
 4    1  0.5465458E+003  0.2528607E+02  0.7546771E-02  0.1465628E+00
          2   -1    0    0  501    0  0.00000000000E+00  0.00000000000E+00  0.52742135517E+03  0.52742135517E+03  0.00000000000E+00 0. -1.
         -2   -1    0    0    0  501 -0.00000000000E+00 -0.00000000000E+00 -0.43371998050E+01  0.43371998050E+01  0.00000000000E+00 0. -1.
          2    1    1    2  502    0  0.72850122311E+01  0.24213924619E+02  0.48722505018E+03  0.48788075908E+03  0.00000000000E+00 0. -1.
         -2    1    1    2    0  502 -0.72850122311E+01 -0.24213924619E+02  0.35859105180E+02  0.43877795899E+02  0.00000000000E+00 0. -1.
</event>
<event>
 4    1  0.5465458E+003  0.2711698E+02  0.7546771E-02  0.1446437E+00
          2   -1    0    0  501    0  0.00000000000E+00  0.00000000000E+00  0.10983518813E+04  0.10983518813E+04  0.00000000000E+00 0.  1.
         -2   -1    0    0    0  501 -0.00000000000E+00 -0.00000000000E+00 -0.41521393529E+01  0.41521393529E+01  0.00000000000E+00 0.  1.
          2    1    1    2  502    0 -0.19190953671E+01  0.27048991036E+02  0.10519580204E+04  0.10523074682E+04  0.00000000000E+00 0.  1.
         -2    1    1    2    0  502  0.19190953671E+01 -0.27048991036E+02  0.42241721506E+02  0.50196552460E+02  0.00000000000E+00 0.  1.
</event>
<event>
 4    1  0.5465458E+003  0.2037031E+02  0.7546771E-02  0.1528448E+00
          2   -1    0    0  501    0  0.00000000000E+00  0.00000000000E+00  0.13905628287E+02  0.13905628287E+02  0.00000000000E+00 0. -1.
         -2   -1    0    0    0  501 -0.00000000000E+00 -0.00000000000E+00 -0.32704210465E+02  0.32704210465E+02  0.00000000000E+00 0. -1.
          2    1    1    2  502    0 -0.20256041540E+02 -0.21545862848E+01 -0.25029588567E+01  0.20523505158E+02  0.00000000000E+00 0. -1.
         -2    1    1    2    0  502  0.20256041540E+02  0.21545862848E+01 -0.16295623321E+02  0.26086333594E+02  0.00000000000E+00 0. -1.
</event>
<event>
 4    1  0.5465458E+003  0.5837637E+02  0.7546771E-02  0.1265451E+00
          2   -1    0    0  501    0  0.00000000000E+00  0.00000000000E+00  0.89859543109E+03  0.89859543109E+03  0.00000000000E+00 0.  1.
         -2   -1    0    0    0  501 -0.00000000000E+00 -0.00000000000E+00 -0.78587114623E+01  0.78587114623E+01  0.00000000000E+00 0.  1.
          2    1    1    2  502    0  0.53048295900E+02 -0.24365530377E+02  0.77138699497E+03  0.77359272022E+03  0.00000000000E+00 0.  1.
         -2    1    1    2    0  502 -0.53048295900E+02  0.24365530377E+02  0.11934972466E+03  0.13286142234E+03  0.00000000000E+00 0.  1.
</event>
<event>
 4    1  0.5465458E+003  0.2054934E+02  0.7546771E-02  0.1525797E+00
          2   -1    0    0  501    0  0.00000000000E+00  0.00000000000E+00  0.85419816491E+03  0.85419816491E+03  0.00000000000E+00 0. -1.
         -2   -1    0    0    0  501 -0.00000000000E+00 -0.00000000000E+00 -0.56239128345E+02  0.56239128345E+02  0.00000000000E+00 0. -1.
          2    1    1    2  502    0 -0.20013171409E+02  0.46634969803E+01  0.85219301897E+03  0.85244074094E+03  0.00000000000E+00 0. -1.
         -2    1    1    2    0  502  0.20013171409E+02 -0.46634969803E+01 -0.54233982400E+02  0.57996552319E+02  0.00000000000E+00 0. -1.
</event>
<event>
 4    1  0.5465458E+003  0.2102230E+02  0.7546771E-02  0.1518947E+00
          2   -1    0    0  501    0  0.00000000000E+00  0.00000000000E+00  0.42668304329E+03  0.42668304329E+03  0.00000000000E+00 0.  1.
         -2   -1    0    0    0  501 -0.00000000000E+00 -0.00000000000E+00 -0.11602197925E+03  0.11602197925E+03  0.00000000000E+00 0. -1.
          2    1    1    2  502    0  0.91765394878E+01  0.18913701611E+02  0.42546912051E+03  0.42598815651E+03  0.00000000000E+00 0.  1.
         -2    1    1    2    0  502 -0.91765394878E+01 -0.18913701611E+02 -0.11480805647E+03  0.11671686603E+03  0.00000000000E+00 0. -1.
</event>
<event>
 4    1  0.5465458E+003  0.2624803E+02  0.7546771E-02  0.1455312E+00
          2   -1    0    0  501    0  0.00000000000E+00  0.00000000000E+00  0.90196434895E+02  0.90196434895E+02  0.00000000000E+00 0.  1.
         -2   -1    0    0    0  501 -0.00000000000E+00 -0.00000000000E+00 -0.76542167325E+01  0.76542167325E+01  0.00000000000E+00 0. -1.
          2    1    1    2  502    0  0.23751727652E+02  0.11172022432E+02  0.39048791633E+02  0.47050683095E+02  0.00000000000E+00 0.  1.
         -2    1    1    2    0  502 -0.23751727652E+02 -0.11172022432E+02  0.43493426529E+02  0.50799968533E+02  0.00000000000E+00 0. -1.
</event>
<event>
 4    1  0.5465458E+003  0.2487029E+02  0.7546771E-02  0.1470260E+00
          2   -1    0    0  501    0  0.00000000000E+00  0.00000000000E+00  0.25419859149E+02  0.25419859149E+02  0.00000000000E+00 0.  1.
         -2   -1    0    0    0  501 -0.00000000000E+00 -0.00000000000E+00 -0.33312091856E+02  0.33312091856E+02  0.00000000000E+00 0.  1.
          2    1    1    2  502    0 -0.24574828811E+02 -0.38221638353E+01  0.11300359542E+02  0.27317197390E+02  0.00000000000E+00 0.  1.
         -2    1    1    2    0  502  0.24574828811E+02  0.38221638353E+01 -0.19192592249E+02  0.31414753615E+02  0.00000000000E+00 0.  1.
</event>
<event>
 4    1  0.5465458E+003  0.2141667E+02  0.7546771E-02  0.1513398E+00
          2   -1    0    0  501    0  0.00000000000E+00  0.00000000000E+00  0.13711245285E+02  0.13711245285E+02  0.00000000000E+00 0. -1.
         -2   -1    0    0    0  501 -0.00000000000E+00 -0.00000000000E+00 -0.53040926911E+02  0.53040926911E+02  0.00000000000E+00 0.  1.
          2    1    1    2  502    0  0.19816416126E+02  0.81230235478E+01  0.61809922699E+00  0.21425589987E+02  0.00000000000E+00 0. -1.
         -2    1    1    2    0  502 -0.19816416126E+02 -0.81230235478E+01 -0.39947780854E+02  0.45326582209E+02  0.00000000000E+00 0.  1.
</event>
<event>
 4    1  0.5465458E+003  0.2515359E+02  0.7546771E-02  0.1467092E+00
          2   -1    0    0  501    0  0.00000000000E+00  0.00000000000E+00  0.80577080149E+02  0.80577080149E+02  0.00000000000E+00 0. -1.
         -2   -1    0    0    0  501 -0.00000000000E+00 -0.00000000000E+00 -0.20529862172E+02  0.20529862172E+02  0.00000000000E+00 0. -1.
          2    1    1    2  502    0  0.25123696062E+02  0.12260136926E+01  0.69749937584E+02  0.74146861069E+02  0.00000000000E+00 0. -1.
         -2    1    1    2    0  502 -0.25123696062E+02 -0.12260136926E+01 -0.97027196065E+01  0.26960081252E+02  0.00000000000E+00 0. -1.
</event>
<event>
 4    1  0.5465458E+003  0.4664876E+02  0.7546771E-02  0.1313395E+00
          2   -1    0    0  501    0  0.00000000000E+00  0.00000000000E+00  0.36897974067E+04  0.36897974067E+04  0.00000000000E+00 0. -1.
         -2   -1    0    0    0  501 -0.00000000000E+00 -0.00000000000E+00 -0.58986805785E+00  0.58986805785E+00  0.00000000000E+00 0. -1.
          2    1    1    2  502    0  0.15939664595E+02  0.43840979264E+02  0.18199272976E+04  0.18205250542E+04  0.00000000000E+00 0. -1.
         -2    1    1    2    0  502 -0.15939664595E+02 -0.43840979264E+02  0.18692802410E+04  0.18698622205E+04  0.00000000000E+00 0. -1.
</event>
<event>
 4    1  0.5465458E+003  0.2340350E+02  0.7546771E-02  0.1487493E+00
          2   -1    0    0  501    0  0.00000000000E+00  0.00000000000E+00  0.26690322138E+03  0.26690322138E+03  0.00000000000E+00 0.  1.
         -2   -1    0    0    0  501 -0.00000000000E+00 -0.00000000000E+00 -0.46622226346E+02  0.46622226346E+02  0.00000000000E+00 0.  1.
          2    1    1    2  502    0 -0.23299372531E+02  0.22052730490E+01  0.26341432847E+03  0.26445194730E+03  0.00000000000E+00 0.  1.
         -2    1    1    2    0  502  0.23299372531E+02 -0.22052730490E+01 -0.43133333440E+02  0.49073500417E+02  0.00000000000E+00 0.  1.
</event>
<event>
 4    1  0.5465458E+003  0.3978656E+02  0.7546771E-02  0.1349741E+00
          2   -1    0    0  501    0  0.00000000000E+00  0.00000000000E+00  0.13588857464E+04  0.13588857464E+04  0.00000000000E+00 0. -1.
         -2   -1    0    0    0  501 -0.00000000000E+00 -0.00000000000E+00 -0.58453406929E+02  0.58453406929E+02  0.00000000000E+00 0.  1.
          2    1    1    2  502    0 -0.28839929789E+02  0.27408547677E+02  0.13517887628E+04  0.13523741454E+04  0.00000000000E+00 0. -1.
         -2    1    1    2    0  502  0.28839929789E+02 -0.27408547677E+02 -0.51356423313E+02  0.64965007900E+02  0.00000000000E+00 0.  1.
</event>
<event>
 4    1  0.5465458E+003  0.3466469E+02  0.7546771E-02  0.1382936E+00
          2   -1    0    0  501    0  0.00000000000E+00  0.00000000000E+00  0.40704177851E+02  0.40704177851E+02  0.00000000000E+00 0.  1.
         -2   -1    0    0    0  501 -0.00000000000E+00 -0.00000000000E+00 -0.48952998569E+03  0.48952998569E+03  0.00000000000E+00 0. -1.
          2    1    1    2  502    0  0.34647146332E+02 -0.11027037627E+01  0.32585882000E+02  0.47576048703E+02  0.00000000000E+00 0.  1.
         -2    1    1    2    0  502 -0.34647146332E+02  0.11027037627E+01 -0.48141168984E+03  0.48265811484E+03  0.00000000000E+00 0. -1.
</event>
<event>
 4    1  0.5465458E+003  0.2074605E+02  0.7546771E-02  0.1522922E+00
          2   -1    0    0  501    0  0.00000000000E+00  0.00000000000E+00  0.54588885238E+03  0.54588885238E+03  0.00000000000E+00 0. -1.
         -2   -1    0    0    0  501 -0.00000000000E+00 -0.00000000000E+00 -0.41461017803E+02  0.41461017803E+02  0.00000000000E+00 0.  1.
          2    1    1    2  502    0 -0.20306746679E+02 -0.42467155052E+01  0.54308314059E+03  0.54347925089E+03  0.00000000000E+00 0. -1.
         -2    1    1    2    0  502  0.20306746679E+02  0.42467155052E+01 -0.38655306020E+02  0.43870619288E+02  0.00000000000E+00 0.  1.
</event>
<event>
 4    1  0.5465458E+003  0.2242493E+02  0.7546771E-02  0.1499848E+00
          2   -1    0    0  501    0  0.00000000000E+00  0.00000000000E+00  0.11632831248E+04  0.11632831248E+04  0.00000000000E+00 0.  1.
         -2   -1    0    0    0  501 -0.00000000000E+00 -0.00000000000E+00 -0.39499984198E+01  0.39499984198E+01  0.00000000000E+00 0.  1.
          2    1    1    2  502    0  0.22055102389E+02 -0.40558756893E+01  0.11304222109E+04  0.11306446181E+04  0.00000000000E+00 0.  1.
         -2    1    1    2    0  502 -0.22055102389E+02  0.40558756893E+01  0.28910915487E+02  0.36588505070E+02  0.00000000000E+00 0.  1.
</event>
<event>
 4    1  0.5465458E+003  0.3773029E+02  0.7546771E-02  0.1362325E+00
          2   -1    0    0  501    0  0.00000000000E+00  0.00000000000E+00  0.33551537901E+02  0.33551537901E+02  0.00000000000E+00 0. -1.
         -2   -1    0    0    0  501 -0.00000000000E+00 -0.00000000000E+00 -0.16699368752E+03  0.16699368752E+03  0.00000000000E+00 0.  1.
          2    1    1    2  502    0 -0.77310602306E+01 -0.36929738830E+02  0.19881121729E+02  0.42647788965E+02  0.00000000000E+00 0. -1.
         -2    1    1    2    0  502  0.77310602306E+01  0.36929738830E+02 -0.15332327135E+03  0.15789743646E+03  0.00000000000E+00 0.  1.
</event>
<event>
 4    1  0.5465458E+003  0.2093006E+02  0.7546771E-02  0.1520266E+00
          2   -1    0    0  501    0  0.00000000000E+00  0.00000000000E+00  0.82674887237E+02  0.82674887237E+02  0.00000000000E+00 0. -1.
         -2   -1    0    0    0  501 -0.00000000000E+00 -0.00000000000E+00 -0.75454689167E+01  0.75454689167E+01  0.00000000000E+00 0. -1.
          2    1    1    2  502    0 -0.10617453769E+02  0.18037108322E+02  0.62180441440E+02  0.65608497154E+02  0.00000000000E+00 0. -1.
         -2    1    1    2    0  502  0.10617453769E+02 -0.18037108322E+02  0.12948976880E+02  0.24611858999E+02  0.00000000000E+00 0. -1.
</event>
<event>
 4    1  0.5465458E+003  0.2816972E+02  0.7546771E-02  0.1436199E+00
          2   -1    0    0  501    0  0.00000000000E+00  0.00000000000E+00  0.12312260346E+01  0.12312260346E+01  0.00000000000E+00 0. -1.
         -2   -1    0    0    0  501 -0.00000000000E+00 -0.00000000000E+00 -0.65308236247E+03  0.65308236247E+03  0.00000000000E+00 0. -1.
          2    1    1    2  502    0 -0.14920945270E+02  0.23893479470E+02 -0.28843558397E+03  0.28980790029E+03  0.00000000000E+00 0. -1.
         -2    1    1    2    0  502  0.14920945270E+02 -0.23893479470E+02 -0.36341555247E+03  0.36450568822E+03  0.00000000000E+00 0. -1.
</event>
<event>
 4    1  0.5465458E+003  0.3560636E+02  0.7546771E-02  0.1376350E+00
          2   -1    0    0  501    0  0.00000000000E+00  0.00000000000E+00  0.15830122579E+04  0.15830122579E+04  0.00000000000E+00 0.  1.
         -2   -1    0    0    0  501 -0.00000000000E+00 -0.00000000000E+00 -0.88591858410E+01  0.88591858410E+01  0.00000000000E+00 0. -1.
          2    1    1    2  502    0  0.65841464861E+01  0.34992315395E+02  0.15461831736E+04  0.15465931008E+04  0.00000000000E+00 0.  1.
         -2    1    1    2    0  502 -0.65841464861E+01 -0.34992315395E+02  0.27969898518E+02  0.45278342999E+02  0.00000000000E+00 0. -1.
</event>
<event>
 4    1  0.5465458E+003  0.2059648E+02  0.7546771E-02  0.1525105E+00
          2   -1    0    0  501    0  0.00000000000E+00  0.00000000000E+00  0.15490093855E+04  0.15490093855E+04  0.00000000000E+00 0. -1.
         -2   -1    0    0    0  501 -0.00000000000E+00 -0.00000000000E+00 -0.62472268525E+00  0.62472268525E+00  0.00000000000E+00 0. -1.
          2    1    1    2  502    0  0.20273649805E+02 -0.36323453326E+01  0.13548536370E+04  0.13550101817E+04  0.00000000000E+00 0. -1.
         -2    1    1    2    0  502 -0.20273649805E+02  0.36323453326E+01  0.19353102583E+03  0.19462392650E+03  0.00000000000E+00 0. -1.
</event>
<event>
 4    1  0.5465458E+003  0.2547660E+02  0.7546771E-02  0.1463542E+00
          2   -1    0    0  501    0  0.00000000000E+00  0.00000000000E+00  0.31534522510E+03  0.31534522510E+03  0.00000000000E+00 0.  1.
         -2   -1    0    0    0  501 -0.00000000000E+00 -0.00000000000E+00 -0.22324109674E+02  0.22324109674E+02  0.00000000000E+00 0. -1.
          2    1    1    2  502    0  0.12898109606E+02 -0.21970338553E+02  0.30737392178E+03  0.30842792480E+03  0.00000000000E+00 0.  1.
         -2    1    1    2    0  502 -0.12898109606E+02  0.21970338553E+02 -0.14352806346E+02  0.29241409979E+02  0.00000000000E+00 0. -1.
</event>
<event>
 4    1  0.5465458E+003  0.3438568E+02  0.7546771E-02  0.1384934E+00
          2   -1    0    0  501    0  0.00000000000E+00  0.00000000000E+00  0.77745688595E+03  0.77745688595E+03  0.00000000000E+00 0. -1.
         -2   -1    0    0    0  501 -0.00000000000E+00 -0.00000000000E+00 -0.16334156705E+03  0.16334156705E+03  0.00000000000E+00 0.  1.
          2    1    1    2  502    0  0.90551071284E+01  0.33171972131E+02  0.77526189293E+03  0.77602408296E+03  0.00000000000E+00 0. -1.
         -2    1    1    2    0  502 -0.90551071284E+01 -0.33171972131E+02 -0.16114657403E+03  0.16477437004E+03  0.00000000000E+00 0.  1.
</event>
<event>
 4    1  0.5465458E+003  0.2023421E+02  0.7546771E-02  0.1530485E+00
          2   -1    0    0  501    0  0.00000000000E+00  0.00000000000E+00  0.33381905200E+02  0.33381905200E+02  0.00000000000E+00 0.  1.
         -2   -1    0    0    0  501 -0.00000000000E+00 -0.00000000000E+00 -0.43628395021E+02  0.43628395021E+02  0.00000000000E+00 0.  1.
          2    1    1    2  502    0  0.15668492886E+02 -0.12803180277E+02  0.27524032930E+02  0.34161315596E+02  0.00000000000E+00 0.  1.
         -2    1    1    2    0  502 -0.15668492886E+02  0.12803180277E+02 -0.37770522751E+02  0.42848984625E+02  0.00000000000E+00 0.  1.
</event>
<event>
 4    1  0.5465458E+003  0.3446928E+02  0.7546771E-02  0.1384333E+00
          2   -1    0    0  501    0  0.00000000000E+00  0.00000000000E+00  0.67534930206E+03  0.67534930206E+03  0.00000000000E+00 0. -1.
         -2   -1    0    0    0  501 -0.00000000000E+00 -0.00000000000E+00 -0.40511886969E+01  0.40511886969E+01  0.00000000000E+00 0. -1.
          2    1    1    2  502    0 -0.97057279532E+01 -0.33074619068E+02  0.59115608518E+03  0.59216015454E+03  0.00000000000E+00 0. -1.
         -2    1    1    2    0  502  0.97057279532E+01  0.33074619068E+02  0.80142028184E+02  0.87240336216E+02  0.00000000000E+00 0. -1.
</event>
<event>
 4    1  0.5465458E+003  0.9400146E+02  0.7546771E-02  0.1174629E+00
          2   -1    0    0  501    0  0.00000000000E+00  0.00000000000E+00  0.11572595507E+04  0.11572595507E+04  0.00000000000E+00 0.  1.
         -2   -1    0    0    0  501 -0.00000000000E+00 -0.00000000000E+00 -0.38141224782E+03  0.38141224782E+03  0.00000000000E+00 0. -1.
          2    1    1    2  502    0  0.39656515517E+02  0.85226965926E+02  0.11495199268E+04  0.11533569859E+04  0.00000000000E+00 0.  1.
         -2    1    1    2    0  502 -0.39656515517E+02 -0.85226965926E+02 -0.37367262390E+03  0.38531481258E+03  0.00000000000E+00 0. -1.
</event>
<event>
 4    1  0.5465458E+003  0.4571016E+02  0.7546771E-02  0.1317926E+00
          2   -1    0    0  501    0  0.00000000000E+00  0.00000000000E+00  0.86859117873E+03  0.86859117873E+03  0.00000000000E+00 0.  1.
         -2   -1    0    0    0  501 -0.00000000000E+00 -0.00000000000E+00 -0.12358630267E+02  0.12358630267E+02  0.00000000000E+00 0.  1.
          2    1    1    2  502    0  0.10070127122E+02  0.44587116852E+02  0.82340577793E+03  0.82467356789E+03  0.00000000000E+00 0.  1.
         -2    1    1    2    0  502 -0.10070127122E+02 -0.44587116852E+02  0.32826770532E+02  0.56276241106E+02  0.00000000000E+00 0.  1.
</event>
<event>
 4    1  0.5465458E+003  0.3452965E+02  0.7546771E-02  0.1383900E+00
          2   -1    0    0  501    0  0.00000000000E+00  0.00000000000E+00  0.14967219797E+03  0.14967219797E+03  0.00000000000E+00 0. -1.
         -2   -1    0    0    0  501 -0.00000000000E+00 -0.00000000000E+00 -0.81996179635E+01  0.81996179635E+01  0.00000000000E+00 0. -1.
          2    1    1    2  502    0 -0.11358382749E+01  0.34510945799E+02  0.57413695480E+02  0.66997223355E+02  0.00000000000E+00 0. -1.
         -2    1    1    2    0  502  0.11358382749E+01 -0.34510945799E+02  0.84058884524E+02  0.90874592576E+02  0.00000000000E+00 0. -1.
</event>
<event>
 4    1  0.5465458E+003  0.2110883E+02  0.7546771E-02  0.1517717E+00
          2   -1    0    0  501    0  0.00000000000E+00  0.00000000000E+00  0.55943673837E+03  0.55943673837E+03  0.00000000000E+00 0. -1.
         -2   -1    0    0    0  501 -0.00000000000E+00 -0.00000000000E+00 -0.12699249786E+01  0.12699249786E+01  0.00000000000E+00 0. -1.
          2    1    1    2  502    0  0.19168699879E+02 -0.88398838853E+01  0.45026200068E+03  0.45075653280E+03  0.00000000000E+00 0. -1.
         -2    1    1    2    0  502 -0.19168699879E+02  0.88398838853E+01  0.10790481271E+03  0.10995013055E+03  0.00000000000E+00 0. -1.
</event>
<event>
 4    1  0.5465458E+003  0.3630072E+02  0.7546771E-02  0.1371642E+00
          2   -1    0    0  501    0  0.00000000000E+00  0.00000000000E+00  0.71545451182E+03  0.71545451182E+03  0.00000000000E+00 0.  1.
         -2   -1    0    0    0  501 -0.00000000000E+00 -0.00000000000E+00 -0.22481428376E+01  0.22481428376E+01  0.00000000000E+00 0.  1.
          2    1    1    2  502    0  0.68653133567E+01  0.35645617988E+02  0.50916122444E+03  0.51045361698E+03  0.00000000000E+00 0.  1.
         -2    1    1    2    0  502 -0.68653133567E+01 -0.35645617988E+02  0.20404514454E+03  0.20724903768E+03  0.00000000000E+00 0.  1.
</event>
<event>
 4    1  0.5465458E+003  0.2509413E+02  0.7546771E-02  0.1467753E+00
          2   -1    0    0  501    0  0.00000000000E+00  0.00000000000E+00  0.10424522429E+04  0.10424522429E+04  0.00000000000E+00 0. -1.
         -2   -1    0    0    0  501 -0.00000000000E+00 -0.00000000000E+00 -0.63178440857E+00  0.63178440857E+00  0.00000000000E+00 0. -1.
          2    1    1    2  502    0 -0.57571906573E+01  0.24424784542E+02  0.63014188114E+03  0.63064134475E+03  0.00000000000E+00 0. -1.
         -2    1    1    2    0  502  0.57571906573E+01 -0.24424784542E+02  0.41167857731E+03  0.41244268252E+03  0.00000000000E+00 0. -1.
</event>
<event>
 4    1  0.5465458E+003  0.3907480E+02  0.7546771E-02  0.1353994E+00
          2   -1    0    0  501    0  0.00000000000E+00  0.00000000000E+00  0.34712713078E+01  0.34712713078E+01  0.00000000000E+00 0.  1.
         -2   -1    0    0    0  501 -0.00000000000E+00 -0.00000000000E+00 -0.60577265513E+03  0.60577265513E+03  0.00000000000E+00 0.  1.
          2    1    1    2  502    0  0.27627548258E+02 -0.27632566143E+02 -0.14172486511E+03  0.14701284816E+03  0.00000000000E+00 0.  1.
         -2    1    1    2    0  502 -0.27627548258E+02  0.27632566143E+02 -0.46057651871E+03  0.46223107827E+03  0.00000000000E+00 0.  1.
</event>
<event>
 4    1  0.5465458E+003  0.2512908E+02  0.7546771E-02  0.1467364E+00
          2   -1    0    0  501    0  0.00000000000E+00  0.00000000000E+00  0.26675542769E+03  0.26675542769E+03  0.00000000000E+00 0.  1.
         -2   -1    0    0    0  501 -0.00000000000E+00 -0.00000000000E+00 -0.54111509541E+01  0.54111509541E+01  0.00000000000E+00 0. -1.
          2    1    1    2  502    0  0.21020462195E+02  0.13769925256E+02  0.23273714470E+03  0.23408983147E+03  0.00000000000E+00 0.  1.
         -2    1    1    2    0  502 -0.21020462195E+02 -0.13769925256E+02  0.28607132039E+02  0.38076747181E+02  0.00000000000E+00 0. -1.
</event>
<event>
 4    1  0.5465458E+003  0.2229395E+02  0.7546771E-02  0.1501560E+00
          2   -1    0    0  501    0  0.00000000000E+00  0.00000000000E+00  0.64898047289E+03  0.64898047289E+03  0.00000000000E+00 0.  1.
         -2   -1    0    0    0  501 -0.00000000000E+00 -0.00000000000E+00 -0.12477523892E+02  0.12477523892E+02  0.00000000000E+00 0. -1.
          2    1    1    2  502    0  0.21096862261E+02  0.72071078368E+01  0.63866999037E+03  0.63905897740E+03  0.00000000000E+00 0.  1.
         -2    1    1    2    0  502 -0.21096862261E+02 -0.72071078368E+01 -0.21670413764E+01  0.22399019375E+02  0.00000000000E+00 0. -1.
</event>
<event>
 4    1  0.5465458E+003  0.5728100E+02  0.7546771E-02  0.1269362E+00
          2   -1    0    0  501    0  0.00000000000E+00  0.00000000000E+00  0.36676205874E+03  0.36676205874E+03  0.00000000000E+00 0.  1.
         -2   -1    0    0    0  501 -0.00000000000E+00 -0.00000000000E+00 -0.73921928132E+02  0.73921928132E+02  0.00000000000E+00 0.  1.
          2    1    1    2  502    0 -0.33248228886E+02  0.46644060100E+02  0.35299914250E+03  0.35761642534E+03  0.00000000000E+00 0.  1.
         -2    1    1    2    0  502  0.33248228886E+02 -0.46644060100E+02 -0.60159011893E+02  0.83067561531E+02  0.00000000000E+00 0.  1.
</event>
<event>
 4    1  0.5465458E+003  0.3417716E+02  0.7546771E-02  0.1386442E+00
          2   -1    0    0  501    0  0.00000000000E+00  0.00000000000E+00  0.24307113133E+04  0.24307113133E+04  0.00000000000E+00 0. -1.
         -2   -1    0    0    0  501 -0.00000000000E+00 -0.00000000000E+00 -0.89235721418E+02  0.89235721418E+02  0.00000000000E+00 0.  1.
          2    1    1    2  502    0  0.15747028935E+02 -0.30333309670E+02  0.24273141437E+04  0.24275547431E+04  0.00000000000E+00 0. -1.
         -2    1    1    2    0  502 -0.15747028935E+02  0.30333309670E+02 -0.85838551746E+02  0.92392291679E+02  0.00000000000E+00 0.  1.
</event>
<event>
 4    1  0.5465458E+003  0.2230214E+02  0.7546771E-02  0.1501452E+00
          2   -1    0    0  501    0  0.00000000000E+00  0.00000000000E+00  0.93792241613E+03  0.93792241613E+03  0.00000000000E+00 0.  1.
         -2   -1    0    0    0  501 -0.00000000000E+00 -0.00000000000E+00 -0.99181334627E+01  0.99181334627E+01  0.00000000000E+00 0.  1.
          2    1    1    2  502    0  0.17916095786E+02  0.13281525028E+02  0.92507852295E+03  0.92534731805E+03  0.00000000000E+00 0.  1.
         -2    1    1    2    0  502 -0.17916095786E+02 -0.13281525028E+02  0.29257597142E+01  0.22493231542E+02  0.00000000000E+00 0.  1.
</event>
<event>
 4    1  0.5465458E+003  0.3612720E+02  0.7546771E-02  0.1372807E+00
          2   -1    0    0  501    0  0.00000000000E+00  0.00000000000E+00  0.47407229223E+03  0.47407229223E+03  0.00000000000E+00 0. -1.
         -2   -1    0    0    0  501 -0.00000000000E+00 -0.00000000000E+00 -0.44697738059E+02  0.44697738059E+02  0.00000000000E+00 0. -1.
          2    1    1    2  502    0 -0.35808525582E+02 -0.47879049083E+01  0.46595706247E+03  0.46735549489E+03  0.00000000000E+00 0. -1.
         -2    1    1    2    0  502  0.35808525582E+02  0.47879049083E+01 -0.36582508293E+02  0.51414535404E+02  0.00000000000E+00 0. -1.
</event>
<event>
 4    1  0.5465458E+003  0.2259521E+02  0.7546771E-02  0.1497645E+00
          2   -1    0    0  501    0  0.00000000000E+00  0.00000000000E+00  0.23879699602E+03  0.23879699602E+03  0.00000000000E+00 0.  1.
         -2   -1    0    0    0  501 -0.00000000000E+00 -0.00000000000E+00 -0.46165417450E+01  0.46165417450E+01  0.00000000000E+00 0. -1.
          2    1    1    2  502    0  0.77883218651E+01  0.21210504843E+02  0.20626789707E+03  0.20750178032E+03  0.00000000000E+00 0.  1.
         -2    1    1    2    0  502 -0.77883218651E+01 -0.21210504843E+02  0.27912557199E+02  0.35911757441E+02  0.00000000000E+00 0. -1.
</event>
<event>
 4    1  0.5465458E+003  0.2414308E+02  0.7546771E-02  0.1478622E+00
          2   -1    0    0  501    0  0.00000000000E+00  0.00000000000E+00  0.65131158891E+03  0.65131158891E+03  0.00000000000E+00 0.  1.
         -2   -1    0    0    0  501 -0.00000000000E+00 -0.00000000000E+00 -0.55503336771E+01  0.55503336771E+01  0.00000000000E+00 0. -1.
          2    1    1    2  502    0 -0.15262170246E+02  0.18707069816E+02  0.62367000859E+03  0.62413713871E+03  0.00000000000E+00 0.  1.
         -2    1    1    2    0  502  0.15262170246E+02 -0.18707069816E+02  0.22091246647E+02  0.32724783882E+02  0.00000000000E+00 0. -1.
</event>
<event>
 4    1  0.5465458E+003  0.2768993E+02  0.7546771E-02  0.1440798E+00
          2   -1    0    0  501    0  0.00000000000E+00  0.00000000000E+00  0.22464864456E+03  0.22464864456E+03  0.00000000000E+00 0.  1.
         -2   -1    0    0    0  501 -0.00000000000E+00 -0.00000000000E+00 -0.15217567858E+04  0.15217567858E+04  0.00000000000E+00 0. -1.
          2    1    1    2  502    0  0.15187001499E+02  0.23153555332E+02  0.22366887618E+03  0.22537634816E+03  0.00000000000E+00 0.  1.
         -2    1    1    2    0  502 -0.15187001499E+02 -0.23153555332E+02 -0.15207770174E+04  0.15210290822E+04  0.00000000000E+00 0. -1.
</event>
<event>
 4    1  0.5465458E+003  0.2008107E+02  0.7546771E-02  0.1532800E+00
          2   -1    0    0  501    0  0.00000000000E+00  0.00000000000E+00  0.16646802445E+03  0.16646802445E+03  0.00000000000E+00 0. -1.
         -2   -1    0    0    0  501 -0.00000000000E+00 -0.00000000000E+00 -0.16734189400E+02  0.16734189400E+02  0.00000000000E+00 0. -1.
          2    1    1    2  502    0 -0.18111601333E+02 -0.86729008043E+01  0.15957904879E+03  0.16083756441E+03  0.00000000000E+00 0. -1.
         -2    1    1    2    0  502  0.18111601333E+02  0.86729008043E+01 -0.98452137391E+01  0.22364649445E+02  0.00000000000E+00 0. -1.
</event>
<event>
 4    1  0.5465458E+003  0.2183347E+02  0.7546771E-02  0.1507690E+00
          2   -1    0    0  501    0  0.00000000000E+00  0.00000000000E+00  0.12251149830E+04  0.12251149830E+04  0.00000000000E+00 0. -1.
         -2   -1    0    0    0  501 -0.00000000000E+00 -0.00000000000E+00 -0.74481663326E+00  0.74481663326E+00  0.00000000000E+00 0. -1.
          2    1    1    2  502    0  0.56735579738E+01  0.21083438178E+02  0.10357637044E+04  0.10359937992E+04  0.00000000000E+00 0. -1.
         -2    1    1    2    0  502 -0.56735579738E+01 -0.21083438178E+02  0.18860646199E+03  0.18986600045E+03  0.00000000000E+00 0. -1.
</event>
<event>
 4    1  0.5465458E+003  0.3072824E+02  0.7546771E-02  0.1413372E+00
          2   -1    0    0  501    0  0.00000000000E+00  0.00000000000E+00  0.12419651627E+04  0.12419651627E+04  0.00000000000E+00 0. -1.
         -2   -1    0    0    0  501 -0.00000000000E+00 -0.00000000000E+00 -0.16573411788E+01  0.16573411788E+01  0.00000000000E+00 0. -1.
          2    1    1    2  502    0 -0.28029526667E+02 -0.12592477331E+02  0.10776283655E+04  0.10780663797E+04  0.00000000000E+00 0. -1.
         -2    1    1    2    0  502  0.28029526667E+02  0.12592477331E+02  0.16267945597E+03  0.16555612416E+03  0.00000000000E+00 0. -1.
</event>
<event>
 4    1  0.5465458E+003  0.5865291E+02  0.7546771E-02  0.1264480E+00
          2   -1    0    0  501    0  0.00000000000E+00  0.00000000000E+00  0.28181028080E+04  0.28181028080E+04  0.00000000000E+00 0. -1.
         -2   -1    0    0    0  501 -0.00000000000E+00 -0.00000000000E+00 -0.91052046677E+01  0.91052046677E+01  0.00000000000E+00 0.  1.
          2    1    1    2  502    0 -0.57546556576E+02  0.11338312366E+02  0.27199328789E+04  0.27205652040E+04  0.00000000000E+00 0. -1.
         -2    1    1    2    0  502  0.57546556576E+02 -0.11338312366E+02  0.89064724406E+02  0.10664280864E+03  0.00000000000E+00 0.  1.
</event>
<event>
 4    1  0.5465458E+003  0.2101817E+02  0.7546771E-02  0.1519005E+00
          2   -1    0    0  501    0  0.00000000000E+00  0.00000000000E+00  0.14649199718E+03  0.14649199718E+03  0.00000000000E+00 0.  1.
         -2   -1    0    0    0  501 -0.00000000000E+00 -0.00000000000E+00 -0.31223638946E+01  0.31223638946E+01  0.00000000000E+00 0.  1.
          2    1    1    2  502    0  0.17155941590E+02  0.12142368768E+02  0.85516766366E+02  0.88061800918E+02  0.00000000000E+00 0.  1.
         -2    1    1    2    0  502 -0.17155941590E+02 -0.12142368768E+02  0.57852866921E+02  0.61552560159E+02  0.00000000000E+00 0.  1.
</event>
<event>
 4    1  0.5465458E+003  0.3374860E+02  0.7546771E-02  0.1389581E+00
          2   -1    0    0  501    0  0.00000000000E+00  0.00000000000E+00  0.55567263078E+02  0.55567263078E+02  0.00000000000E+00 0.  1.
         -2   -1    0    0    0  501 -0.00000000000E+00 -0.00000000000E+00 -0.54215097018E+02  0.54215097018E+02  0.00000000000E+00 0. -1.
          2    1    1    2  502    0 -0.20214232123E+02  0.27025037814E+02  0.43964661045E+02  0.55424356288E+02  0.00000000000E+00 0.  1.
         -2    1    1    2    0  502  0.20214232123E+02 -0.27025037814E+02 -0.42612494985E+02  0.54358003808E+02  0.00000000000E+00 0. -1.
</event>
<event>
 4    1  0.5465458E+003  0.2031599E+02  0.7546771E-02  0.1529259E+00
          2   -1    0    0  501    0  0.00000000000E+00  0.00000000000E+00  0.51491642913E+03  0.51491642913E+03  0.00000000000E+00 0.  1.
         -2   -1    0    0    0  501 -0.00000000000E+00 -0.00000000000E+00 -0.23125438334E+01  0.23125438334E+01  0.00000000000E+00 0. -1.
          2    1    1    2  502    0  0.82869366404E+01 -0.18549015526E+02  0.46534558606E+03  0.46578885105E+03  0.00000000000E+00 0.  1.
         -2    1    1    2    0  502 -0.82869366404E+01  0.18549015526E+02  0.47258299237E+02  0.51440121915E+02  0.00000000000E+00 0. -1.
</event>
<event>
 4    1  0.5465458E+003  0.2383878E+02  0.7546771E-02  0.1482226E+00
          2   -1    0    0  501    0  0.00000000000E+00  0.00000000000E+00  0.92748294069E+03  0.92748294069E+03  0.00000000000E+00 0.  1.
         -2   -1    0    0    0  501 -0.00000000000E+00 -0.00000000000E+00 -0.12687296536E+01  0.12687296536E+01  0.00000000000E+00 0.  1.
          2    1    1    2  502    0  0.18643062825E+02  0.14856763850E+02  0.79702540977E+03  0.79738183516E+03  0.00000000000E+00 0.  1.
         -2    1    1    2    0  502 -0.18643062825E+02 -0.14856763850E+02  0.12918880127E+03  0.13136983518E+03  0.00000000000E+00 0.  1.
</event>
<event>
 4    1  0.5465458E+003  0.3474147E+02  0.7546771E-02  0.1382390E+00
          2   -1    0    0  501    0  0.00000000000E+00  0.00000000000E+00  0.20287193081E+02  0.20287193081E+02  0.00000000000E+00 0. -1.
         -2   -1    0    0    0  501 -0.00000000000E+00 -0.00000000000E+00 -0.76958110656E+02  0.76958110656E+02  0.00000000000E+00 0. -1.
          2    1    1    2  502    0  0.33375254059E+02  0.96468549586E+01 -0.51731011829E+01  0.35124498145E+02  0.00000000000E+00 0. -1.
         -2    1    1    2    0  502 -0.33375254059E+02 -0.96468549586E+01 -0.51497816392E+02  0.62120805591E+02  0.00000000000E+00 0. -1.
</event>
<event>
 4    1  0.5465458E+003  0.4581026E+02  0.7546771E-02  0.1317437E+00
          2   -1    0    0  501    0  0.00000000000E+00  0.00000000000E+00  0.15467575314E+04  0.15467575314E+04  0.00000000000E+00 0. -1.
         -2   -1    0    0    0  501 -0.00000000000E+00 -0.00000000000E+00 -0.33509163851E+01  0.33509163851E+01  0.00000000000E+00 0. -1.
          2    1    1    2  502    0  0.17204542426E+02  0.42456843636E+02  0.13696050525E+04  0.13703709642E+04  0.00000000000E+00 0. -1.
         -2    1    1    2    0  502 -0.17204542426E+02 -0.42456843636E+02  0.17380156252E+03  0.17973748353E+03  0.00000000000E+00 0. -1.
</event>
<event>
 4    1  0.5465458E+003  0.3171064E+02  0.7546771E-02  0.1405291E+00
          2   -1    0    0  501    0  0.00000000000E+00  0.00000000000E+00  0.13025406794E+03  0.13025406794E+03  0.00000000000E+00 0. -1.
         -2   -1    0    0    0  501 -0.00000000000E+00 -0.00000000000E+00 -0.12015365512E+03  0.12015365512E+03  0.00000000000E+00 0.  1.
          2    1    1    2  502    0  0.95276883099E+01  0.30245456396E+02  0.12616504350E+03  0.13008913359E+03  0.00000000000E+00 0. -1.
         -2    1    1    2    0  502 -0.95276883099E+01 -0.30245456396E+02 -0.11606463068E+03  0.12031858947E+03  0.00000000000E+00 0.  1.
</event>
<event>
 4    1  0.5465458E+003  0.2773430E+02  0.7546771E-02  0.1440368E+00
          2   -1    0    0  501    0  0.00000000000E+00  0.00000000000E+00  0.19817742749E+03  0.19817742749E+03  0.00000000000E+00 0. -1.
         -2   -1    0    0    0  501 -0.00000000000E+00 -0.00000000000E+00 -0.54253818591E+01  0.54253818591E+01  0.00000000000E+00 0. -1.
          2    1    1    2  502    0  0.27480779033E+02  0.37414253521E+01  0.15068478716E+03  0.15321584957E+03  0.00000000000E+00 0. -1.
         -2    1    1    2    0  502 -0.27480779033E+02 -0.37414253521E+01  0.42067258474E+02  0.50386959776E+02  0.00000000000E+00 0. -1.
</event>
<event>
 4    1  0.5465458E+003  0.5232782E+02  0.7546771E-02  0.1288383E+00
          2   -1    0    0  501    0  0.00000000000E+00  0.00000000000E+00  0.27379693299E+04  0.27379693299E+04  0.00000000000E+00 0. -1.
         -2   -1    0    0    0  501 -0.00000000000E+00 -0.00000000000E+00 -0.19403066015E+01  0.19403066015E+01  0.00000000000E+00 0. -1.
          2    1    1    2  502    0 -0.52315272273E+02  0.11460916064E+01  0.23216584332E+04  0.23222480664E+04  0.00000000000E+00 0. -1.
         -2    1    1    2    0  502  0.52315272273E+02 -0.11460916064E+01  0.41437059009E+03  0.41766157014E+03  0.00000000000E+00 0. -1.
</event>
<event>
 4    1  0.5465458E+003  0.2441202E+02  0.7546771E-02  0.1475490E+00
          2   -1    0    0  501    0  0.00000000000E+00  0.00000000000E+00  0.72366310072E+02  0.72366310072E+02  0.00000000000E+00 0. -1.
         -2   -1    0    0    0  501 -0.00000000000E+00 -0.00000000000E+00 -0.97274110957E+01  0.97274110957E+01  0.00000000000E+00 0. -1.
          2    1    1    2  502    0 -0.15292894032E+02 -0.19028250928E+02  0.47396437169E+02  0.53313874344E+02  0.00000000000E+00 0. -1.
         -2    1    1    2    0  502  0.15292894032E+02  0.19028250928E+02  0.15242461808E+02  0.28779846824E+02  0.00000000000E+00 0. -1.
</event>
<event>
 4    1  0.5465458E+003  0.4278999E+02  0.7546771E-02  0.1332869E+00
          2   -1    0    0  501    0  0.00000000000E+00  0.00000000000E+00  0.12857574845E+02  0.12857574845E+02  0.00000000000E+00 0.  1.
         -2   -1    0    0    0  501 -0.00000000000E+00 -0.00000000000E+00 -0.14240662031E+03  0.14240662031E+03  0.00000000000E+00 0.  1.
          2    1    1    2  502    0 -0.42729808011E+02  0.22687310858E+01 -0.64517016947E+02  0.77417240387E+02  0.00000000000E+00 0.  1.
         -2    1    1    2    0  502  0.42729808011E+02 -0.22687310858E+01 -0.65032028518E+02  0.77846954767E+02  0.00000000000E+00 0.  1.
</event>
<event>
 4    1  0.5465458E+003  0.3001343E+02  0.7546771E-02  0.1419480E+00
          2   -1    0    0  501    0  0.00000000000E+00  0.00000000000E+00  0.38878518652E+03  0.38878518652E+03  0.00000000000E+00 0.  1.
         -2   -1    0    0    0  501 -0.00000000000E+00 -0.00000000000E+00 -0.10614397042E+02  0.10614397042E+02  0.00000000000E+00 0.  1.
          2    1    1    2  502    0  0.48873804187E+00  0.30009446794E+02  0.36564913665E+03  0.36687885861E+03  0.00000000000E+00 0.  1.
         -2    1    1    2    0  502 -0.48873804187E+00 -0.30009446794E+02  0.12521652825E+02  0.32520724949E+02  0.00000000000E+00 0.  1.
</event>
<event>
 4    1  0.5465458E+003  0.2790306E+02  0.7546771E-02  0.1438742E+00
          2   -1    0    0  501    0  0.00000000000E+00  0.00000000000E+00  0.13007232306E+04  0.13007232306E+04  0.00000000000E+00 0.  1.
         -2   -1    0    0    0  501 -0.00000000000E+00 -0.00000000000E+00 -0.23918057178E+02  0.23918057178E+02  0.00000000000E+00 0.  1.
          2    1    1    2  502    0 -0.25133989496E+02  0.12118715531E+02  0.12923830748E+04  0.12926842587E+04  0.00000000000E+00 0.  1.
         -2    1    1    2    0  502  0.25133989496E+02 -0.12118715531E+02 -0.15577901391E+02  0.31957029053E+02  0.00000000000E+00 0.  1.
</event>
<event>
 4    1  0.5465458E+003  0.2053799E+02  0.7546771E-02  0.1525964E+00
          2   -1    0    0  501    0  0.00000000000E+00  0.00000000000E+00  0.46264434136E+02  0.46264434136E+02  0.00000000000E+00 0.  1.
         -2   -1    0    0    0  501 -0.00000000000E+00 -0.00000000000E+00 -0.16065593026E+02  0.16065593026E+02  0.00000000000E+00 0. -1.
          2    1    1    2  502    0 -0.16121709218E+01 -0.20474621675E+02  0.35594816471E+02  0.41095014143E+02  0.00000000000E+00 0.  1.
         -2    1    1    2    0  502  0.16121709218E+01  0.20474621675E+02 -0.53959753600E+01  0.21235013019E+02  0.00000000000E+00 0. -1.
</event>
<event>
 4    1  0.5465458E+003  0.2859936E+02  0.7546771E-02  0.1432171E+00
          2   -1    0    0  501    0  0.00000000000E+00  0.00000000000E+00  0.11247813316E+04  0.11247813316E+04  0.00000000000E+00 0. -1.
         -2   -1    0    0    0  501 -0.00000000000E+00 -0.00000000000E+00 -0.17627276934E+01  0.17627276934E+01  0.00000000000E+00 0. -1.
          2    1    1    2  502    0 -0.26991201905E+02  0.94550875795E+01  0.99323674996E+03  0.99364841123E+03  0.00000000000E+00 0. -1.
         -2    1    1    2    0  502  0.26991201905E+02 -0.94550875795E+01  0.12978185396E+03  0.13289564808E+03  0.00000000000E+00 0. -1.
</event>
<event>
 4    1  0.5465458E+003  0.2097912E+02  0.7546771E-02  0.1519563E+00
          2   -1    0    0  501    0  0.00000000000E+00  0.00000000000E+00  0.48430622223E+03  0.48430622223E+03  0.00000000000E+00 0.  1.
         -2   -1    0    0    0  501 -0.00000000000E+00 -0.00000000000E+00 -0.12797620910E+02  0.12797620910E+02  0.00000000000E+00 0. -1.
          2    1    1    2  502    0 -0.20360424969E+02  0.50573387198E+01  0.47531877822E+03  0.47578153023E+03  0.00000000000E+00 0.  1.
         -2    1    1    2    0  502  0.20360424969E+02 -0.50573387198E+01 -0.38101768989E+01  0.21322312910E+02  0.00000000000E+00 0. -1.
</event>
<event>
 4    1  0.5465458E+003  0.3253714E+02  0.7546771E-02  0.1398757E+00
          2   -1    0    0  501    0  0.00000000000E+00  0.00000000000E+00  0.22063298473E+04  0.22063298473E+04  0.00000000000E+00 0.  1.
         -2   -1    0    0    0  501 -0.00000000000E+00 -0.00000000000E+00 -0.49840890040E+00  0.49840890040E+00  0.00000000000E+00 0. -1.
          2    1    1    2  502    0  0.28779132243E+02  0.15179823751E+02  0.13159471692E+04  0.13163493524E+04  0.00000000000E+00 0.  1.
         -2    1    1    2    0  502 -0.28779132243E+02 -0.15179823751E+02  0.88988426916E+03  0.89047890374E+03  0.00000000000E+00 0. -1.
</event>
<event>
 4    1  0.5465458E+003  0.4787562E+02  0.7546771E-02  0.1307655E+00
          2   -1    0    0  501    0  0.00000000000E+00  0.00000000000E+00  0.44743316630E+03  0.44743316630E+03  0.00000000000E+00 0.  1.
         -2   -1    0    0    0  501 -0.00000000000E+00 -0.00000000000E+00 -0.54158705917E+01  0.54158705917E+01  0.00000000000E+00 0. -1.
          2    1    1    2  502    0  0.12889869556E-02  0.47875615571E+02  0.27368735820E+03  0.27784320148E+03  0.00000000000E+00 0.  1.
         -2    1    1    2    0  502 -0.12889869556E-02 -0.47875615571E+02  0.16832993751E+03  0.17500583541E+03  0.00000000000E+00 0. -1.
</event>
<event>
 4    1  0.5465458E+003  0.2333918E+02  0.7546771E-02  0.1488282E+00
          2   -1    0    0  501    0  0.00000000000E+00  0.00000000000E+00  0.19315349268E+03  0.19315349268E+03  0.00000000000E+00 0. -1.
         -2   -1    0    0    0  501 -0.00000000000E+00 -0.00000000000E+00 -0.11591768309E+02  0.11591768309E+02  0.00000000000E+00 0.  1.
          2    1    1    2  502    0  0.18699244926E+02 -0.13966229279E+02  0.17983404712E+03  0.18134222295E+03  0.00000000000E+00 0. -1.
         -2    1    1    2    0  502 -0.18699244926E+02  0.13966229279E+02  0.17276772576E+01  0.23403038046E+02  0.00000000000E+00 0.  1.
</event>
<event>
 4    1  0.5465458E+003  0.2762567E+02  0.7546771E-02  0.1441422E+00
          2   -1    0    0  501    0  0.00000000000E+00  0.00000000000E+00  0.34892235770E+01  0.34892235770E+01  0.00000000000E+00 0. -1.
         -2   -1    0    0    0  501 -0.00000000000E+00 -0.00000000000E+00 -0.35913169159E+03  0.35913169159E+03  0.00000000000E+00 0. -1.
          2    1    1    2  502    0 -0.27566367403E+02  0.18090922689E+01 -0.64453041816E+02  0.70123976114E+02  0.00000000000E+00 0. -1.
         -2    1    1    2    0  502  0.27566367403E+02 -0.18090922689E+01 -0.29118942620E+03  0.29249693906E+03  0.00000000000E+00 0. -1.
</event>
<event>
 4    1  0.5465458E+003  0.2092423E+02  0.7546771E-02  0.1520349E+00
          2   -1    0    0  501    0  0.00000000000E+00  0.00000000000E+00  0.11095456164E+04  0.11095456164E+04  0.00000000000E+00 0. -1.
         -2   -1    0    0    0  501 -0.00000000000E+00 -0.00000000000E+00 -0.39884676622E+00  0.39884676622E+00  0.00000000000E+00 0. -1.
          2    1    1    2  502    0  0.19529880923E+02 -0.75104701258E+01  0.61185944444E+03  0.61221712093E+03  0.00000000000E+00 0. -1.
         -2    1    1    2    0  502 -0.19529880923E+02  0.75104701258E+01  0.49728732523E+03  0.49772734228E+03  0.00000000000E+00 0. -1.
</event>
<event>
 4    1  0.5465458E+003  0.2110152E+02  0.7546771E-02  0.1517820E+00
          2   -1    0    0  501    0  0.00000000000E+00  0.00000000000E+00  0.33950996409E+02  0.33950996409E+02  0.00000000000E+00 0. -1.
         -2   -1    0    0    0  501 -0.00000000000E+00 -0.00000000000E+00 -0.66090896737E+02  0.66090896737E+02  0.00000000000E+00 0. -1.
          2    1    1    2  502    0 -0.12324682772E+02 -0.17128230432E+02  0.28713693471E+02  0.35633555476E+02  0.00000000000E+00 0. -1.
         -2    1    1    2    0  502  0.12324682772E+02  0.17128230432E+02 -0.60853593799E+02  0.64408337669E+02  0.00000000000E+00 0. -1.
</event>
<event>
 4    1  0.5465458E+003  0.4244126E+02  0.7546771E-02  0.1334745E+00
          2   -1    0    0  501    0  0.00000000000E+00  0.00000000000E+00  0.16183694767E+04  0.16183694767E+04  0.00000000000E+00 0. -1.
         -2   -1    0    0    0  501 -0.00000000000E+00 -0.00000000000E+00 -0.11147958745E+01  0.11147958745E+01  0.00000000000E+00 0.  1.
          2    1    1    2  502    0 -0.33331919428E+02 -0.26272452675E+02  0.77620204353E+03  0.77736148026E+03  0.00000000000E+00 0. -1.
         -2    1    1    2    0  502  0.33331919428E+02  0.26272452675E+02  0.84105263728E+03  0.84212279229E+03  0.00000000000E+00 0.  1.
</event>
<event>
 4    1  0.5465458E+003  0.3093658E+02  0.7546771E-02  0.1411628E+00
          2   -1    0    0  501    0  0.00000000000E+00  0.00000000000E+00  0.74689123215E+03  0.74689123215E+03  0.00000000000E+00 0.  1.
         -2   -1    0    0    0  501 -0.00000000000E+00 -0.00000000000E+00 -0.21889084504E+01  0.21889084504E+01  0.00000000000E+00 0.  1.
          2    1    1    2  502    0 -0.12769625726E+02  0.28178158811E+02  0.61351270239E+03  0.61429220080E+03  0.00000000000E+00 0.  1.
         -2    1    1    2    0  502  0.12769625726E+02 -0.28178158811E+02  0.13118962131E+03  0.13478793980E+03  0.00000000000E+00 0.  1.
</event>
<event>
 4    1  0.5465458E+003  0.2613827E+02  0.7546771E-02  0.1456462E+00
          2   -1    0    0  501    0  0.00000000000E+00  0.00000000000E+00  0.13657355529E+04  0.13657355529E+04  0.00000000000E+00 0.  1.
         -2   -1    0    0    0  501 -0.00000000000E+00 -0.00000000000E+00 -0.14056740358E+02  0.14056740358E+02  0.00000000000E+00 0. -1.
          2    1    1    2  502    0  0.24641624082E+02  0.87177775562E+01  0.13533483639E+04  0.13536007548E+04  0.00000000000E+00 0.  1.
         -2    1    1    2    0  502 -0.24641624082E+02 -0.87177775562E+01 -0.16695514114E+01  0.26191538420E+02  0.00000000000E+00 0. -1.
</event>
<event>
 4    1  0.5465458E+003  0.2547508E+02  0.7546771E-02  0.1463558E+00
          2   -1    0    0  501    0  0.00000000000E+00  0.00000000000E+00  0.18599629463E+02  0.18599629463E+02  0.00000000000E+00 0.  1.
         -2   -1    0    0    0  501 -0.00000000000E+00 -0.00000000000E+00 -0.59367339644E+02  0.59367339644E+02  0.00000000000E+00 0.  1.
          2    1    1    2  502    0  0.91595533399E+01 -0.23771460494E+02  0.46467022387E+01  0.25895397142E+02  0.00000000000E+00 0.  1.
         -2    1    1    2    0  502 -0.91595533399E+01  0.23771460494E+02 -0.45414412420E+02  0.52071571965E+02  0.00000000000E+00 0.  1.
</event>
<event>
 4    1  0.5465458E+003  0.2143362E+02  0.7546771E-02  0.1513163E+00
          2   -1    0    0  501    0  0.00000000000E+00  0.00000000000E+00  0.79523505950E+03  0.79523505950E+03  0.00000000000E+00 0. -1.
         -2   -1    0    0    0  501 -0.00000000000E+00 -0.00000000000E+00 -0.29466981792E+01  0.29466981792E+01  0.00000000000E+00 0.  1.
          2    1    1    2  502    0  0.17036112150E+02 -0.13006580196E+02  0.75398275151E+03  0.75428733903E+03  0.00000000000E+00 0. -1.
         -2    1    1    2    0  502 -0.17036112150E+02  0.13006580196E+02  0.38305609807E+02  0.43894418646E+02  0.00000000000E+00 0.  1.
</event>
<event>
 4    1  0.5465458E+003  0.5791724E+02  0.7546771E-02  0.1267078E+00
          2   -1    0    0  501    0  0.00000000000E+00  0.00000000000E+00  0.18002176982E+04  0.18002176982E+04  0.00000000000E+00 0.  1.
         -2   -1    0    0    0  501 -0.00000000000E+00 -0.00000000000E+00 -0.23425881832E+01  0.23425881832E+01  0.00000000000E+00 0. -1.
          2    1    1    2  502    0  0.33123570484E+02 -0.47510381462E+02  0.13065943430E+04  0.13078773583E+04  0.00000000000E+00 0.  1.
         -2    1    1    2    0  502 -0.33123570484E+02  0.47510381462E+02  0.49128076699E+03  0.49468292803E+03  0.00000000000E+00 0. -1.
</event>
<event>
 4    1  0.5465458E+003  0.4090440E+02  0.7546771E-02  0.1343266E+00
          2   -1    0    0  501    0  0.00000000000E+00  0.00000000000E+00  0.26826871261E+04  0.26826871261E+04  0.00000000000E+00 0. -1.
         -2   -1    0    0    0  501 -0.00000000000E+00 -0.00000000000E+00 -0.56088223168E+01  0.56088223168E+01  0.00000000000E+00 0. -1.
          2    1    1    2  502    0 -0.25710603037E+02 -0.31814067751E+02  0.26057518220E+04  0.26060728554E+04  0.00000000000E+00 0. -1.
         -2    1    1    2    0  502  0.25710603037E+02  0.31814067751E+02  0.71326481811E+02  0.82223093002E+02  0.00000000000E+00 0. -1.
</event>
<event>
 4    1  0.5465458E+003  0.2373072E+02  0.7546771E-02  0.1483521E+00
          2   -1    0    0  501    0  0.00000000000E+00  0.00000000000E+00  0.52973062152E+03  0.52973062152E+03  0.00000000000E+00 0.  1.
         -2   -1    0    0    0  501 -0.00000000000E+00 -0.00000000000E+00 -0.18753049117E+01  0.18753049117E+01  0.00000000000E+00 0.  1.
          2    1    1    2  502    0 -0.23710661395E+02  0.97554427466E+00  0.43885651575E+03  0.43949765479E+03  0.00000000000E+00 0.  1.
         -2    1    1    2    0  502  0.23710661395E+02 -0.97554427466E+00  0.88998800855E+02  0.92108271637E+02  0.00000000000E+00 0.  1.
</event>
<event>
 4    1  0.5465458E+003  0.2119709E+02  0.7546771E-02  0.1516469E+00
          2   -1    0    0  501    0  0.00000000000E+00  0.00000000000E+00  0.19611253628E+03  0.19611253628E+03  0.00000000000E+00 0.  1.
         -2   -1    0    0    0  501 -0.00000000000E+00 -0.00000000000E+00 -0.17424457755E+03  0.17424457755E+03  0.00000000000E+00 0. -1.
          2    1    1    2  502    0  0.17753301006E+02 -0.11581753816E+02  0.19489106472E+03  0.19604041376E+03  0.00000000000E+00 0.  1.
         -2    1    1    2    0  502 -0.17753301006E+02  0.11581753816E+02 -0.17302310599E+03  0.17431670008E+03  0.00000000000E+00 0. -1.
</event>
<event>
 4    1  0.5465458E+003  0.2215863E+02  0.7546771E-02  0.1503342E+00
          2   -1    0    0  501    0  0.00000000000E+00  0.00000000000E+00  0.55413628816E+01  0.55413628816E+01  0.00000000000E+00 0. -1.
         -2   -1    0    0    0  501 -0.00000000000E+00 -0.00000000000E+00 -0.10849511433E+03  0.10849511433E+03  0.00000000000E+00 0.  1.
          2    1    1    2  502    0  0.17190840964E+02 -0.13981390792E+02 -0.75888912266E+02  0.79057771955E+02  0.00000000000E+00 0. -1.
         -2    1    1    2    0  502 -0.17190840964E+02  0.13981390792E+02 -0.27064839184E+02  0.34978705259E+02  0.00000000000E+00 0.  1.
</event>
<event>
 4    1  0.5465458E+003  0.2192431E+02  0.7546771E-02  0.1506466E+00
          2   -1    0    0  501    0  0.00000000000E+00  0.00000000000E+00  0.17688420331E+02  0.17688420331E+02  0.00000000000E+00 0. -1.
         -2   -1    0    0    0  501 -0.00000000000E+00 -0.00000000000E+00 -0.10473474664E+03  0.10473474664E+03  0.00000000000E+00 0. -1.
          2    1    1    2  502    0 -0.15954223782E+02 -0.15037882332E+02  0.91522104610E+01  0.23757906428E+02  0.00000000000E+00 0. -1.
         -2    1    1    2    0  502  0.15954223782E+02  0.15037882332E+02 -0.96198536773E+02  0.98665260547E+02  0.00000000000E+00 0. -1.
</event>
<event>
 4    1  0.5465458E+003  0.3653016E+02  0.7546771E-02  0.1370113E+00
          2   -1    0    0  501    0  0.00000000000E+00  0.00000000000E+00  0.20260014408E+04  0.20260014408E+04  0.00000000000E+00 0. -1.
         -2   -1    0    0    0  501 -0.00000000000E+00 -0.00000000000E+00 -0.71609023426E+01  0.71609023426E+01  0.00000000000E+00 0.  1.
          2    1    1    2  502    0 -0.36463669045E+02 -0.22031114491E+01  0.19781210525E+04  0.19784583269E+04  0.00000000000E+00 0. -1.
         -2    1    1    2    0  502  0.36463669045E+02  0.22031114491E+01  0.40719486019E+02  0.54704016323E+02  0.00000000000E+00 0.  1.
</event>
<event>
 4    1  0.5465458E+003  0.2274397E+02  0.7546771E-02  0.1495738E+00
          2   -1    0    0  501    0  0.00000000000E+00  0.00000000000E+00  0.11178201750E+04  0.11178201750E+04  0.00000000000E+00 0.  1.
         -2   -1    0    0    0  501 -0.00000000000E+00 -0.00000000000E+00 -0.34606344231E+01  0.34606344231E+01  0.00000000000E+00 0. -1.
          2    1    1    2  502    0 -0.17124262267E+02  0.14968227469E+02  0.10789903489E+04  0.10792300316E+04  0.00000000000E+00 0.  1.
         -2    1    1    2    0  502  0.17124262267E+02 -0.14968227469E+02  0.35369191688E+02  0.42050777786E+02  0.00000000000E+00 0. -1.
</event>
<event>
 4    1  0.5465458E+003  0.2027551E+02  0.7546771E-02  0.1529865E+00
          2   -1    0    0  501    0  0.00000000000E+00  0.00000000000E+00  0.49427511476E+03  0.49427511476E+03  0.00000000000E+00 0. -1.
         -2   -1    0    0    0  501 -0.00000000000E+00 -0.00000000000E+00 -0.17646744091E+01  0.17646744091E+01  0.00000000000E+00 0.  1.
          2    1    1    2  502    0  0.15436888036E+02  0.13145301470E+02  0.42659244993E+03  0.42707401560E+03  0.00000000000E+00 0. -1.
         -2    1    1    2    0  502 -0.15436888036E+02 -0.13145301470E+02  0.65917990422E+02  0.68965773571E+02  0.00000000000E+00 0.  1.
</event>
<event>
 4    1  0.5465458E+003  0.2410316E+02  0.7546771E-02  0.1479092E+00
          2   -1    0    0  501    0  0.00000000000E+00  0.00000000000E+00  0.14121973336E+04  0.14121973336E+04  0.00000000000E+00 0. -1.
         -2   -1    0    0    0  501 -0.00000000000E+00 -0.00000000000E+00 -0.53026196820E+01  0.53026196820E+01  0.00000000000E+00 0.  1.
          2    1    1    2  502    0 -0.23005928726E+02  0.71895413980E+01  0.13841491531E+04  0.13843589998E+04  0.00000000000E+00 0. -1.
         -2    1    1    2    0  502  0.23005928726E+02 -0.71895413980E+01  0.22745560836E+02  0.33140953514E+02  0.00000000000E+00 0.  1.
</event>
<event>
 4    1  0.5465458E+003  0.2477444E+02  0.7546771E-02  0.1471343E+00
          2   -1    0    0  501    0  0.00000000000E+00  0.00000000000E+00  0.51404539517E+03  0.51404539517E+03  0.00000000000E+00 0.  1.
         -2   -1    0    0    0  501 -0.00000000000E+00 -0.00000000000E+00 -0.12877301748E+02  0.12877301748E+02  0.00000000000E+00 0.  1.
          2    1    1    2  502    0  0.22835854390E+02  0.96071254950E+01  0.50153402696E+03  0.50214554992E+03  0.00000000000E+00 0.  1.
         -2    1    1    2    0  502 -0.22835854390E+02 -0.96071254950E+01 -0.36593353762E+00  0.24777146998E+02  0.00000000000E+00 0.  1.
</event>
<event>
 4    1  0.5465458E+003  0.2488103E+02  0.7546771E-02  0.1470139E+00
          2   -1    0    0  501    0  0.00000000000E+00  0.00000000000E+00  0.55476034278E+03  0.55476034278E+03  0.00000000000E+00 0.  1.
         -2   -1    0    0    0  501 -0.00000000000E+00 -0.00000000000E+00 -0.43055952003E+01  0.43055952003E+01  0.00000000000E+00 0.  1.
          2    1    1    2  502    0  0.23448843214E+02 -0.83196873555E+01  0.51582426050E+03  0.51642398586E+03  0.00000000000E+00 0.  1.
         -2    1    1    2    0  502 -0.23448843214E+02  0.83196873555E+01  0.34630487083E+02  0.42641952129E+02  0.00000000000E+00 0.  1.
</event>
<event>
 4    1  0.5465458E+003  0.2159034E+02  0.7546771E-02  0.1511001E+00
          2   -1    0    0  501    0  0.00000000000E+00  0.00000000000E+00  0.70186729521E+01  0.70186729521E+01  0.00000000000E+00 0.  1.
         -2   -1    0    0    0  501 -0.00000000000E+00 -0.00000000000E+00 -0.36634083837E+03  0.36634083837E+03  0.00000000000E+00 0. -1.
          2    1    1    2  502    0  0.95883704713E+01 -0.19344400512E+02 -0.10748596877E+02  0.24117939677E+02  0.00000000000E+00 0.  1.
         -2    1    1    2    0  502 -0.95883704713E+01  0.19344400512E+02 -0.34857356855E+03  0.34924157165E+03  0.00000000000E+00 0. -1.
</event>
<event>
 4    1  0.5465458E+003  0.2128877E+02  0.7546771E-02  0.1515182E+00
          2   -1    0    0  501    0  0.00000000000E+00  0.00000000000E+00  0.42510188987E+03  0.42510188987E+03  0.00000000000E+00 0.  1.
         -2   -1    0    0    0  501 -0.00000000000E+00 -0.00000000000E+00 -0.57213998042E+02  0.57213998042E+02  0.00000000000E+00 0.  1.
          2    1    1    2  502    0  0.19889816389E+02 -0.75899366582E+01  0.42284445605E+03  0.42338002544E+03  0.00000000000E+00 0.  1.
         -2    1    1    2    0  502 -0.19889816389E+02  0.75899366582E+01 -0.54956564218E+02  0.58935862470E+02  0.00000000000E+00 0.  1.
</event>
<event>
 4    1  0.5465458E+003  0.3454583E+02  0.7546771E-02  0.1383785E+00
          2   -1    0    0  501    0  0.00000000000E+00  0.00000000000E+00  0.34316276392E+02  0.34316276392E+02  0.00000000000E+00 0.  1.
         -2   -1    0    0    0  501 -0.00000000000E+00 -0.00000000000E+00 -0.37115131882E+02  0.37115131882E+02  0.00000000000E+00 0.  1.
          2    1    1    2  502    0  0.30385644502E+02 -0.16435493569E+02 -0.10364005962E+02  0.36066958012E+02  0.00000000000E+00 0.  1.
         -2    1    1    2    0  502 -0.30385644502E+02  0.16435493569E+02  0.75651504719E+01  0.35364450262E+02  0.00000000000E+00 0.  1.
</event>
<event>
 4    1  0.5465458E+003  0.2820662E+02  0.7546771E-02  0.1435850E+00
          2   -1    0    0  501    0  0.00000000000E+00  0.00000000000E+00  0.50632819374E+03  0.50632819374E+03  0.00000000000E+00 0. -1.
         -2   -1    0    0    0  501 -0.00000000000E+00 -0.00000000000E+00 -0.10462742791E+03  0.10462742791E+03  0.00000000000E+00 0. -1.
          2    1    1    2  502    0  0.21594154509E+02  0.18146784568E+02  0.50402561806E+03  0.50481425986E+03  0.00000000000E+00 0. -1.
         -2    1    1    2    0  502 -0.21594154509E+02 -0.18146784568E+02 -0.10232485223E+03  0.10614136179E+03  0.00000000000E+00 0. -1.
</event>
<event>
 4    1  0.5465458E+003  0.2624891E+02  0.7546771E-02  0.1455302E+00
          2   -1    0    0  501    0  0.00000000000E+00  0.00000000000E+00  0.92596022174E+03  0.92596022174E+03  0.00000000000E+00 0.  1.
         -2   -1    0    0    0  501 -0.00000000000E+00 -0.00000000000E+00 -0.22637252086E+01  0.22637252086E+01  0.00000000000E+00 0. -1.
          2    1    1    2  502    0  0.97359420147E+01 -0.24376562822E+02  0.84210717119E+03  0.84251616789E+03  0.00000000000E+00 0.  1.
         -2    1    1    2    0  502 -0.97359420147E+01  0.24376562822E+02  0.81589325339E+02  0.85707779058E+02  0.00000000000E+00 0. -1.
</event>
<event>
 4    1  0.5465458E+003  0.2543091E+02  0.7546771E-02  0.1464040E+00
          2   -1    0    0  501    0  0.00000000000E+00  0.00000000000E+00  0.17097740057E+02  0.17097740057E+02  0.00000000000E+00 0.  1.
         -2   -1    0    0    0  501 -0.00000000000E+00 -0.00000000000E+00 -0.38207310873E+02  0.38207310873E+02  0.00000000000E+00 0.  1.
          2    1    1    2  502    0  0.10478068618E+02  0.23171995240E+02 -0.77906341893E+01  0.26597467294E+02  0.00000000000E+00 0.  1.
         -2    1    1    2    0  502 -0.10478068618E+02 -0.23171995240E+02 -0.13318936627E+02  0.28707583636E+02  0.00000000000E+00 0.  1.
</event>
<event>
 4    1  0.5465458E+003  0.2535593E+02  0.7546771E-02  0.1464861E+00
          2   -1    0    0  501    0  0.00000000000E+00  0.00000000000E+00  0.84019142133E+03  0.84019142133E+03  0.00000000000E+00 0.  1.
         -2   -1    0    0    0  501 -0.00000000000E+00 -0.00000000000E+00 -0.12286454039E+01  0.12286454039E+01  0.00000000000E+00 0.  1.
          2    1    1    2  502    0  0.12675459187E+02  0.21960327190E+02  0.67786442202E+03  0.67833848327E+03  0.00000000000E+00 0.  1.
         -2    1    1    2    0  502 -0.12675459187E+02 -0.21960327190E+02  0.16109835390E+03  0.16308158347E+03  0.00000000000E+00 0.  1.
</event>
<event>
 4    1  0.5465458E+003  0.2075031E+02  0.7546771E-02  0.1522860E+00
          2   -1    0    0  501    0  0.00000000000E+00  0.00000000000E+00  0.14629417362E+02  0.14629417362E+02  0.00000000000E+00 0. -1.
         -2   -1    0    0    0  501 -0.00000000000E+00 -0.00000000000E+00 -0.30053543169E+03  0.30053543169E+03  0.00000000000E+00 0.  1.
          2    1    1    2  502    0  0.16638219766E+02 -0.12399393232E+02  0.67144291340E+01  0.21809604950E+02  0.00000000000E+00 0. -1.
         -2    1    1    2    0  502 -0.16638219766E+02  0.12399393232E+02 -0.29262044346E+03  0.29335524410E+03  0.00000000000E+00 0.  1.
</event>
<event>
 4    1  0.5465458E+003  0.2562484E+02  0.7546771E-02  0.1461933E+00
          2   -1    0    0  501    0  0.00000000000E+00  0.00000000000E+00  0.16150316336E+04  0.16150316336E+04  0.00000000000E+00 0. -1.
         -2   -1    0    0    0  501 -0.00000000000E+00 -0.00000000000E+00 -0.20294550397E+02  0.20294550397E+02  0.00000000000E+00 0. -1.
          2    1    1    2  502    0  0.25623696238E+02  0.24260400008E+00  0.16067997717E+04  0.16070040881E+04  0.00000000000E+00 0. -1.
         -2    1    1    2    0  502 -0.25623696238E+02 -0.24260400008E+00 -0.12062688492E+02  0.28322095955E+02  0.00000000000E+00 0. -1.
</event>
<event>
 4    1  0.5465458E+003  0.3122290E+02  0.7546771E-02  0.1409259E+00
          2   -1    0    0  501    0  0.00000000000E+00  0.00000000000E+00  0.16315554873E+04  0.16315554873E+04  0.00000000000E+00 0. -1.
         -2   -1    0    0    0  501 -0.00000000000E+00 -0.00000000000E+00 -0.40325402063E+01  0.40325402063E+01  0.00000000000E+00 0. -1.
          2    1    1    2  502    0  0.19133743056E+02 -0.24673248803E+02  0.15685406468E+04  0.15688513729E+04  0.00000000000E+00 0. -1.
         -2    1    1    2    0  502 -0.19133743056E+02  0.24673248803E+02  0.58982300217E+02  0.66736654611E+02  0.00000000000E+00 0. -1.
</event>
<event>
 4    1  0.5465458E+003  0.2786429E+02  0.7546771E-02  0.1439114E+00
          2   -1    0    0  501    0  0.00000000000E+00  0.00000000000E+00  0.58528378096E+03  0.58528378096E+03  0.00000000000E+00 0.  1.
         -2   -1    0    0    0  501 -0.00000000000E+00 -0.00000000000E+00 -0.16784384449E+02  0.16784384449E+02  0.00000000000E+00 0.  1.
          2    1    1    2  502    0  0.27676628670E+02  0.32284873134E+01  0.57314270457E+03  0.57381963953E+03  0.00000000000E+00 0.  1.
         -2    1    1    2    0  502 -0.27676628670E+02 -0.32284873134E+01 -0.46433080569E+01  0.28248525884E+02  0.00000000000E+00 0.  1.
</event>
<event>
 4    1  0.5465458E+003  0.2318544E+02  0.7546771E-02  0.1490183E+00
          2   -1    0    0  501    0  0.00000000000E+00  0.00000000000E+00  0.75608465315E+03  0.75608465315E+03  0.00000000000E+00 0.  1.
         -2   -1    0    0    0  501 -0.00000000000E+00 -0.00000000000E+00 -0.24952928193E+01  0.24952928193E+01  0.00000000000E+00 0. -1.
          2    1    1    2  502    0 -0.23105189479E+02 -0.19274298126E+01  0.69752905315E+03  0.69791428182E+03  0.00000000000E+00 0.  1.
         -2    1    1    2    0  502  0.23105189479E+02  0.19274298126E+01  0.56060307172E+02  0.60665664150E+02  0.00000000000E+00 0. -1.
</event>
<event>
 4    1  0.5465458E+003  0.3582845E+02  0.7546771E-02  0.1374831E+00
          2   -1    0    0  501    0  0.00000000000E+00  0.00000000000E+00  0.68455682289E+03  0.68455682289E+03  0.00000000000E+00 0.  1.
         -2   -1    0    0    0  501 -0.00000000000E+00 -0.00000000000E+00 -0.58109228949E+01  0.58109228949E+01  0.00000000000E+00 0.  1.
          2    1    1    2  502    0 -0.35122773902E+02  0.70759033063E+01  0.62345282179E+03  0.62448146381E+03  0.00000000000E+00 0.  1.
         -2    1    1    2    0  502  0.35122773902E+02 -0.70759033063E+01  0.55293078212E+02  0.65886281974E+02  0.00000000000E+00 0.  1.
</event>
<event>
 4    1  0.5465458E+003  0.2091382E+02  0.7546771E-02  0.1520499E+00
          2   -1    0    0  501    0  0.00000000000E+00  0.00000000000E+00  0.14984016453E+04  0.14984016453E+04  0.00000000000E+00 0. -1.
         -2   -1    0    0    0  501 -0.00000000000E+00 -0.00000000000E+00 -0.39032550380E+00  0.39032550380E+00  0.00000000000E+00 0.  1.
          2    1    1    2  502    0 -0.20910376039E+02 -0.37944744719E+00  0.11253152552E+04  0.11255095785E+04  0.00000000000E+00 0. -1.
         -2    1    1    2    0  502  0.20910376039E+02  0.37944744719E+00  0.37269606466E+03  0.37328239232E+03  0.00000000000E+00 0.  1.
</event>
<event>
 4    1  0.5465458E+003  0.2065649E+02  0.7546771E-02  0.1524226E+00
          2   -1    0    0  501    0  0.00000000000E+00  0.00000000000E+00  0.81323119223E+02  0.81323119223E+02  0.00000000000E+00 0. -1.
         -2   -1    0    0    0  501 -0.00000000000E+00 -0.00000000000E+00 -0.25754848507E+02  0.25754848507E+02  0.00000000000E+00 0. -1.
          2    1    1    2  502    0  0.16594629942E+02  0.12300767975E+02  0.75559301649E+02  0.78331977515E+02  0.00000000000E+00 0. -1.
         -2    1    1    2    0  502 -0.16594629942E+02 -0.12300767975E+02 -0.19991030933E+02  0.28745990215E+02  0.00000000000E+00 0. -1.
</event>
<event>
 4    1  0.5465458E+003  0.7553656E+02  0.7546771E-02  0.1214607E+00
          2   -1    0    0  501    0  0.00000000000E+00  0.00000000000E+00  0.17622469601E+03  0.17622469601E+03  0.00000000000E+00 0.  1.
         -2   -1    0    0    0  501 -0.00000000000E+00 -0.00000000000E+00 -0.59182888417E+03  0.59182888417E+03  0.00000000000E+00 0.  1.
          2    1    1    2  502    0 -0.13368593597E+02 -0.74344151335E+02  0.16557226870E+03  0.18198886860E+03  0.00000000000E+00 0.  1.
         -2    1    1    2    0  502  0.13368593597E+02  0.74344151335E+02 -0.58117645687E+03  0.58606471158E+03  0.00000000000E+00 0.  1.
</event>
<event>
 4    1  0.5465458E+003  0.2377521E+02  0.7546771E-02  0.1482987E+00
          2   -1    0    0  501    0  0.00000000000E+00  0.00000000000E+00  0.22477539593E+02  0.22477539593E+02  0.00000000000E+00 0.  1.
         -2   -1    0    0    0  501 -0.00000000000E+00 -0.00000000000E+00 -0.72275836450E+02  0.72275836450E+02  0.00000000000E+00 0.  1.
          2    1    1    2  502    0  0.20752462957E+02 -0.11601544074E+02  0.13357580400E+02  0.27270597680E+02  0.00000000000E+00 0.  1.
         -2    1    1    2    0  502 -0.20752462957E+02  0.11601544074E+02 -0.63155877257E+02  0.67482778364E+02  0.00000000000E+00 0.  1.
</event>
<event>
 4    1  0.5465458E+003  0.2135687E+02  0.7546771E-02  0.1514230E+00
          2   -1    0    0  501    0  0.00000000000E+00  0.00000000000E+00  0.40844958973E+02  0.40844958973E+02  0.00000000000E+00 0. -1.
         -2   -1    0    0    0  501 -0.00000000000E+00 -0.00000000000E+00 -0.59426097701E+02  0.59426097701E+02  0.00000000000E+00 0. -1.
          2    1    1    2  502    0 -0.17794824861E+02  0.11809319035E+02  0.35889466554E+02  0.41763256787E+02  0.00000000000E+00 0. -1.
         -2    1    1    2    0  502  0.17794824861E+02 -0.11809319035E+02 -0.54470605282E+02  0.58507799888E+02  0.00000000000E+00 0. -1.
</event>
<event>
 4    1  0.5465458E+003  0.2890099E+02  0.7546771E-02  0.1429393E+00
          2   -1    0    0  501    0  0.00000000000E+00  0.00000000000E+00  0.10380472440E+03  0.10380472440E+03  0.00000000000E+00 0. -1.
         -2   -1    0    0    0  501 -0.00000000000E+00 -0.00000000000E+00 -0.19169427887E+02  0.19169427887E+02  0.00000000000E+00 0.  1.
          2    1    1    2  502    0 -0.12736555504E+02  0.25943155854E+02  0.89154572007E+02  0.93721955226E+02  0.00000000000E+00 0. -1.
         -2    1    1    2    0  502  0.12736555504E+02 -0.25943155854E+02 -0.45192754951E+01  0.29252197059E+02  0.00000000000E+00 0.  1.
</event>
<event>
 4    1  0.5465458E+003  0.4020213E+02  0.7546771E-02  0.1347305E+00
          2   -1    0    0  501    0  0.00000000000E+00  0.00000000000E+00  0.52248518408E+03  0.52248518408E+03  0.00000000000E+00 0.  1.
         -2   -1    0    0    0  501 -0.00000000000E+00 -0.00000000000E+00 -0.30994812030E+01  0.30994812030E+01  0.00000000000E+00 0.  1.
          2    1    1    2  502    0 -0.40129419502E+02 -0.24163926036E+01  0.24796788858E+03  0.25120565883E+03  0.00000000000E+00 0.  1.
         -2    1    1    2    0  502  0.40129419502E+02  0.24163926036E+01  0.27141781430E+03  0.27437900645E+03  0.00000000000E+00 0.  1.
</event>
<event>
 4    1  0.5465458E+003  0.3826905E+02  0.7546771E-02  0.1358939E+00
          2   -1    0    0  501    0  0.00000000000E+00  0.00000000000E+00  0.30891198500E+03  0.30891198500E+03  0.00000000000E+00 0.  1.
         -2   -1    0    0    0  501 -0.00000000000E+00 -0.00000000000E+00 -0.10389611667E+04  0.10389611667E+04  0.00000000000E+00 0. -1.
          2    1    1    2  502    0  0.37603400068E+02  0.71066731748E+01  0.30737260196E+03  0.30974576178E+03  0.00000000000E+00 0.  1.
         -2    1    1    2    0  502 -0.37603400068E+02 -0.71066731748E+01 -0.10374217837E+04  0.10381273900E+04  0.00000000000E+00 0. -1.
</event>
<event>
 4    1  0.5465458E+003  0.2321888E+02  0.7546771E-02  0.1489768E+00
          2   -1    0    0  501    0  0.00000000000E+00  0.00000000000E+00  0.13507721795E+04  0.13507721795E+04  0.00000000000E+00 0.  1.
         -2   -1    0    0    0  501 -0.00000000000E+00 -0.00000000000E+00 -0.11431410663E+01  0.11431410663E+01  0.00000000000E+00 0. -1.
          2    1    1    2  502    0  0.12263161229E+02 -0.19716268378E+02  0.12201490829E+04  0.12203699853E+04  0.00000000000E+00 0.  1.
         -2    1    1    2    0  502 -0.12263161229E+02  0.19716268378E+02  0.12947995549E+03  0.13154533528E+03  0.00000000000E+00 0. -1.
</event>
<event>
 4    1  0.5465458E+003  0.6298107E+02  0.7546771E-02  0.1250027E+00
          2   -1    0    0  501    0  0.00000000000E+00  0.00000000000E+00  0.18025505259E+04  0.18025505259E+04  0.00000000000E+00 0.  1.
         -2   -1    0    0    0  501 -0.00000000000E+00 -0.00000000000E+00 -0.27407253239E+01  0.27407253239E+01  0.00000000000E+00 0. -1.
          2    1    1    2  502    0  0.56850940668E+02 -0.27103236015E+02  0.13006324063E+04  0.13021563927E+04  0.00000000000E+00 0.  1.
         -2    1    1    2    0  502 -0.56850940668E+02  0.27103236015E+02  0.49917739431E+03  0.50313485851E+03  0.00000000000E+00 0. -1.
</event>
<event>
 4    1  0.5465458E+003  0.2706746E+02  0.7546771E-02  0.1446932E+00
          2   -1    0    0  501    0  0.00000000000E+00  0.00000000000E+00  0.22536065761E+03  0.22536065761E+03  0.00000000000E+00 0.  1.
         -2   -1    0    0    0  501 -0.00000000000E+00 -0.00000000000E+00 -0.39286111804E+01  0.39286111804E+01  0.00000000000E+00 0.  1.
          2    1    1    2  502    0  0.58024554501E+01  0.26438208964E+02  0.15832892551E+03  0.16062595069E+03  0.00000000000E+00 0.  1.
         -2    1    1    2    0  502 -0.58024554501E+01 -0.26438208964E+02  0.63103120915E+02  0.68663318094E+02  0.00000000000E+00 0.  1.
</event>
<event>
 4    1  0.5465458E+003  0.2920652E+02  0.7546771E-02  0.1426619E+00
          2   -1    0    0  501    0  0.00000000000E+00  0.00000000000E+00  0.60058327585E+03  0.60058327585E+03  0.00000000000E+00 0. -1.
         -2   -1    0    0    0  501 -0.00000000000E+00 -0.00000000000E+00 -0.16848909898E+01  0.16848909898E+01  0.00000000000E+00 0. -1.
          2    1    1    2  502    0 -0.15996258874E+02 -0.24436461026E+02  0.41877776752E+03  0.41979499699E+03  0.00000000000E+00 0. -1.
         -2    1    1    2    0  502  0.15996258874E+02  0.24436461026E+02  0.18012061733E+03  0.18247316985E+03  0.00000000000E+00 0. -1.
</event>
<event>
 4    1  0.5465458E+003  0.2561819E+02  0.7546771E-02  0.1462005E+00
          2   -1    0    0  501    0  0.00000000000E+00  0.00000000000E+00  0.12469194778E+04  0.12469194778E+04  0.00000000000E+00 0. -1.
         -2   -1    0    0    0  501 -0.00000000000E+00 -0.00000000000E+00 -0.22164408948E+02  0.22164408948E+02  0.00000000000E+00 0. -1.
          2    1    1    2  502    0 -0.40845991762E+01  0.25290470705E+02  0.12393400867E+04  0.12396048331E+04  0.00000000000E+00 0. -1.
         -2    1    1    2    0  502  0.40845991762E+01 -0.25290470705E+02 -0.14585017810E+02  0.29479053639E+02  0.00000000000E+00 0. -1.
</event>
<event>
 4    1  0.5465458E+003  0.7987881E+02  0.7546771E-02  0.1204129E+00
          2   -1    0    0  501    0  0.00000000000E+00  0.00000000000E+00  0.20749124408E+03  0.20749124408E+03  0.00000000000E+00 0. -1.
         -2   -1    0    0    0  501 -0.00000000000E+00 -0.00000000000E+00 -0.33902796805E+03  0.33902796805E+03  0.00000000000E+00 0.  1.
          2    1    1    2  502    0  0.42185126408E+02 -0.67830967243E+02  0.19480379282E+03  0.21054487100E+03  0.00000000000E+00 0. -1.
         -2    1    1    2    0  502 -0.42185126408E+02  0.67830967243E+02 -0.32634051678E+03  0.33597434114E+03  0.00000000000E+00 0.  1.
</event>
<event>
 4    1  0.5465458E+003  0.2871135E+02  0.7546771E-02  0.1431135E+00
          2   -1    0    0  501    0  0.00000000000E+00  0.00000000000E+00  0.15581755971E+01  0.15581755971E+01  0.00000000000E+00 0.  1.
         -2   -1    0    0    0  501 -0.00000000000E+00 -0.00000000000E+00 -0.53257905631E+03  0.53257905631E+03  0.00000000000E+00 0.  1.
          2    1    1    2  502    0 -0.28659933090E+02  0.17173326107E+01 -0.28727378929E+03  0.28870498958E+03  0.00000000000E+00 0.  1.
         -2    1    1    2    0  502  0.28659933090E+02 -0.17173326107E+01 -0.24374709142E+03  0.24543224233E+03  0.00000000000E+00 0.  1.
</event>
<event>
 4    1  0.5465458E+003  0.2936780E+02  0.7546771E-02  0.1425171E+00
          2   -1    0    0  501    0  0.00000000000E+00  0.00000000000E+00  0.96330066814E+03  0.96330066814E+03  0.00000000000E+00 0. -1.
         -2   -1    0    0    0  501 -0.00000000000E+00 -0.00000000000E+00 -0.13076966477E+01  0.13076966477E+01  0.00000000000E+00 0.  1.
          2    1    1    2  502    0 -0.28191614872E+02 -0.82280435400E+01  0.75183570345E+03  0.75240905951E+03  0.00000000000E+00 0. -1.
         -2    1    1    2    0  502  0.28191614872E+02  0.82280435400E+01  0.21015726804E+03  0.21219930528E+03  0.00000000000E+00 0.  1.
</event>
<event>
 4    1  0.5465458E+003  0.2076967E+02  0.7546771E-02  0.1522579E+00
          2   -1    0    0  501    0  0.00000000000E+00  0.00000000000E+00  0.71728226517E+03  0.71728226517E+03  0.00000000000E+00 0.  1.
         -2   -1    0    0    0  501 -0.00000000000E+00 -0.00000000000E+00 -0.11739332043E+01  0.11739332043E+01  0.00000000000E+00 0.  1.
          2    1    1    2  502    0  0.77768469648E+01 -0.19258756748E+02  0.60892260934E+03  0.60927672138E+03  0.00000000000E+00 0.  1.
         -2    1    1    2    0  502 -0.77768469648E+01  0.19258756748E+02  0.10718572263E+03  0.10917947699E+03  0.00000000000E+00 0.  1.
</event>
<event>
 4    1  0.5465458E+003  0.2036636E+02  0.7546771E-02  0.1528507E+00
          2   -1    0    0  501    0  0.00000000000E+00  0.00000000000E+00  0.42159839406E+02  0.42159839406E+02  0.00000000000E+00 0.  1.
         -2   -1    0    0    0  501 -0.00000000000E+00 -0.00000000000E+00 -0.30294894079E+03  0.30294894079E+03  0.00000000000E+00 0. -1.
          2    1    1    2  502    0 -0.18240378019E+02  0.90596456825E+01  0.39334802358E+02  0.44294641287E+02  0.00000000000E+00 0.  1.
         -2    1    1    2    0  502  0.18240378019E+02 -0.90596456825E+01 -0.30012390374E+03  0.30081413891E+03  0.00000000000E+00 0. -1.
</event>
<event>
 4    1  0.5465458E+003  0.2249054E+02  0.7546771E-02  0.1498996E+00
          2   -1    0    0  501    0  0.00000000000E+00  0.00000000000E+00  0.10296996452E+04  0.10296996452E+04  0.00000000000E+00 0. -1.
         -2   -1    0    0    0  501 -0.00000000000E+00 -0.00000000000E+00 -0.71169130923E+01  0.71169130923E+01  0.00000000000E+00 0. -1.
          2    1    1    2  502    0 -0.19976850912E+02 -0.10331986992E+02  0.10114885734E+04  0.10117385822E+04  0.00000000000E+00 0. -1.
         -2    1    1    2    0  502  0.19976850912E+02  0.10331986992E+02  0.11094158653E+02  0.25077976070E+02  0.00000000000E+00 0. -1.
</event>
<event>
 4    1  0.5465458E+003  0.2743005E+02  0.7546771E-02  0.1443335E+00
          2   -1    0    0  501    0  0.00000000000E+00  0.00000000000E+00  0.13910928595E+02  0.13910928595E+02  0.00000000000E+00 0.  1.
         -2   -1    0    0    0  501 -0.00000000000E+00 -0.00000000000E+00 -0.54211439569E+02  0.54211439569E+02  0.00000000000E+00 0.  1.
          2    1    1    2  502    0  0.61548070160E+00 -0.27423140993E+02 -0.18521697834E+02  0.33097745679E+02  0.00000000000E+00 0.  1.
         -2    1    1    2    0  502 -0.61548070160E+00  0.27423140993E+02 -0.21778813141E+02  0.35024622485E+02  0.00000000000E+00 0.  1.
</event>
<event>
 4    1  0.5465458E+003  0.2022163E+02  0.7546771E-02  0.1530674E+00
          2   -1    0    0  501    0  0.00000000000E+00  0.00000000000E+00  0.49539030578E+03  0.49539030578E+03  0.00000000000E+00 0. -1.
         -2   -1    0    0    0  501 -0.00000000000E+00 -0.00000000000E+00 -0.83114724964E+00  0.83114724964E+00  0.00000000000E+00 0. -1.
          2    1    1    2  502    0  0.19845810527E+02  0.38804476142E+01  0.22671643733E+03  0.22761646914E+03  0.00000000000E+00 0. -1.
         -2    1    1    2    0  502 -0.19845810527E+02 -0.38804476142E+01  0.26784272120E+03  0.26860498389E+03  0.00000000000E+00 0. -1.
</event>
<event>
 4    1  0.5465458E+003  0.2333238E+02  0.7546771E-02  0.1488366E+00
          2   -1    0    0  501    0  0.00000000000E+00  0.00000000000E+00  0.18044988159E+02  0.18044988159E+02  0.00000000000E+00 0.  1.
         -2   -1    0    0    0  501 -0.00000000000E+00 -0.00000000000E+00 -0.32306615561E+02  0.32306615561E+02  0.00000000000E+00 0.  1.
          2    1    1    2  502    0 -0.78096447351E+01  0.21986563623E+02 -0.13606723452E+02  0.27010043575E+02  0.00000000000E+00 0.  1.
         -2    1    1    2    0  502  0.78096447351E+01 -0.21986563623E+02 -0.65490394976E+00  0.23341560145E+02  0.00000000000E+00 0.  1.
</event>
<event>
 4    1  0.5465458E+003  0.2229929E+02  0.7546771E-02  0.1501490E+00
          2   -1    0    0  501    0  0.00000000000E+00  0.00000000000E+00  0.18632700197E+04  0.18632700197E+04  0.00000000000E+00 0. -1.
         -2   -1    0    0    0  501 -0.00000000000E+00 -0.00000000000E+00 -0.27846102463E+00  0.27846102463E+00  0.00000000000E+00 0.  1.
          2    1    1    2  502    0  0.12255293884E+02 -0.18629704525E+02  0.11215670648E+04  0.11217887229E+04  0.00000000000E+00 0. -1.
         -2    1    1    2    0  502 -0.12255293884E+02  0.18629704525E+02  0.74142449386E+03  0.74175975775E+03  0.00000000000E+00 0.  1.
</event>
<event>
 4    1  0.5465458E+003  0.2014477E+02  0.7546771E-02  0.1531834E+00
          2   -1    0    0  501    0  0.00000000000E+00  0.00000000000E+00  0.30236989294E+03  0.30236989294E+03  0.00000000000E+00 0. -1.
         -2   -1    0    0    0  501 -0.00000000000E+00 -0.00000000000E+00 -0.13836759065E+01  0.13836759065E+01  0.00000000000E+00 0.  1.
          2    1    1    2  502    0 -0.14302841885E+02 -0.14185919336E+02  0.17681872096E+03  0.17796255695E+03  0.00000000000E+00 0. -1.
         -2    1    1    2    0  502  0.14302841885E+02  0.14185919336E+02  0.12416749608E+03  0.12579101190E+03  0.00000000000E+00 0.  1.
</event>
<event>
 4    1  0.5465458E+003  0.3366618E+02  0.7546771E-02  0.1390191E+00
          2   -1    0    0  501    0  0.00000000000E+00  0.00000000000E+00  0.15494234913E+04  0.15494234913E+04  0.00000000000E+00 0.  1.
         -2   -1    0    0    0  501 -0.00000000000E+00 -0.00000000000E+00 -0.68607120581E+02  0.68607120581E+02  0.00000000000E+00 0. -1.
          2    1    1    2  502    0 -0.29689604391E+02 -0.15872589490E+02  0.15450989764E+04  0.15454657092E+04  0.00000000000E+00 0.  1.
         -2    1    1    2    0  502  0.29689604391E+02  0.15872589490E+02 -0.64282605642E+02  0.72564902633E+02  0.00000000000E+00 0. -1.
</event>
<event>
 4    1  0.5465458E+003  0.4110414E+02  0.7546771E-02  0.1342134E+00
          2   -1    0    0  501    0  0.00000000000E+00  0.00000000000E+00  0.29607828255E+02  0.29607828255E+02  0.00000000000E+00 0. -1.
         -2   -1    0    0    0  501 -0.00000000000E+00 -0.00000000000E+00 -0.19606112967E+03  0.19606112967E+03  0.00000000000E+00 0.  1.
          2    1    1    2  502    0 -0.41059797496E+02 -0.19087683817E+01  0.11778796179E+02  0.42758512680E+02  0.00000000000E+00 0. -1.
         -2    1    1    2    0  502  0.41059797496E+02  0.19087683817E+01 -0.17823209759E+03  0.18291044524E+03  0.00000000000E+00 0.  1.
</event>
<event>
 4    1  0.5465458E+003  0.2024473E+02  0.7546771E-02  0.1530327E+00
          2   -1    0    0  501    0  0.00000000000E+00  0.00000000000E+00  0.61591231354E+03  0.61591231354E+03  0.00000000000E+00 0.  1.
         -2   -1    0    0    0  501 -0.00000000000E+00 -0.00000000000E+00 -0.75046445052E+00  0.75046445052E+00  0.00000000000E+00 0.  1.
          2    1    1    2  502    0 -0.13565565743E+02 -0.15027457123E+02  0.41136715104E+03  0.41186500458E+03  0.00000000000E+00 0.  1.
         -2    1    1    2    0  502  0.13565565743E+02  0.15027457123E+02  0.20379469805E+03  0.20479777341E+03  0.00000000000E+00 0.  1.
</event>
<event>
 4    1  0.5465458E+003  0.1868736E+03  0.7546771E-02  0.1064854E+00
          2   -1    0    0  501    0  0.00000000000E+00  0.00000000000E+00  0.31751444829E+03  0.31751444829E+03  0.00000000000E+00 0.  1.
         -2   -1    0    0    0  501 -0.00000000000E+00 -0.00000000000E+00 -0.83949387178E+03  0.83949387178E+03  0.00000000000E+00 0. -1.
          2    1    1    2  502    0  0.16189223637E+03 -0.93341504363E+02  0.27828877844E+03  0.33521094379E+03  0.00000000000E+00 0.  1.
         -2    1    1    2    0  502 -0.16189223637E+03  0.93341504363E+02 -0.80026820193E+03  0.82179737628E+03  0.00000000000E+00 0. -1.
</event>
<event>
 4    1  0.5465458E+003  0.2041786E+02  0.7546771E-02  0.1527741E+00
          2   -1    0    0  501    0  0.00000000000E+00  0.00000000000E+00  0.40660404843E+03  0.40660404843E+03  0.00000000000E+00 0. -1.
         -2   -1    0    0    0  501 -0.00000000000E+00 -0.00000000000E+00 -0.20770023969E+01  0.20770023969E+01  0.00000000000E+00 0. -1.
          2    1    1    2  502    0 -0.96799505403E+01 -0.17977418359E+02  0.34766992026E+03  0.34826895134E+03  0.00000000000E+00 0. -1.
         -2    1    1    2    0  502  0.96799505403E+01  0.17977418359E+02  0.56857125772E+02  0.60412099487E+02  0.00000000000E+00 0. -1.
</event>
<event>
 4    1  0.5465458E+003  0.2031241E+02  0.7546771E-02  0.1529312E+00
          2   -1    0    0  501    0  0.00000000000E+00  0.00000000000E+00  0.80988682038E+03  0.80988682038E+03  0.00000000000E+00 0. -1.
         -2   -1    0    0    0  501 -0.00000000000E+00 -0.00000000000E+00 -0.16118546960E+01  0.16118546960E+01  0.00000000000E+00 0.  1.
          2    1    1    2  502    0 -0.45902705282E+00 -0.20307226125E+02  0.73969429465E+03  0.73997313713E+03  0.00000000000E+00 0. -1.
         -2    1    1    2    0  502  0.45902705282E+00  0.20307226125E+02  0.68580671029E+02  0.71525537940E+02  0.00000000000E+00 0.  1.
</event>
<event>
 4    1  0.5465458E+003  0.2350613E+02  0.7546771E-02  0.1486239E+00
          2   -1    0    0  501    0  0.00000000000E+00  0.00000000000E+00  0.67898482779E+03  0.67898482779E+03  0.00000000000E+00 0.  1.
         -2   -1    0    0    0  501 -0.00000000000E+00 -0.00000000000E+00 -0.22133866815E+02  0.22133866815E+02  0.00000000000E+00 0. -1.
          2    1    1    2  502    0 -0.21977517916E+02 -0.83382717625E+01  0.67248017093E+03  0.67289086661E+03  0.00000000000E+00 0.  1.
         -2    1    1    2    0  502  0.21977517916E+02  0.83382717625E+01 -0.15629209954E+02  0.28227827999E+02  0.00000000000E+00 0. -1.
</event>
<event>
 4    1  0.5465458E+003  0.3153304E+02  0.7546771E-02  0.1406726E+00
          2   -1    0    0  501    0  0.00000000000E+00  0.00000000000E+00  0.19192412889E+02  0.19192412889E+02  0.00000000000E+00 0. -1.
         -2   -1    0    0    0  501 -0.00000000000E+00 -0.00000000000E+00 -0.92091920776E+02  0.92091920776E+02  0.00000000000E+00 0. -1.
          2    1    1    2  502    0 -0.19062042301E+02  0.25119120632E+02 -0.73250447461E+02  0.79749355679E+02  0.00000000000E+00 0. -1.
         -2    1    1    2    0  502  0.19062042301E+02 -0.25119120632E+02  0.35093957321E+00  0.31534977986E+02  0.00000000000E+00 0. -1.
</event>
<event>
 4    1  0.5465458E+003  0.2142645E+02  0.7546771E-02  0.1513263E+00
          2   -1    0    0  501    0  0.00000000000E+00  0.00000000000E+00  0.89213793346E+02  0.89213793346E+02  0.00000000000E+00 0.  1.
         -2   -1    0    0    0  501 -0.00000000000E+00 -0.00000000000E+00 -0.10516145702E+02  0.10516145702E+02  0.00000000000E+00 0.  1.
          2    1    1    2  502    0  0.21409851867E+02 -0.84324438426E+00  0.74982523277E+02  0.77983790719E+02  0.00000000000E+00 0.  1.
         -2    1    1    2    0  502 -0.21409851867E+02  0.84324438426E+00  0.37151243670E+01  0.21746148328E+02  0.00000000000E+00 0.  1.
</event>
<event>
 4    1  0.5465458E+003  0.2348272E+02  0.7546771E-02  0.1486524E+00
          2   -1    0    0  501    0  0.00000000000E+00  0.00000000000E+00  0.67196294925E+03  0.67196294925E+03  0.00000000000E+00 0. -1.
         -2   -1    0    0    0  501 -0.00000000000E+00 -0.00000000000E+00 -0.10126603257E+01  0.10126603257E+01  0.00000000000E+00 0.  1.
          2    1    1    2  502    0 -0.23461744050E+02 -0.99221718315E+00  0.48200090027E+03  0.48257259121E+03  0.00000000000E+00 0. -1.
         -2    1    1    2    0  502  0.23461744050E+02  0.99221718315E+00  0.18894938866E+03  0.19040301836E+03  0.00000000000E+00 0.  1.
</event>
<event>
 4    1  0.5465458E+003  0.2229933E+02  0.7546771E-02  0.1501489E+00
          2   -1    0    0  501    0  0.00000000000E+00  0.00000000000E+00  0.71050589079E+03  0.71050589079E+03  0.00000000000E+00 0.  1.
         -2   -1    0    0    0  501 -0.00000000000E+00 -0.00000000000E+00 -0.12417928839E+01  0.12417928839E+01  0.00000000000E+00 0. -1.
          2    1    1    2  502    0  0.10353447095E+02  0.19750098606E+02  0.58972579292E+03  0.59014724526E+03  0.00000000000E+00 0.  1.
         -2    1    1    2    0  502 -0.10353447095E+02 -0.19750098606E+02  0.11953830499E+03  0.12160043841E+03  0.00000000000E+00 0. -1.
</event>
<event>
 4    1  0.5465458E+003  0.2122520E+02  0.7546771E-02  0.1516074E+00
          2   -1    0    0  501    0  0.00000000000E+00  0.00000000000E+00  0.85089011610E+01  0.85089011610E+01  0.00000000000E+00 0.  1.
         -2   -1    0    0    0  501 -0.00000000000E+00 -0.00000000000E+00 -0.53538958432E+02  0.53538958432E+02  0.00000000000E+00 0.  1.
          2    1    1    2  502    0 -0.21221431626E+02  0.39985723007E+00 -0.19249051411E+02  0.28653708770E+02  0.00000000000E+00 0.  1.
         -2    1    1    2    0  502  0.21221431626E+02 -0.39985723007E+00 -0.25781005860E+02  0.33394150823E+02  0.00000000000E+00 0.  1.
</event>
<event>
 4    1  0.5465458E+003  0.2120869E+02  0.7546771E-02  0.1516306E+00
          2   -1    0    0  501    0  0.00000000000E+00  0.00000000000E+00  0.22286617954E+02  0.22286617954E+02  0.00000000000E+00 0. -1.
         -2   -1    0    0    0  501 -0.00000000000E+00 -0.00000000000E+00 -0.16461339491E+03  0.16461339491E+03  0.00000000000E+00 0. -1.
          2    1    1    2  502    0  0.20568438741E+02 -0.51718259610E+01  0.16370497294E+02  0.26791820350E+02  0.00000000000E+00 0. -1.
         -2    1    1    2    0  502 -0.20568438741E+02  0.51718259610E+01 -0.15869727425E+03  0.16010819251E+03  0.00000000000E+00 0. -1.
</event>
<event>
 4    1  0.5465458E+003  0.2097490E+02  0.7546771E-02  0.1519623E+00
          2   -1    0    0  501    0  0.00000000000E+00  0.00000000000E+00  0.58664733095E+03  0.58664733095E+03  0.00000000000E+00 0. -1.
         -2   -1    0    0    0  501 -0.00000000000E+00 -0.00000000000E+00 -0.82952697315E+01  0.82952697315E+01  0.00000000000E+00 0. -1.
          2    1    1    2  502    0 -0.37194757151E+01  0.20642480041E+02  0.57288241867E+03  0.57326626632E+03  0.00000000000E+00 0. -1.
         -2    1    1    2    0  502  0.37194757151E+01 -0.20642480041E+02  0.54696425541E+01  0.21676334365E+02  0.00000000000E+00 0. -1.
</event>
<event>
 4    1  0.5465458E+003  0.2970982E+02  0.7546771E-02  0.1422135E+00
          2   -1    0    0  501    0  0.00000000000E+00  0.00000000000E+00  0.26529430150E+03  0.26529430150E+03  0.00000000000E+00 0.  1.
         -2   -1    0    0    0  501 -0.00000000000E+00 -0.00000000000E+00 -0.26010475376E+02  0.26010475376E+02  0.00000000000E+00 0.  1.
          2    1    1    2  502    0 -0.19343969139E+02  0.22549597703E+02  0.25566005655E+03  0.25738053154E+03  0.00000000000E+00 0.  1.
         -2    1    1    2    0  502  0.19343969139E+02 -0.22549597703E+02 -0.16376230430E+02  0.33924245337E+02  0.00000000000E+00 0.  1.
</event>
<event>
 4    1  0.5465458E+003  0.2173974E+02  0.7546771E-02  0.1508960E+00
          2   -1    0    0  501    0  0.00000000000E+00  0.00000000000E+00  0.78387206923E+02  0.78387206923E+02  0.00000000000E+00 0. -1.
         -2   -1    0    0    0  501 -0.00000000000E+00 -0.00000000000E+00 -0.30472439828E+02  0.30472439828E+02  0.00000000000E+00 0. -1.
          2    1    1    2  502    0 -0.17627235570E+02  0.12723863536E+02  0.72705994270E+02  0.75886611071E+02  0.00000000000E+00 0. -1.
         -2    1    1    2    0  502  0.17627235570E+02 -0.12723863536E+02 -0.24791227174E+02  0.32973035680E+02  0.00000000000E+00 0. -1.
</event>
<event>
 4    1  0.5465458E+003  0.4953935E+02  0.7546771E-02  0.1300182E+00
          2   -1    0    0  501    0  0.00000000000E+00  0.00000000000E+00  0.82386756686E+02  0.82386756686E+02  0.00000000000E+00 0. -1.
         -2   -1    0    0    0  501 -0.00000000000E+00 -0.00000000000E+00 -0.11089008351E+03  0.11089008351E+03  0.00000000000E+00 0.  1.
          2    1    1    2  502    0 -0.27803318950E+02 -0.41001501650E+02  0.68393818231E+02  0.84450352601E+02  0.00000000000E+00 0. -1.
         -2    1    1    2    0  502  0.27803318950E+02  0.41001501650E+02 -0.96897145052E+02  0.10882648759E+03  0.00000000000E+00 0.  1.
</event>
<event>
 4    1  0.5465458E+003  0.2396130E+02  0.7546771E-02  0.1480767E+00
          2   -1    0    0  501    0  0.00000000000E+00  0.00000000000E+00  0.14984681855E+03  0.14984681855E+03  0.00000000000E+00 0.  1.
         -2   -1    0    0    0  501 -0.00000000000E+00 -0.00000000000E+00 -0.67420200053E+01  0.67420200053E+01  0.00000000000E+00 0.  1.
          2    1    1    2  502    0 -0.18361793737E+02  0.15394423531E+02  0.12299444903E+03  0.12530673660E+03  0.00000000000E+00 0.  1.
         -2    1    1    2    0  502  0.18361793737E+02 -0.15394423531E+02  0.20110349513E+02  0.31282101953E+02  0.00000000000E+00 0.  1.
</event>
<event>
 4    1  0.5465458E+003  0.2621201E+02  0.7546771E-02  0.1455688E+00
          2   -1    0    0  501    0  0.00000000000E+00  0.00000000000E+00  0.87508257900E+03  0.87508257900E+03  0.00000000000E+00 0.  1.
         -2   -1    0    0    0  501 -0.00000000000E+00 -0.00000000000E+00 -0.57786367689E+01  0.57786367689E+01  0.00000000000E+00 0. -1.
          2    1    1    2  502    0 -0.22564755396E+02  0.13337972856E+02  0.84406986026E+03  0.84447676031E+03  0.00000000000E+00 0.  1.
         -2    1    1    2    0  502  0.22564755396E+02 -0.13337972856E+02  0.25234081968E+02  0.36384455455E+02  0.00000000000E+00 0. -1.
</event>
<event>
 4    1  0.5465458E+003  0.2954394E+02  0.7546771E-02  0.1423602E+00
          2   -1    0    0  501    0  0.00000000000E+00  0.00000000000E+00  0.10725856643E+04  0.10725856643E+04  0.00000000000E+00 0. -1.
         -2   -1    0    0    0  501 -0.00000000000E+00 -0.00000000000E+00 -0.30037839448E+02  0.30037839448E+02  0.00000000000E+00 0. -1.
          2    1    1    2  502    0 -0.21838653361E+02 -0.19897681755E+02  0.10650664017E+04  0.10654760835E+04  0.00000000000E+00 0. -1.
         -2    1    1    2    0  502  0.21838653361E+02  0.19897681755E+02 -0.22518576903E+02  0.37147420174E+02  0.00000000000E+00 0. -1.
</event>
<event>
 4    1  0.5465458E+003  0.2345421E+02  0.7546771E-02  0.1486872E+00
          2   -1    0    0  501    0  0.00000000000E+00  0.00000000000E+00  0.65952335704E+03  0.65952335704E+03  0.00000000000E+00 0. -1.
         -2   -1    0    0    0  501 -0.00000000000E+00 -0.00000000000E+00 -0.11701382479E+01  0.11701382479E+01  0.00000000000E+00 0. -1.
          2    1    1    2  502    0  0.23170105418E+02 -0.36395312689E+01  0.50620955344E+03  0.50675261417E+03  0.00000000000E+00 0. -1.
         -2    1    1    2    0  502 -0.23170105418E+02  0.36395312689E+01  0.15214366534E+03  0.15394088111E+03  0.00000000000E+00 0. -1.
</event>
<event>
 4    1  0.5465458E+003  0.3084215E+02  0.7546771E-02  0.1412416E+00
          2   -1    0    0  501    0  0.00000000000E+00  0.00000000000E+00  0.14695882686E+03  0.14695882686E+03  0.00000000000E+00 0. -1.
         -2   -1    0    0    0  501 -0.00000000000E+00 -0.00000000000E+00 -0.28801156000E+02  0.28801156000E+02  0.00000000000E+00 0.  1.
          2    1    1    2  502    0  0.27556065466E+02  0.13852848102E+02  0.13645607251E+03  0.13989816964E+03  0.00000000000E+00 0. -1.
         -2    1    1    2    0  502 -0.27556065466E+02 -0.13852848102E+02 -0.18298401648E+02  0.35861813219E+02  0.00000000000E+00 0.  1.
</event>
<event>
 4    1  0.5465458E+003  0.2139341E+02  0.7546771E-02  0.1513722E+00
          2   -1    0    0  501    0  0.00000000000E+00  0.00000000000E+00  0.35770807706E+03  0.35770807706E+03  0.00000000000E+00 0. -1.
         -2   -1    0    0    0  501 -0.00000000000E+00 -0.00000000000E+00 -0.12060261413E+02  0.12060261413E+02  0.00000000000E+00 0. -1.
          2    1    1    2  502    0 -0.78077419807E+01  0.19917756196E+02  0.34762599968E+03  0.34828366815E+03  0.00000000000E+00 0. -1.
         -2    1    1    2    0  502  0.78077419807E+01 -0.19917756196E+02 -0.19781840349E+01  0.21484670321E+02  0.00000000000E+00 0. -1.
</event>
<event>
 4    1  0.5465458E+003  0.2595894E+02  0.7546771E-02  0.1458356E+00
          2   -1    0    0  501    0  0.00000000000E+00  0.00000000000E+00  0.89831964834E+02  0.89831964834E+02  0.00000000000E+00 0.  1.
         -2   -1    0    0    0  501 -0.00000000000E+00 -0.00000000000E+00 -0.11820143016E+02  0.11820143016E+02  0.00000000000E+00 0.  1.
          2    1    1    2  502    0 -0.25272933156E+02 -0.59283655812E+01  0.69728163455E+02  0.74403517710E+02  0.00000000000E+00 0.  1.
         -2    1    1    2    0  502  0.25272933156E+02  0.59283655812E+01  0.82836583633E+01  0.27248590141E+02  0.00000000000E+00 0.  1.
</event>
<event>
 4    1  0.5465458E+003  0.2216772E+02  0.7546771E-02  0.1503222E+00
          2   -1    0    0  501    0  0.00000000000E+00  0.00000000000E+00  0.88006125311E+03  0.88006125311E+03  0.00000000000E+00 0.  1.
         -2   -1    0    0    0  501 -0.00000000000E+00 -0.00000000000E+00 -0.22819407834E+01  0.22819407834E+01  0.00000000000E+00 0.  1.
          2    1    1    2  502    0  0.22089351543E+02 -0.18623303243E+01  0.82230438012E+03  0.82260312502E+03  0.00000000000E+00 0.  1.
         -2    1    1    2    0  502 -0.22089351543E+02  0.18623303243E+01  0.55474932203E+02  0.59740068871E+02  0.00000000000E+00 0.  1.
</event>
<event>
 4    1  0.5465458E+003  0.2297418E+02  0.7546771E-02  0.1492823E+00
          2   -1    0    0  501    0  0.00000000000E+00  0.00000000000E+00  0.32722582497E+02  0.32722582497E+02  0.00000000000E+00 0.  1.
         -2   -1    0    0    0  501 -0.00000000000E+00 -0.00000000000E+00 -0.16677332956E+02  0.16677332956E+02  0.00000000000E+00 0.  1.
          2    1    1    2  502    0 -0.20972243012E+02 -0.93796200043E+01  0.35476028416E+01  0.23246456382E+02  0.00000000000E+00 0.  1.
         -2    1    1    2    0  502  0.20972243012E+02  0.93796200043E+01  0.12497646699E+02  0.26153459071E+02  0.00000000000E+00 0.  1.
</event>
<event>
 4    1  0.5465458E+003  0.2058573E+02  0.7546771E-02  0.1525263E+00
          2   -1    0    0  501    0  0.00000000000E+00  0.00000000000E+00  0.39350112082E+03  0.39350112082E+03  0.00000000000E+00 0.  1.
         -2   -1    0    0    0  501 -0.00000000000E+00 -0.00000000000E+00 -0.11793121826E+01  0.11793121826E+01  0.00000000000E+00 0. -1.
          2    1    1    2  502    0 -0.31063047829E+01  0.20350015264E+02  0.25430669923E+03  0.25513853007E+03  0.00000000000E+00 0.  1.
         -2    1    1    2    0  502  0.31063047829E+01 -0.20350015264E+02  0.13801510941E+03  0.13954190294E+03  0.00000000000E+00 0. -1.
</event>
<event>
 4    1  0.5465458E+003  0.2825043E+02  0.7546771E-02  0.1435436E+00
          2   -1    0    0  501    0  0.00000000000E+00  0.00000000000E+00  0.84572576568E+03  0.84572576568E+03  0.00000000000E+00 0.  1.
         -2   -1    0    0    0  501 -0.00000000000E+00 -0.00000000000E+00 -0.33260686120E+01  0.33260686120E+01  0.00000000000E+00 0. -1.
          2    1    1    2  502    0  0.23786972437E+02  0.15240293819E+02  0.78049036836E+03  0.78100147357E+03  0.00000000000E+00 0.  1.
         -2    1    1    2    0  502 -0.23786972437E+02 -0.15240293819E+02  0.61909328701E+02  0.68050360716E+02  0.00000000000E+00 0. -1.
</event>
<event>
 4    1  0.5465458E+003  0.3312223E+02  0.7546771E-02  0.1394268E+00
          2   -1    0    0  501    0  0.00000000000E+00  0.00000000000E+00  0.18621633264E+03  0.18621633264E+03  0.00000000000E+00 0. -1.
         -2   -1    0    0    0  501 -0.00000000000E+00 -0.00000000000E+00 -0.67925427479E+01  0.67925427479E+01  0.00000000000E+00 0.  1.
          2    1    1    2  502    0  0.30841176444E+02  0.12079068928E+02  0.12486135144E+03  0.12917987132E+03  0.00000000000E+00 0. -1.
         -2    1    1    2    0  502 -0.30841176444E+02 -0.12079068928E+02  0.54562438457E+02  0.63829004073E+02  0.00000000000E+00 0.  1.
</event>
<event>
 4    1  0.5465458E+003  0.2161676E+02  0.7546771E-02  0.1510638E+00
          2   -1    0    0  501    0  0.00000000000E+00  0.00000000000E+00  0.47877656545E+02  0.47877656545E+02  0.00000000000E+00 0.  1.
         -2   -1    0    0    0  501 -0.00000000000E+00 -0.00000000000E+00 -0.70823134867E+02  0.70823134867E+02  0.00000000000E+00 0.  1.
          2    1    1    2  502    0  0.90649944329E+01 -0.19624225574E+02  0.43636664421E+02  0.48697462308E+02  0.00000000000E+00 0.  1.
         -2    1    1    2    0  502 -0.90649944329E+01  0.19624225574E+02 -0.66582142742E+02  0.70003329104E+02  0.00000000000E+00 0.  1.
</event>
<event>
 4    1  0.5465458E+003  0.3536486E+02  0.7546771E-02  0.1378016E+00
          2   -1    0    0  501    0  0.00000000000E+00  0.00000000000E+00  0.45574579395E+03  0.45574579395E+03  0.00000000000E+00 0.  1.
         -2   -1    0    0    0  501 -0.00000000000E+00 -0.00000000000E+00 -0.10859735711E+02  0.10859735711E+02  0.00000000000E+00 0. -1.
          2    1    1    2  502    0  0.29843313816E+02 -0.18974973985E+02  0.42412540526E+03  0.42559726550E+03  0.00000000000E+00 0.  1.
         -2    1    1    2    0  502 -0.29843313816E+02  0.18974973985E+02  0.20760652984E+02  0.41008264162E+02  0.00000000000E+00 0. -1.
</event>
<event>
 4    1  0.5465458E+003  0.2129063E+02  0.7546771E-02  0.1515156E+00
          2   -1    0    0  501    0  0.00000000000E+00  0.00000000000E+00  0.43562419244E+01  0.43562419244E+01  0.00000000000E+00 0. -1.
         -2   -1    0    0    0  501 -0.00000000000E+00 -0.00000000000E+00 -0.27173384346E+03  0.27173384346E+03  0.00000000000E+00 0.  1.
          2    1    1    2  502    0  0.19178749500E+02  0.92448125400E+01 -0.25249322536E+02  0.33027553342E+02  0.00000000000E+00 0. -1.
         -2    1    1    2    0  502 -0.19178749500E+02 -0.92448125400E+01 -0.24212827900E+03  0.24306253204E+03  0.00000000000E+00 0.  1.
</event>
<event>
 4    1  0.5465458E+003  0.2540210E+02  0.7546771E-02  0.1464355E+00
          2   -1    0    0  501    0  0.00000000000E+00  0.00000000000E+00  0.63079298126E+03  0.63079298126E+03  0.00000000000E+00 0. -1.
         -2   -1    0    0    0  501 -0.00000000000E+00 -0.00000000000E+00 -0.12116594515E+01  0.12116594515E+01  0.00000000000E+00 0. -1.
          2    1    1    2  502    0 -0.25354341863E+02 -0.15567608862E+01  0.19008009793E+03  0.19176993973E+03  0.00000000000E+00 0. -1.
         -2    1    1    2    0  502  0.25354341863E+02  0.15567608862E+01  0.43950122388E+03  0.44023470098E+03  0.00000000000E+00 0. -1.
</event>
<event>
 4    1  0.5465458E+003  0.2008605E+02  0.7546771E-02  0.1532724E+00
          2   -1    0    0  501    0  0.00000000000E+00  0.00000000000E+00  0.16987176113E+04  0.16987176113E+04  0.00000000000E+00 0.  1.
         -2   -1    0    0    0  501 -0.00000000000E+00 -0.00000000000E+00 -0.24439631244E+00  0.24439631244E+00  0.00000000000E+00 0. -1.
          2    1    1    2  502    0  0.20085994547E+02 -0.47833086983E-01  0.99190903705E+03  0.99211238639E+03  0.00000000000E+00 0.  1.
         -2    1    1    2    0  502 -0.20085994547E+02  0.47833086983E-01  0.70656417798E+03  0.70684962126E+03  0.00000000000E+00 0. -1.
</event>
<event>
 4    1  0.5465458E+003  0.2234250E+02  0.7546771E-02  0.1500924E+00
          2   -1    0    0  501    0  0.00000000000E+00  0.00000000000E+00  0.94865479524E+03  0.94865479524E+03  0.00000000000E+00 0.  1.
         -2   -1    0    0    0  501 -0.00000000000E+00 -0.00000000000E+00 -0.22285241585E+02  0.22285241585E+02  0.00000000000E+00 0. -1.
          2    1    1    2  502    0 -0.21585614388E+02 -0.57661572931E+01  0.94288902830E+03  0.94315370275E+03  0.00000000000E+00 0.  1.
         -2    1    1    2    0  502  0.21585614388E+02  0.57661572931E+01 -0.16519474650E+02  0.27786334072E+02  0.00000000000E+00 0. -1.
</event>
<event>
 4    1  0.5465458E+003  0.2004702E+02  0.7546771E-02  0.1533318E+00
          2   -1    0    0  501    0  0.00000000000E+00  0.00000000000E+00  0.19822959315E+03  0.19822959315E+03  0.00000000000E+00 0. -1.
         -2   -1    0    0    0  501 -0.00000000000E+00 -0.00000000000E+00 -0.26955776589E+02  0.26955776589E+02  0.00000000000E+00 0.  1.
          2    1    1    2  502    0  0.17499043256E+02  0.97809324092E+01  0.19391275293E+03  0.19494624618E+03  0.00000000000E+00 0. -1.
         -2    1    1    2    0  502 -0.17499043256E+02 -0.97809324092E+01 -0.22638936365E+02  0.30239123556E+02  0.00000000000E+00 0.  1.
</event>
<event>
 4    1  0.5465458E+003  0.2125815E+02  0.7546771E-02  0.1515611E+00
          2   -1    0    0  501    0  0.00000000000E+00  0.00000000000E+00  0.13360126560E+03  0.13360126560E+03  0.00000000000E+00 0.  1.
         -2   -1    0    0    0  501 -0.00000000000E+00 -0.00000000000E+00 -0.50850675220E+01  0.50850675220E+01  0.00000000000E+00 0.  1.
          2    1    1    2  502    0  0.10939509766E+01  0.21229983530E+02  0.10438216648E+03  0.10652485911E+03  0.00000000000E+00 0.  1.
         -2    1    1    2    0  502 -0.10939509766E+01 -0.21229983530E+02  0.24134031596E+02  0.32161474010E+02  0.00000000000E+00 0.  1.
</event>
<event>
 4    1  0.5465458E+003  0.2252723E+02  0.7546771E-02  0.1498522E+00
          2   -1    0    0  501    0  0.00000000000E+00  0.00000000000E+00  0.43306994907E+03  0.43306994907E+03  0.00000000000E+00 0. -1.
         -2   -1    0    0    0  501 -0.00000000000E+00 -0.00000000000E+00 -0.74005017470E+02  0.74005017470E+02  0.00000000000E+00 0. -1.
          2    1    1    2  502    0 -0.64275178488E+00 -0.22518061049E+02  0.43105465641E+03  0.43164289988E+03  0.00000000000E+00 0. -1.
         -2    1    1    2    0  502  0.64275178488E+00  0.22518061049E+02 -0.71989724807E+02  0.75432066663E+02  0.00000000000E+00 0. -1.
</event>
<event>
 4    1  0.5465458E+003  0.2131654E+02  0.7546771E-02  0.1514793E+00
          2   -1    0    0  501    0  0.00000000000E+00  0.00000000000E+00  0.35430230457E+02  0.35430230457E+02  0.00000000000E+00 0. -1.
         -2   -1    0    0    0  501 -0.00000000000E+00 -0.00000000000E+00 -0.15373263383E+02  0.15373263383E+02  0.00000000000E+00 0.  1.
          2    1    1    2  502    0  0.15634252006E+02  0.14490155757E+02 -0.31337309974E+00  0.21318833278E+02  0.00000000000E+00 0.  1.
         -2    1    1    2    0  502 -0.15634252006E+02 -0.14490155757E+02  0.20370340173E+02  0.29484660561E+02  0.00000000000E+00 0. -1.
</event>
<event>
 4    1  0.5465458E+003  0.2905714E+02  0.7546771E-02  0.1427971E+00
          2   -1    0    0  501    0  0.00000000000E+00  0.00000000000E+00  0.32778643954E+04  0.32778643954E+04  0.00000000000E+00 0.  1.
         -2   -1    0    0    0  501 -0.00000000000E+00 -0.00000000000E+00 -0.25989026529E+00  0.25989026529E+00  0.00000000000E+00 0.  1.
          2    1    1    2  502    0 -0.20081898499E+02 -0.21000803599E+02  0.14843073765E+04  0.14845917635E+04  0.00000000000E+00 0.  1.
         -2    1    1    2    0  502  0.20081898499E+02  0.21000803599E+02  0.17932971286E+04  0.17935325221E+04  0.00000000000E+00 0.  1.
</event>
<event>
 4    1  0.6256944E+003  0.2268917E+02  0.7546771E-02  0.1496439E+00
          2   -1    0    0  501    0  0.00000000000E+00  0.00000000000E+00  0.15455920100E+04  0.15455920100E+04  0.00000000000E+00 0. -1.
         -2   -1    0    0    0  501 -0.00000000000E+00 -0.00000000000E+00 -0.24219953437E+03  0.24219953437E+03  0.00000000000E+00 0. -1.
          2    1    1    2  502    0 -0.19184440885E+02  0.12114282597E+02  0.15449771511E+04  0.15451437460E+04  0.00000000000E+00 0. -1.
         -2    1    1    2    0  502  0.19184440885E+02 -0.12114282597E+02 -0.24158467545E+03  0.24264779831E+03  0.00000000000E+00 0. -1.
</event>
<event>
 4    1  0.5465458E+003  0.2660903E+02  0.7546771E-02  0.1451576E+00
          2   -1    0    0  501    0  0.00000000000E+00  0.00000000000E+00  0.24070150876E+02  0.24070150876E+02  0.00000000000E+00 0.  1.
         -2   -1    0    0    0  501 -0.00000000000E+00 -0.00000000000E+00 -0.12153566128E+03  0.12153566128E+03  0.00000000000E+00 0.  1.
          2    1    1    2  502    0  0.26511622226E+02  0.22747051568E+01  0.14650380196E+02  0.30375549979E+02  0.00000000000E+00 0.  1.
         -2    1    1    2    0  502 -0.26511622226E+02 -0.22747051568E+01 -0.11211589060E+03  0.11523026218E+03  0.00000000000E+00 0.  1.
</event>
<event>
 4    1  0.5465458E+003  0.2124656E+02  0.7546771E-02  0.1515774E+00
          2   -1    0    0  501    0  0.00000000000E+00  0.00000000000E+00  0.18747516560E+01  0.18747516560E+01  0.00000000000E+00 0. -1.
         -2   -1    0    0    0  501 -0.00000000000E+00 -0.00000000000E+00 -0.49859419990E+03  0.49859419990E+03  0.00000000000E+00 0.  1.
          2    1    1    2  502    0 -0.18556887686E+02 -0.10346902871E+02 -0.68422605953E+02  0.71645442877E+02  0.00000000000E+00 0. -1.
         -2    1    1    2    0  502  0.18556887686E+02  0.10346902871E+02 -0.42829684229E+03  0.42882350868E+03  0.00000000000E+00 0.  1.
</event>
<event>
 4    1  0.5465458E+003  0.3712426E+02  0.7546771E-02  0.1366215E+00
          2   -1    0    0  501    0  0.00000000000E+00  0.00000000000E+00  0.26553767124E+03  0.26553767124E+03  0.00000000000E+00 0.  1.
         -2   -1    0    0    0  501 -0.00000000000E+00 -0.00000000000E+00 -0.68484850611E+01  0.68484850611E+01  0.00000000000E+00 0. -1.
          2    1    1    2  502    0 -0.11290414837E+02 -0.35365761363E+02  0.19636067420E+03  0.19983924768E+03  0.00000000000E+00 0.  1.
         -2    1    1    2    0  502  0.11290414837E+02  0.35365761363E+02  0.62328511980E+02  0.72546908615E+02  0.00000000000E+00 0. -1.
</event>
<event>
 4    1  0.5465458E+003  0.3687220E+02  0.7546771E-02  0.1367858E+00
          2   -1    0    0  501    0  0.00000000000E+00  0.00000000000E+00  0.19210469770E+02  0.19210469770E+02  0.00000000000E+00 0.  1.
         -2   -1    0    0    0  501 -0.00000000000E+00 -0.00000000000E+00 -0.13190557623E+03  0.13190557623E+03  0.00000000000E+00 0.  1.
          2    1    1    2  502    0  0.36315910603E+02 -0.63807466289E+01 -0.49088912810E+01  0.37197533575E+02  0.00000000000E+00 0.  1.
         -2    1    1    2    0  502 -0.36315910603E+02  0.63807466289E+01 -0.10778621518E+03  0.11391851243E+03  0.00000000000E+00 0.  1.
</event>
<event>
 4    1  0.5465458E+003  0.2980957E+02  0.7546771E-02  0.1421259E+00
          2   -1    0    0  501    0  0.00000000000E+00  0.00000000000E+00  0.14342727472E+03  0.14342727472E+03  0.00000000000E+00 0.  1.
         -2   -1    0    0    0  501 -0.00000000000E+00 -0.00000000000E+00 -0.15094088096E+03  0.15094088096E+03  0.00000000000E+00 0.  1.
          2    1    1    2  502    0  0.35979133888E+01 -0.29591650307E+02  0.14037495158E+03  0.14350518380E+03  0.00000000000E+00 0.  1.
         -2    1    1    2    0  502 -0.35979133888E+01  0.29591650307E+02 -0.14788855782E+03  0.15086297188E+03  0.00000000000E+00 0.  1.
</event>
<event>
 4    1  0.5465458E+003  0.2738357E+02  0.7546771E-02  0.1443793E+00
          2   -1    0    0  501    0  0.00000000000E+00  0.00000000000E+00  0.28895215899E+03  0.28895215899E+03  0.00000000000E+00 0. -1.
         -2   -1    0    0    0  501 -0.00000000000E+00 -0.00000000000E+00 -0.26036534237E+01  0.26036534237E+01  0.00000000000E+00 0. -1.
          2    1    1    2  502    0 -0.17516751637E+02  0.21048124062E+02  0.15152908824E+03  0.15398352086E+03  0.00000000000E+00 0. -1.
         -2    1    1    2    0  502  0.17516751637E+02 -0.21048124062E+02  0.13481941732E+03  0.13757229155E+03  0.00000000000E+00 0. -1.
</event>
<event>
 4    1  0.5465458E+003  0.2867655E+02  0.7546771E-02  0.1431457E+00
          2   -1    0    0  501    0  0.00000000000E+00  0.00000000000E+00  0.10669093970E+03  0.10669093970E+03  0.00000000000E+00 0. -1.
         -2   -1    0    0    0  501 -0.00000000000E+00 -0.00000000000E+00 -0.32218560031E+02  0.32218560031E+02  0.00000000000E+00 0.  1.
          2    1    1    2  502    0 -0.14637532979E+02  0.24659420694E+02  0.97816004989E+02  0.10193289573E+03  0.00000000000E+00 0. -1.
         -2    1    1    2    0  502  0.14637532979E+02 -0.24659420694E+02 -0.23343625315E+02  0.36976604002E+02  0.00000000000E+00 0.  1.
</event>
<event>
 4    1  0.5465458E+003  0.2296274E+02  0.7546771E-02  0.1492967E+00
          2   -1    0    0  501    0  0.00000000000E+00  0.00000000000E+00  0.91220478058E+01  0.91220478058E+01  0.00000000000E+00 0.  1.
         -2   -1    0    0    0  501 -0.00000000000E+00 -0.00000000000E+00 -0.49463275944E+03  0.49463275944E+03  0.00000000000E+00 0.  1.
          2    1    1    2  502    0  0.19890995159E+02  0.11473258571E+02 -0.60524594204E+01  0.23746991719E+02  0.00000000000E+00 0.  1.
         -2    1    1    2    0  502 -0.19890995159E+02 -0.11473258571E+02 -0.47945825221E+03  0.48000781552E+03  0.00000000000E+00 0.  1.
</event>
<event>
 4    1  0.5465458E+003  0.3345684E+02  0.7546771E-02  0.1391749E+00
          2   -1    0    0  501    0  0.00000000000E+00  0.00000000000E+00  0.91622929245E+01  0.91622929245E+01  0.00000000000E+00 0. -1.
         -2   -1    0    0    0  501 -0.00000000000E+00 -0.00000000000E+00 -0.19287038334E+03  0.19287038334E+03  0.00000000000E+00 0.  1.
          2    1    1    2  502    0  0.54411290999E+01 -0.33011424843E+02 -0.30693856230E+02  0.45403445534E+02  0.00000000000E+00 0. -1.
         -2    1    1    2    0  502 -0.54411290999E+01  0.33011424843E+02 -0.15301423418E+03  0.15662923073E+03  0.00000000000E+00 0.  1.
</event>
<event>
 4    1  0.5465458E+003  0.3245302E+02  0.7546771E-02  0.1399412E+00
          2   -1    0    0  501    0  0.00000000000E+00  0.00000000000E+00  0.25950222384E+04  0.25950222384E+04  0.00000000000E+00 0. -1.
         -2   -1    0    0    0  501 -0.00000000000E+00 -0.00000000000E+00 -0.11085038511E+01  0.11085038511E+01  0.00000000000E+00 0.  1.
          2    1    1    2  502    0 -0.27735694094E+02  0.16850212204E+02  0.23304263386E+04  0.23306522945E+04  0.00000000000E+00 0. -1.
         -2    1    1    2    0  502  0.27735694094E+02 -0.16850212204E+02  0.26348739598E+03  0.26547844775E+03  0.00000000000E+00 0.  1.
</event>
<event>
 4    1  0.5465458E+003  0.2516693E+02  0.7546771E-02  0.1466945E+00
          2   -1    0    0  501    0  0.00000000000E+00  0.00000000000E+00  0.56336534718E+01  0.56336534718E+01  0.00000000000E+00 0. -1.
         -2   -1    0    0    0  501 -0.00000000000E+00 -0.00000000000E+00 -0.10945665105E+04  0.10945665105E+04  0.00000000000E+00 0.  1.
          2    1    1    2  502    0  0.17663046273E+02 -0.17927386663E+02 -0.23383029846E+02  0.34353172793E+02  0.00000000000E+00 0. -1.
         -2    1    1    2    0  502 -0.17663046273E+02  0.17927386663E+02 -0.10655498272E+04  0.10658469912E+04  0.00000000000E+00 0.  1.
</event>
<event>
 4    1  0.5465458E+003  0.2925782E+02  0.7546771E-02  0.1426157E+00
          2   -1    0    0  501    0  0.00000000000E+00  0.00000000000E+00  0.13242722593E+01  0.13242722593E+01  0.00000000000E+00 0. -1.
         -2   -1    0    0    0  501 -0.00000000000E+00 -0.00000000000E+00 -0.79002027524E+03  0.79002027524E+03  0.00000000000E+00 0. -1.
          2    1    1    2  502    0  0.24225112089E+02  0.16406193032E+02 -0.56304733789E+03  0.56380699173E+03  0.00000000000E+00 0. -1.
         -2    1    1    2    0  502 -0.24225112089E+02 -0.16406193032E+02 -0.22564866509E+03  0.22753755577E+03  0.00000000000E+00 0. -1.
</event>
<event>
 4    1  0.5465458E+003  0.2152201E+02  0.7546771E-02  0.1511941E+00
          2   -1    0    0  501    0  0.00000000000E+00  0.00000000000E+00  0.12786403986E+04  0.12786403986E+04  0.00000000000E+00 0.  1.
         -2   -1    0    0    0  501 -0.00000000000E+00 -0.00000000000E+00 -0.20248104468E+02  0.20248104468E+02  0.00000000000E+00 0. -1.
          2    1    1    2  502    0  0.21499446687E+02  0.98523534336E+00  0.12728045990E+04  0.12729865451E+04  0.00000000000E+00 0.  1.
         -2    1    1    2    0  502 -0.21499446687E+02 -0.98523534336E+00 -0.14412304816E+02  0.25901957969E+02  0.00000000000E+00 0. -1.
</event>
<event>
 4    1  0.5465458E+003  0.3643327E+02  0.7546771E-02  0.1370757E+00
          2   -1    0    0  501    0  0.00000000000E+00  0.00000000000E+00  0.21508436344E+04  0.21508436344E+04  0.00000000000E+00 0.  1.
         -2   -1    0    0    0  501 -0.00000000000E+00 -0.00000000000E+00 -0.21294646572E+01  0.21294646572E+01  0.00000000000E+00 0.  1.
          2    1    1    2  502    0  0.35704661336E+02  0.72498626895E+01  0.19815405467E+04  0.19818754557E+04  0.00000000000E+00 0.  1.
         -2    1    1    2    0  502 -0.35704661336E+02 -0.72498626895E+01  0.16717362300E+03  0.17109764340E+03  0.00000000000E+00 0.  1.
</event>
<event>
 4    1  0.5465458E+003  0.3021513E+02  0.7546771E-02  0.1417736E+00
          2   -1    0    0  501    0  0.00000000000E+00  0.00000000000E+00  0.31083632343E+02  0.31083632343E+02  0.00000000000E+00 0. -1.
         -2   -1    0    0    0  501 -0.00000000000E+00 -0.00000000000E+00 -0.17419838248E+03  0.17419838248E+03  0.00000000000E+00 0.  1.
          2    1    1    2  502    0 -0.34288478302E+01  0.30019944393E+02  0.22031525881E+02  0.37394413907E+02  0.00000000000E+00 0. -1.
         -2    1    1    2    0  502  0.34288478302E+01 -0.30019944393E+02 -0.16514627602E+03  0.16788760092E+03  0.00000000000E+00 0.  1.
</event>
<event>
 4    1  0.5465458E+003  0.2111503E+02  0.7546771E-02  0.1517629E+00
          2   -1    0    0  501    0  0.00000000000E+00  0.00000000000E+00  0.65105704667E+02  0.65105704667E+02  0.00000000000E+00 0.  1.
         -2   -1    0    0    0  501 -0.00000000000E+00 -0.00000000000E+00 -0.15117385713E+02  0.15117385713E+02  0.00000000000E+00 0.  1.
          2    1    1    2  502    0  0.16938045744E+02 -0.12607425913E+02  0.54660732506E+02  0.58597271779E+02  0.00000000000E+00 0.  1.
         -2    1    1    2    0  502 -0.16938045744E+02  0.12607425913E+02 -0.46724135516E+01  0.21625818601E+02  0.00000000000E+00 0.  1.
</event>
<event>
 4    1  0.5465458E+003  0.2321419E+02  0.7546771E-02  0.1489826E+00
          2   -1    0    0  501    0  0.00000000000E+00  0.00000000000E+00  0.50018349974E+03  0.50018349974E+03  0.00000000000E+00 0.  1.
         -2   -1    0    0    0  501 -0.00000000000E+00 -0.00000000000E+00 -0.73076672987E+01  0.73076672987E+01  0.00000000000E+00 0. -1.
          2    1    1    2  502    0 -0.15087109974E+02  0.17643069232E+02  0.48073256713E+03  0.48129273824E+03  0.00000000000E+00 0.  1.
         -2    1    1    2    0  502  0.15087109974E+02 -0.17643069232E+02  0.12143265311E+02  0.26198428802E+02  0.00000000000E+00 0. -1.
</event>
<event>
 4    1  0.5465458E+003  0.2311159E+02  0.7546771E-02  0.1491102E+00
          2   -1    0    0  501    0  0.00000000000E+00  0.00000000000E+00  0.46330472471E+03  0.46330472471E+03  0.00000000000E+00 0.  1.
         -2   -1    0    0    0  501 -0.00000000000E+00 -0.00000000000E+00 -0.16250284500E+01  0.16250284500E+01  0.00000000000E+00 0.  1.
          2    1    1    2  502    0 -0.40013756270E+01 -0.22762568702E+02  0.35614110657E+03  0.35689022588E+03  0.00000000000E+00 0.  1.
         -2    1    1    2    0  502  0.40013756270E+01  0.22762568702E+02  0.10553858969E+03  0.10803952728E+03  0.00000000000E+00 0.  1.
</event>
<event>
 4    1  0.5465458E+003  0.2117295E+02  0.7546771E-02  0.1516810E+00
          2   -1    0    0  501    0  0.00000000000E+00  0.00000000000E+00  0.89508009604E+01  0.89508009604E+01  0.00000000000E+00 0.  1.
         -2   -1    0    0    0  501 -0.00000000000E+00 -0.00000000000E+00 -0.54129588421E+02  0.54129588421E+02  0.00000000000E+00 0.  1.
          2    1    1    2  502    0  0.21033172883E+02 -0.24288520622E+01 -0.13967011913E+02  0.25364761100E+02  0.00000000000E+00 0.  1.
         -2    1    1    2    0  502 -0.21033172883E+02  0.24288520622E+01 -0.31211775547E+02  0.37715628282E+02  0.00000000000E+00 0.  1.
</event>
<event>
 4    1  0.5465458E+003  0.3411384E+02  0.7546771E-02  0.1386902E+00
          2   -1    0    0  501    0  0.00000000000E+00  0.00000000000E+00  0.14820018565E+04  0.14820018565E+04  0.00000000000E+00 0. -1.
         -2   -1    0    0    0  501 -0.00000000000E+00 -0.00000000000E+00 -0.51634402660E+01  0.51634402660E+01  0.00000000000E+00 0.  1.
          2    1    1    2  502    0  0.13645220802E+02 -0.31265986262E+02  0.14231290692E+04  0.14235378820E+04  0.00000000000E+00 0. -1.
         -2    1    1    2    0  502 -0.13645220802E+02  0.31265986262E+02  0.53709347002E+02  0.63627414713E+02  0.00000000000E+00 0.  1.
</event>
<event>
 4    1  0.5465458E+003  0.2284979E+02  0.7546771E-02  0.1494393E+00
          2   -1    0    0  501    0  0.00000000000E+00  0.00000000000E+00  0.78255120603E+03  0.78255120603E+03  0.00000000000E+00 0. -1.
         -2   -1    0    0    0  501 -0.00000000000E+00 -0.00000000000E+00 -0.35951352354E+01  0.35951352354E+01  0.00000000000E+00 0. -1.
          2    1    1    2  502    0 -0.71064665506E+00 -0.22838740317E+02  0.74420728585E+03  0.74455798793E+03  0.00000000000E+00 0. -1.
         -2    1    1    2    0  502  0.71064665506E+00  0.22838740317E+02  0.34748784937E+02  0.41588353328E+02  0.00000000000E+00 0. -1.
</event>
<event>
 4    1  0.5465458E+003  0.1156450E+03  0.7546771E-02  0.1139157E+00
          2   -1    0    0  501    0  0.00000000000E+00  0.00000000000E+00  0.14048844065E+03  0.14048844065E+03  0.00000000000E+00 0. -1.
         -2   -1    0    0    0  501 -0.00000000000E+00 -0.00000000000E+00 -0.23284402656E+03  0.23284402656E+03  0.00000000000E+00 0.  1.
          2    1    1    2  502    0 -0.73758175771E+02 -0.89070156017E+02  0.97344772870E+02  0.15116139054E+03  0.00000000000E+00 0. -1.
         -2    1    1    2    0  502  0.73758175771E+02  0.89070156017E+02 -0.18970035878E+03  0.22217107667E+03  0.00000000000E+00 0.  1.
</event>
<event>
 4    1  0.5465458E+003  0.3032855E+02  0.7546771E-02  0.1416762E+00
          2   -1    0    0  501    0  0.00000000000E+00  0.00000000000E+00  0.99967706491E+03  0.99967706491E+03  0.00000000000E+00 0.  1.
         -2   -1    0    0    0  501 -0.00000000000E+00 -0.00000000000E+00 -0.28041756846E+03  0.28041756846E+03  0.00000000000E+00 0. -1.
          2    1    1    2  502    0 -0.22983441309E+02 -0.19788435176E+02  0.99862612706E+03  0.99908656401E+03  0.00000000000E+00 0.  1.
         -2    1    1    2    0  502  0.22983441309E+02  0.19788435176E+02 -0.27936663062E+03  0.28100806936E+03  0.00000000000E+00 0. -1.
</event>
<event>
 4    1  0.5465458E+003  0.2251251E+02  0.7546771E-02  0.1498712E+00
          2   -1    0    0  501    0  0.00000000000E+00  0.00000000000E+00  0.35555272455E+02  0.35555272455E+02  0.00000000000E+00 0.  1.
         -2   -1    0    0    0  501 -0.00000000000E+00 -0.00000000000E+00 -0.76116177784E+02  0.76116177784E+02  0.00000000000E+00 0. -1.
          2    1    1    2  502    0  0.18316216742E+02 -0.13089280915E+02  0.30056331407E+02  0.37552578184E+02  0.00000000000E+00 0.  1.
         -2    1    1    2    0  502 -0.18316216742E+02  0.13089280915E+02 -0.70617236735E+02  0.74118872055E+02  0.00000000000E+00 0. -1.
</event>
<event>
 4    1  0.5465458E+003  0.2317660E+02  0.7546771E-02  0.1490292E+00
          2   -1    0    0  501    0  0.00000000000E+00  0.00000000000E+00  0.89962860552E+03  0.89962860552E+03  0.00000000000E+00 0.  1.
         -2   -1    0    0    0  501 -0.00000000000E+00 -0.00000000000E+00 -0.59789083860E+00  0.59789083860E+00  0.00000000000E+00 0.  1.
          2    1    1    2  502    0 -0.48346534824E+01 -0.22666722878E+02  0.43298439123E+03  0.43360424035E+03  0.00000000000E+00 0.  1.
         -2    1    1    2    0  502  0.48346534824E+01  0.22666722878E+02  0.46604632345E+03  0.46662225600E+03  0.00000000000E+00 0.  1.
</event>
<event>
 4    1  0.5465458E+003  0.2159895E+02  0.7546771E-02  0.1510883E+00
          2   -1    0    0  501    0  0.00000000000E+00  0.00000000000E+00  0.23792398987E+03  0.23792398987E+03  0.00000000000E+00 0. -1.
         -2   -1    0    0    0  501 -0.00000000000E+00 -0.00000000000E+00 -0.16812920044E+02  0.16812920044E+02  0.00000000000E+00 0.  1.
          2    1    1    2  502    0 -0.54122891168E+01  0.20909849899E+02  0.23026677830E+03  0.23127754730E+03  0.00000000000E+00 0. -1.
         -2    1    1    2    0  502  0.54122891168E+01 -0.20909849899E+02 -0.91557084791E+01  0.23459362609E+02  0.00000000000E+00 0.  1.
</event>
<event>
 4    1  0.5465458E+003  0.3642498E+02  0.7546771E-02  0.1370813E+00
          2   -1    0    0  501    0  0.00000000000E+00  0.00000000000E+00  0.23357960822E+03  0.23357960822E+03  0.00000000000E+00 0.  1.
         -2   -1    0    0    0  501 -0.00000000000E+00 -0.00000000000E+00 -0.67584993657E+01  0.67584993657E+01  0.00000000000E+00 0. -1.
          2    1    1    2  502    0 -0.55782306001E+01 -0.35995310149E+02  0.16141009443E+03  0.16546902306E+03  0.00000000000E+00 0.  1.
         -2    1    1    2    0  502  0.55782306001E+01  0.35995310149E+02  0.65411014425E+02  0.74869084524E+02  0.00000000000E+00 0. -1.
</event>
<event>
 4    1  0.5465458E+003  0.3315871E+02  0.7546771E-02  0.1393992E+00
          2   -1    0    0  501    0  0.00000000000E+00  0.00000000000E+00  0.47555852333E+03  0.47555852333E+03  0.00000000000E+00 0.  1.
         -2   -1    0    0    0  501 -0.00000000000E+00 -0.00000000000E+00 -0.29259678575E+02  0.29259678575E+02  0.00000000000E+00 0.  1.
          2    1    1    2  502    0 -0.19782542136E+02 -0.26611107494E+02  0.46538100471E+03  0.46656079943E+03  0.00000000000E+00 0.  1.
         -2    1    1    2    0  502  0.19782542136E+02  0.26611107494E+02 -0.19082159960E+02  0.38257402475E+02  0.00000000000E+00 0.  1.
</event>
<event>
 4    1  0.5465458E+003  0.2152548E+02  0.7546771E-02  0.1511893E+00
          2   -1    0    0  501    0  0.00000000000E+00  0.00000000000E+00  0.28172729432E+03  0.28172729432E+03  0.00000000000E+00 0. -1.
         -2   -1    0    0    0  501 -0.00000000000E+00 -0.00000000000E+00 -0.14480744396E+02  0.14480744396E+02  0.00000000000E+00 0.  1.
          2    1    1    2  502    0 -0.21473864659E+02  0.14897641223E+01  0.27306336162E+03  0.27391047027E+03  0.00000000000E+00 0. -1.
         -2    1    1    2    0  502  0.21473864659E+02 -0.14897641223E+01 -0.58168116971E+01  0.22297568452E+02  0.00000000000E+00 0.  1.
</event>
<event>
 4    1  0.5465458E+003  0.2353425E+02  0.7546771E-02  0.1485896E+00
          2   -1    0    0  501    0  0.00000000000E+00  0.00000000000E+00  0.16294615492E+04  0.16294615492E+04  0.00000000000E+00 0.  1.
         -2   -1    0    0    0  501 -0.00000000000E+00 -0.00000000000E+00 -0.43682341265E+01  0.43682341265E+01  0.00000000000E+00 0.  1.
          2    1    1    2  502    0  0.23274985946E+02 -0.34836921975E+01  0.15970347701E+04  0.15972081636E+04  0.00000000000E+00 0.  1.
         -2    1    1    2    0  502 -0.23274985946E+02  0.34836921975E+01  0.28058544943E+02  0.36621619659E+02  0.00000000000E+00 0.  1.
</event>
<event>
 4    1  0.5465458E+003  0.2031154E+02  0.7546771E-02  0.1529325E+00
          2   -1    0    0  501    0  0.00000000000E+00  0.00000000000E+00  0.37829829149E+03  0.37829829149E+03  0.00000000000E+00 0. -1.
         -2   -1    0    0    0  501 -0.00000000000E+00 -0.00000000000E+00 -0.30750365301E+01  0.30750365301E+01  0.00000000000E+00 0.  1.
          2    1    1    2  502    0 -0.12231421612E+02  0.16215768050E+02  0.34079712005E+03  0.34140186854E+03  0.00000000000E+00 0. -1.
         -2    1    1    2    0  502  0.12231421612E+02 -0.16215768050E+02  0.34426134907E+02  0.39971459477E+02  0.00000000000E+00 0.  1.
</event>
<event>
 4    1  0.5465458E+003  0.2306846E+02  0.7546771E-02  0.1491640E+00
          2   -1    0    0  501    0  0.00000000000E+00  0.00000000000E+00  0.19781308497E+03  0.19781308497E+03  0.00000000000E+00 0.  1.
         -2   -1    0    0    0  501 -0.00000000000E+00 -0.00000000000E+00 -0.56910021124E+02  0.56910021124E+02  0.00000000000E+00 0. -1.
          2    1    1    2  502    0 -0.23054648221E+02  0.79826628928E+00  0.19476639852E+03  0.19612777474E+03  0.00000000000E+00 0.  1.
         -2    1    1    2    0  502  0.23054648221E+02 -0.79826628928E+00 -0.53863334675E+02  0.58595331349E+02  0.00000000000E+00 0. -1.
</event>
<event>
 4    1  0.5465458E+003  0.2540529E+02  0.7546771E-02  0.1464320E+00
          2   -1    0    0  501    0  0.00000000000E+00  0.00000000000E+00  0.28687263079E+03  0.28687263079E+03  0.00000000000E+00 0. -1.
         -2   -1    0    0    0  501 -0.00000000000E+00 -0.00000000000E+00 -0.27511572601E+01  0.27511572601E+01  0.00000000000E+00 0.  1.
          2    1    1    2  502    0  0.22034900383E+02 -0.12644847149E+02  0.20387454893E+03  0.20545135846E+03  0.00000000000E+00 0.  1.
         -2    1    1    2    0  502 -0.22034900383E+02  0.12644847149E+02  0.80246924603E+02  0.84172429586E+02  0.00000000000E+00 0. -1.
</event>
<event>
 4    1  0.5465458E+003  0.2095649E+02  0.7546771E-02  0.1519887E+00
          2   -1    0    0  501    0  0.00000000000E+00  0.00000000000E+00  0.33100997978E+02  0.33100997978E+02  0.00000000000E+00 0. -1.
         -2   -1    0    0    0  501 -0.00000000000E+00 -0.00000000000E+00 -0.31888887105E+03  0.31888887105E+03  0.00000000000E+00 0. -1.
          2    1    1    2  502    0  0.17021307949E+02  0.12224961250E+02  0.29400872808E+02  0.36105206324E+02  0.00000000000E+00 0. -1.
         -2    1    1    2    0  502 -0.17021307949E+02 -0.12224961250E+02 -0.31518874588E+03  0.31588466271E+03  0.00000000000E+00 0. -1.
</event>
<event>
 4    1  0.5465458E+003  0.3682633E+02  0.7546771E-02  0.1368159E+00
          2   -1    0    0  501    0  0.00000000000E+00  0.00000000000E+00  0.95264682502E+02  0.95264682502E+02  0.00000000000E+00 0.  1.
         -2   -1    0    0    0  501 -0.00000000000E+00 -0.00000000000E+00 -0.18616219903E+02  0.18616219903E+02  0.00000000000E+00 0. -1.
          2    1    1    2  502    0  0.12734148655E+02  0.34554590845E+02  0.65944517491E+02  0.75530508257E+02  0.00000000000E+00 0.  1.
         -2    1    1    2    0  502 -0.12734148655E+02 -0.34554590845E+02  0.10703945108E+02  0.38350394148E+02  0.00000000000E+00 0. -1.
</event>
<event>
 4    1  0.5465458E+003  0.2615465E+02  0.7546771E-02  0.1456290E+00
          2   -1    0    0  501    0  0.00000000000E+00  0.00000000000E+00  0.60421047998E+02  0.60421047998E+02  0.00000000000E+00 0.  1.
         -2   -1    0    0    0  501 -0.00000000000E+00 -0.00000000000E+00 -0.15174982237E+02  0.15174982237E+02  0.00000000000E+00 0.  1.
          2    1    1    2  502    0 -0.54238127286E+01 -0.25586092049E+02  0.41669885730E+02  0.49198020566E+02  0.00000000000E+00 0.  1.
         -2    1    1    2    0  502  0.54238127286E+01  0.25586092049E+02  0.35761800315E+01  0.26398009669E+02  0.00000000000E+00 0.  1.
</event>
<event>
 4    1  0.5465458E+003  0.2035021E+02  0.7546771E-02  0.1528748E+00
          2   -1    0    0  501    0  0.00000000000E+00  0.00000000000E+00  0.10866939541E+04  0.10866939541E+04  0.00000000000E+00 0.  1.
         -2   -1    0    0    0  501 -0.00000000000E+00 -0.00000000000E+00 -0.29746431502E+01  0.29746431502E+01  0.00000000000E+00 0.  1.
          2    1    1    2  502    0 -0.15886566601E+01 -0.20288109048E+02  0.10505978543E+04  0.10507949289E+04  0.00000000000E+00 0.  1.
         -2    1    1    2    0  502  0.15886566601E+01  0.20288109048E+02  0.33121456685E+02  0.38873668358E+02  0.00000000000E+00 0.  1.
</event>
<event>
 4    1  0.5465458E+003  0.4025925E+02  0.7546771E-02  0.1346973E+00
          2   -1    0    0  501    0  0.00000000000E+00  0.00000000000E+00  0.46954623064E+03  0.46954623064E+03  0.00000000000E+00 0.  1.
         -2   -1    0    0    0  501 -0.00000000000E+00 -0.00000000000E+00 -0.15023807725E+02  0.15023807725E+02  0.00000000000E+00 0.  1.
          2    1    1    2  502    0  0.30322576865E+02  0.26482990873E+02  0.43989868336E+03  0.44173709273E+03  0.00000000000E+00 0.  1.
         -2    1    1    2    0  502 -0.30322576865E+02 -0.26482990873E+02  0.14623739559E+02  0.42832945638E+02  0.00000000000E+00 0.  1.
</event>
<event>
 4    1  0.5465458E+003  0.2201433E+02  0.7546771E-02  0.1505261E+00
          2   -1    0    0  501    0  0.00000000000E+00  0.00000000000E+00  0.61031391230E+03  0.61031391230E+03  0.00000000000E+00 0.  1.
         -2   -1    0    0    0  501 -0.00000000000E+00 -0.00000000000E+00 -0.65652398915E+01  0.65652398915E+01  0.00000000000E+00 0. -1.
          2    1    1    2  502    0 -0.18046372907E+02  0.12607897631E+02  0.59106003255E+03  0.59146985784E+03  0.00000000000E+00 0.  1.
         -2    1    1    2    0  502  0.18046372907E+02 -0.12607897631E+02  0.12688639854E+02  0.25409294345E+02  0.00000000000E+00 0. -1.
</event>
<event>
 4    1  0.5465458E+003  0.2078944E+02  0.7546771E-02  0.1522292E+00
          2   -1    0    0  501    0  0.00000000000E+00  0.00000000000E+00  0.45722731264E+02  0.45722731264E+02  0.00000000000E+00 0. -1.
         -2   -1    0    0    0  501 -0.00000000000E+00 -0.00000000000E+00 -0.95800897412E+01  0.95800897412E+01  0.00000000000E+00 0. -1.
          2    1    1    2  502    0 -0.19119773052E+02  0.81630318738E+01  0.21260589237E+02  0.29735727092E+02  0.00000000000E+00 0. -1.
         -2    1    1    2    0  502  0.19119773052E+02 -0.81630318738E+01  0.14882052286E+02  0.25567093913E+02  0.00000000000E+00 0. -1.
</event>
<event>
 4    1  0.5465458E+003  0.3745513E+02  0.7546771E-02  0.1364080E+00
          2   -1    0    0  501    0  0.00000000000E+00  0.00000000000E+00  0.64047966821E+03  0.64047966821E+03  0.00000000000E+00 0. -1.
         -2   -1    0    0    0  501 -0.00000000000E+00 -0.00000000000E+00 -0.42575060003E+02  0.42575060003E+02  0.00000000000E+00 0. -1.
          2    1    1    2  502    0  0.36080386693E+02  0.10054485955E+02  0.63157834954E+03  0.63268799467E+03  0.00000000000E+00 0. -1.
         -2    1    1    2    0  502 -0.36080386693E+02 -0.10054485955E+02 -0.33673741338E+02  0.50366733539E+02  0.00000000000E+00 0. -1.
</event>
<event>
 4    1  0.5465458E+003  0.2179455E+02  0.7546771E-02  0.1508216E+00
          2   -1    0    0  501    0  0.00000000000E+00  0.00000000000E+00  0.67541353273E+03  0.67541353273E+03  0.00000000000E+00 0. -1.
         -2   -1    0    0    0  501 -0.00000000000E+00 -0.00000000000E+00 -0.30061084916E+02  0.30061084916E+02  0.00000000000E+00 0.  1.
          2    1    1    2  502    0 -0.35784365819E+01  0.21498770271E+02  0.67126298528E+03  0.67161670448E+03  0.00000000000E+00 0. -1.
         -2    1    1    2    0  502  0.35784365819E+01 -0.21498770271E+02 -0.25910537471E+02  0.33857913160E+02  0.00000000000E+00 0.  1.
</event>
<event>
 4    1  0.5465458E+003  0.2077829E+02  0.7546771E-02  0.1522454E+00
          2   -1    0    0  501    0  0.00000000000E+00  0.00000000000E+00  0.36527841440E+03  0.36527841440E+03  0.00000000000E+00 0. -1.
         -2   -1    0    0    0  501 -0.00000000000E+00 -0.00000000000E+00 -0.14084963995E+01  0.14084963995E+01  0.00000000000E+00 0. -1.
          2    1    1    2  502    0  0.12314009717E+02  0.16736260554E+02  0.25546680846E+03  0.25631041235E+03  0.00000000000E+00 0. -1.
         -2    1    1    2    0  502 -0.12314009717E+02 -0.16736260554E+02  0.10840310954E+03  0.11037649845E+03  0.00000000000E+00 0. -1.
</event>
<event>
 4    1  0.5465458E+003  0.2017875E+02  0.7546771E-02  0.1531321E+00
          2   -1    0    0  501    0  0.00000000000E+00  0.00000000000E+00  0.11739746206E+03  0.11739746206E+03  0.00000000000E+00 0.  1.
         -2   -1    0    0    0  501 -0.00000000000E+00 -0.00000000000E+00 -0.17397365661E+03  0.17397365661E+03  0.00000000000E+00 0.  1.
          2    1    1    2  502    0 -0.17726950880E+02 -0.96404008096E+01  0.11593792901E+03  0.11768086292E+03  0.00000000000E+00 0.  1.
         -2    1    1    2    0  502  0.17726950880E+02  0.96404008096E+01 -0.17251412356E+03  0.17369025575E+03  0.00000000000E+00 0.  1.
</event>
<event>
 4    1  0.5465458E+003  0.2112249E+02  0.7546771E-02  0.1517523E+00
          2   -1    0    0  501    0  0.00000000000E+00  0.00000000000E+00  0.79146628588E+02  0.79146628588E+02  0.00000000000E+00 0. -1.
         -2   -1    0    0    0  501 -0.00000000000E+00 -0.00000000000E+00 -0.56627076425E+01  0.56627076425E+01  0.00000000000E+00 0.  1.
          2    1    1    2  502    0 -0.15050881032E+02 -0.14819933876E+02  0.39592138707E+02  0.44874234337E+02  0.00000000000E+00 0. -1.
         -2    1    1    2    0  502  0.15050881032E+02  0.14819933876E+02  0.33891782238E+02  0.39935101893E+02  0.00000000000E+00 0.  1.
</event>
<event>
 4    1  0.5465458E+003  0.2015037E+02  0.7546771E-02  0.1531749E+00
          2   -1    0    0  501    0  0.00000000000E+00  0.00000000000E+00  0.24141155451E+03  0.24141155451E+03  0.00000000000E+00 0. -1.
         -2   -1    0    0    0  501 -0.00000000000E+00 -0.00000000000E+00 -0.10312988799E+03  0.10312988799E+03  0.00000000000E+00 0.  1.
          2    1    1    2  502    0  0.12491525982E+01 -0.20111616606E+02  0.24000101041E+03  0.24084543280E+03  0.00000000000E+00 0. -1.
         -2    1    1    2    0  502 -0.12491525982E+01  0.20111616606E+02 -0.10171934389E+03  0.10369600969E+03  0.00000000000E+00 0.  1.
</event>
<event>
 4    1  0.5465458E+003  0.2217940E+02  0.7546771E-02  0.1503068E+00
          2   -1    0    0  501    0  0.00000000000E+00  0.00000000000E+00  0.40615515131E+02  0.40615515131E+02  0.00000000000E+00 0. -1.
         -2   -1    0    0    0  501 -0.00000000000E+00 -0.00000000000E+00 -0.11658298252E+03  0.11658298252E+03  0.00000000000E+00 0.  1.
          2    1    1    2  502    0  0.17184895583E+02  0.14021592679E+02  0.36420754978E+02  0.42642667489E+02  0.00000000000E+00 0. -1.
         -2    1    1    2    0  502 -0.17184895583E+02 -0.14021592679E+02 -0.11238822237E+03  0.11455583016E+03  0.00000000000E+00 0.  1.
</event>
<event>
 4    1  0.5465458E+003  0.2159466E+02  0.7546771E-02  0.1510941E+00
          2   -1    0    0  501    0  0.00000000000E+00  0.00000000000E+00  0.10406857982E+02  0.10406857982E+02  0.00000000000E+00 0.  1.
         -2   -1    0    0    0  501 -0.00000000000E+00 -0.00000000000E+00 -0.53900900152E+02  0.53900900152E+02  0.00000000000E+00 0.  1.
          2    1    1    2  502    0  0.21409058411E+02 -0.28251733623E+01 -0.85418748561E+01  0.23222683149E+02  0.00000000000E+00 0.  1.
         -2    1    1    2    0  502 -0.21409058411E+02  0.28251733623E+01 -0.34952167315E+02  0.41085074985E+02  0.00000000000E+00 0.  1.
</event>
<event>
 4    1  0.5465458E+003  0.4824656E+02  0.7546771E-02  0.1305959E+00
          2   -1    0    0  501    0  0.00000000000E+00  0.00000000000E+00  0.23774620397E+04  0.23774620397E+04  0.00000000000E+00 0. -1.
         -2   -1    0    0    0  501 -0.00000000000E+00 -0.00000000000E+00 -0.13763177870E+02  0.13763177870E+02  0.00000000000E+00 0.  1.
          2    1    1    2  502    0 -0.20154797441E+02 -0.43835083927E+02  0.23341509474E+04  0.23346495189E+04  0.00000000000E+00 0. -1.
         -2    1    1    2    0  502  0.20154797441E+02  0.43835083927E+02  0.29547914428E+02  0.56575698757E+02  0.00000000000E+00 0.  1.
</event>
<event>
 4    1  0.5465458E+003  0.4045797E+02  0.7546771E-02  0.1345823E+00
          2   -1    0    0  501    0  0.00000000000E+00  0.00000000000E+00  0.59381274859E+03  0.59381274859E+03  0.00000000000E+00 0. -1.
         -2   -1    0    0    0  501 -0.00000000000E+00 -0.00000000000E+00 -0.62904057836E+01  0.62904057836E+01  0.00000000000E+00 0. -1.
          2    1    1    2  502    0 -0.26267242422E+02 -0.30771403762E+02  0.51865824817E+03  0.52023381830E+03  0.00000000000E+00 0. -1.
         -2    1    1    2    0  502  0.26267242422E+02  0.30771403762E+02  0.68864094637E+02  0.79869336069E+02  0.00000000000E+00 0. -1.
</event>
<event>
 4    1  0.5465458E+003  0.2821453E+02  0.7546771E-02  0.1435775E+00
          2   -1    0    0  501    0  0.00000000000E+00  0.00000000000E+00  0.80878670402E+03  0.80878670402E+03  0.00000000000E+00 0. -1.
         -2   -1    0    0    0  501 -0.00000000000E+00 -0.00000000000E+00 -0.16777284640E+02  0.16777284640E+02  0.00000000000E+00 0.  1.
          2    1    1    2  502    0 -0.28146904250E+02  0.19523421388E+01  0.79649547493E+03  0.79699504480E+03  0.00000000000E+00 0. -1.
         -2    1    1    2    0  502  0.28146904250E+02 -0.19523421388E+01 -0.44860555494E+01  0.28568943856E+02  0.00000000000E+00 0.  1.
</event>
<event>
 4    1  0.5465458E+003  0.2958800E+02  0.7546771E-02  0.1423211E+00
          2   -1    0    0  501    0  0.00000000000E+00  0.00000000000E+00  0.20495837426E+04  0.20495837426E+04  0.00000000000E+00 0.  1.
         -2   -1    0    0    0  501 -0.00000000000E+00 -0.00000000000E+00 -0.29084438899E+01  0.29084438899E+01  0.00000000000E+00 0. -1.
          2    1    1    2  502    0 -0.14771130096E+02 -0.25637155201E+02  0.19712355088E+04  0.19714575524E+04  0.00000000000E+00 0.  1.
         -2    1    1    2    0  502  0.14771130096E+02  0.25637155201E+02  0.75439789997E+02  0.81034634113E+02  0.00000000000E+00 0. -1.
</event>
<event>
 4    1  0.5465458E+003  0.2284220E+02  0.7546771E-02  0.1494489E+00
          2   -1    0    0  501    0  0.00000000000E+00  0.00000000000E+00  0.19910167524E+03  0.19910167524E+03  0.00000000000E+00 0.  1.
         -2   -1    0    0    0  501 -0.00000000000E+00 -0.00000000000E+00 -0.80727410145E+03  0.80727410145E+03  0.00000000000E+00 0. -1.
          2    1    1    2  502    0 -0.21816637096E+02 -0.67676106296E+01  0.19828427815E+03  0.19959564417E+03  0.00000000000E+00 0.  1.
         -2    1    1    2    0  502  0.21816637096E+02  0.67676106296E+01 -0.80645670436E+03  0.80678013251E+03  0.00000000000E+00 0. -1.
</event>
<event>
 4    1  0.5465458E+003  0.3810226E+02  0.7546771E-02  0.1359980E+00
          2   -1    0    0  501    0  0.00000000000E+00  0.00000000000E+00  0.37740090986E+03  0.37740090986E+03  0.00000000000E+00 0. -1.
         -2   -1    0    0    0  501 -0.00000000000E+00 -0.00000000000E+00 -0.88042047785E+02  0.88042047785E+02  0.00000000000E+00 0. -1.
          2    1    1    2  502    0  0.37606022817E+02 -0.61293973941E+01  0.37226001786E+03  0.37420489489E+03  0.00000000000E+00 0. -1.
         -2    1    1    2    0  502 -0.37606022817E+02  0.61293973941E+01 -0.82901155785E+02  0.91238062753E+02  0.00000000000E+00 0. -1.
</event>
<event>
 4    1  0.5465458E+003  0.2107528E+02  0.7546771E-02  0.1518193E+00
          2   -1    0    0  501    0  0.00000000000E+00  0.00000000000E+00  0.41172764015E+02  0.41172764015E+02  0.00000000000E+00 0. -1.
         -2   -1    0    0    0  501 -0.00000000000E+00 -0.00000000000E+00 -0.15093538755E+02  0.15093538755E+02  0.00000000000E+00 0.  1.
          2    1    1    2  502    0  0.18347081263E+02  0.10370727198E+02  0.28065564483E+02  0.35097625037E+02  0.00000000000E+00 0. -1.
         -2    1    1    2    0  502 -0.18347081263E+02 -0.10370727198E+02 -0.19863392227E+01  0.21168677734E+02  0.00000000000E+00 0.  1.
</event>
<event>
 4    1  0.5465458E+003  0.2039264E+02  0.7546771E-02  0.1528116E+00
          2   -1    0    0  501    0  0.00000000000E+00  0.00000000000E+00  0.14456274637E+02  0.14456274637E+02  0.00000000000E+00 0. -1.
         -2   -1    0    0    0  501 -0.00000000000E+00 -0.00000000000E+00 -0.12445225348E+03  0.12445225348E+03  0.00000000000E+00 0.  1.
          2    1    1    2  502    0 -0.92430507657E+01  0.18177620204E+02  0.59024788582E+01  0.21229675467E+02  0.00000000000E+00 0. -1.
         -2    1    1    2    0  502  0.92430507657E+01 -0.18177620204E+02 -0.11589845770E+03  0.11767885265E+03  0.00000000000E+00 0.  1.
</event>
<event>
 4    1  0.5465458E+003  0.3653627E+02  0.7546771E-02  0.1370073E+00
          2   -1    0    0  501    0  0.00000000000E+00  0.00000000000E+00  0.32533886959E+03  0.32533886959E+03  0.00000000000E+00 0. -1.
         -2   -1    0    0    0  501 -0.00000000000E+00 -0.00000000000E+00 -0.56697929150E+01  0.56697929150E+01  0.00000000000E+00 0. -1.
          2    1    1    2  502    0  0.12325674866E+02  0.34394433971E+02  0.24683410600E+03  0.24952349636E+03  0.00000000000E+00 0. -1.
         -2    1    1    2    0  502 -0.12325674866E+02 -0.34394433971E+02  0.72834970679E+02  0.81485166152E+02  0.00000000000E+00 0. -1.
</event>
<event>
 4    1  0.5465458E+003  0.2355149E+02  0.7546771E-02  0.1485687E+00
          2   -1    0    0  501    0  0.00000000000E+00  0.00000000000E+00  0.10374832189E+03  0.10374832189E+03  0.00000000000E+00 0.  1.
         -2   -1    0    0    0  501 -0.00000000000E+00 -0.00000000000E+00 -0.54131001146E+01  0.54131001146E+01  0.00000000000E+00 0. -1.
          2    1    1    2  502    0  0.20220095436E+02 -0.12075586913E+02  0.43105423155E+02  0.49119747191E+02  0.00000000000E+00 0.  1.
         -2    1    1    2    0  502 -0.20220095436E+02  0.12075586913E+02  0.55229798617E+02  0.60041674810E+02  0.00000000000E+00 0. -1.
</event>
<event>
 4    1  0.5465458E+003  0.4118946E+02  0.7546771E-02  0.1341653E+00
          2   -1    0    0  501    0  0.00000000000E+00  0.00000000000E+00  0.17818122472E+03  0.17818122472E+03  0.00000000000E+00 0.  1.
         -2   -1    0    0    0  501 -0.00000000000E+00 -0.00000000000E+00 -0.16427982112E+02  0.16427982112E+02  0.00000000000E+00 0. -1.
          2    1    1    2  502    0 -0.16503224704E+02 -0.37738776944E+02  0.14396746535E+03  0.14974379049E+03  0.00000000000E+00 0.  1.
         -2    1    1    2    0  502  0.16503224704E+02  0.37738776944E+02  0.17785777256E+02  0.44865416341E+02  0.00000000000E+00 0. -1.
</event>
<event>
 4    1  0.5465458E+003  0.2733837E+02  0.7546771E-02  0.1444238E+00
          2   -1    0    0  501    0  0.00000000000E+00  0.00000000000E+00  0.18689826636E+03  0.18689826636E+03  0.00000000000E+00 0. -1.
         -2   -1    0    0    0  501 -0.00000000000E+00 -0.00000000000E+00 -0.19094375625E+03  0.19094375625E+03  0.00000000000E+00 0. -1.
          2    1    1    2  502    0 -0.12712819323E+02  0.24202697262E+02  0.18490953288E+03  0.18691955939E+03  0.00000000000E+00 0. -1.
         -2    1    1    2    0  502  0.12712819323E+02 -0.24202697262E+02 -0.18895502278E+03  0.19092246322E+03  0.00000000000E+00 0. -1.
</event>
<event>
 4    1  0.5465458E+003  0.3158953E+02  0.7546771E-02  0.1406269E+00
          2   -1    0    0  501    0  0.00000000000E+00  0.00000000000E+00  0.36092587234E+03  0.36092587234E+03  0.00000000000E+00 0.  1.
         -2   -1    0    0    0  501 -0.00000000000E+00 -0.00000000000E+00 -0.12329553502E+03  0.12329553502E+03  0.00000000000E+00 0. -1.
          2    1    1    2  502    0  0.24767691054E+02 -0.19607644793E+02  0.35819588694E+03  0.35958613944E+03  0.00000000000E+00 0.  1.
         -2    1    1    2    0  502 -0.24767691054E+02  0.19607644793E+02 -0.12056554962E+03  0.12463526793E+03  0.00000000000E+00 0. -1.
</event>
<event>
 4    1  0.5465458E+003  0.2009358E+02  0.7546771E-02  0.1532610E+00
          2   -1    0    0  501    0  0.00000000000E+00  0.00000000000E+00  0.14661724104E+04  0.14661724104E+04  0.00000000000E+00 0. -1.
         -2   -1    0    0    0  501 -0.00000000000E+00 -0.00000000000E+00 -0.42842170953E+00  0.42842170953E+00  0.00000000000E+00 0.  1.
          2    1    1    2  502    0 -0.19760723655E+02 -0.36421965252E+01  0.11711541358E+04  0.11713264966E+04  0.00000000000E+00 0. -1.
         -2    1    1    2    0  502  0.19760723655E+02  0.36421965252E+01  0.29458985291E+03  0.29527433555E+03  0.00000000000E+00 0.  1.
</event>
<event>
 4    1  0.5465458E+003  0.2244855E+02  0.7546771E-02  0.1499541E+00
          2   -1    0    0  501    0  0.00000000000E+00  0.00000000000E+00  0.11293961620E+03  0.11293961620E+03  0.00000000000E+00 0.  1.
         -2   -1    0    0    0  501 -0.00000000000E+00 -0.00000000000E+00 -0.49010540992E+01  0.49010540992E+01  0.00000000000E+00 0. -1.
          2    1    1    2  502    0  0.40463150540E+01 -0.22080853955E+02  0.36384155275E+02  0.42752117281E+02  0.00000000000E+00 0.  1.
         -2    1    1    2    0  502 -0.40463150540E+01  0.22080853955E+02  0.71654406828E+02  0.75088553021E+02  0.00000000000E+00 0. -1.
</event>
<event>
 4    1  0.5465458E+003  0.3015734E+02  0.7546771E-02  0.1418234E+00
          2   -1    0    0  501    0  0.00000000000E+00  0.00000000000E+00  0.11488731306E+04  0.11488731306E+04  0.00000000000E+00 0. -1.
         -2   -1    0    0    0  501 -0.00000000000E+00 -0.00000000000E+00 -0.15007480820E+01  0.15007480820E+01  0.00000000000E+00 0.  1.
          2    1    1    2  502    0  0.27438009694E+02 -0.12514831335E+02  0.96907005749E+03  0.96953919039E+03  0.00000000000E+00 0. -1.
         -2    1    1    2    0  502 -0.27438009694E+02  0.12514831335E+02  0.17830232507E+03  0.18083468833E+03  0.00000000000E+00 0.  1.
</event>
<event>
 4    1  0.5465458E+003  0.2048422E+02  0.7546771E-02  0.1526758E+00
          2   -1    0    0  501    0  0.00000000000E+00  0.00000000000E+00  0.13859008432E+04  0.13859008432E+04  0.00000000000E+00 0.  1.
         -2   -1    0    0    0  501 -0.00000000000E+00 -0.00000000000E+00 -0.67168304234E+00  0.67168304234E+00  0.00000000000E+00 0.  1.
          2    1    1    2  502    0  0.19899651913E+02 -0.48587234070E+01  0.12064155220E+04  0.12065894145E+04  0.00000000000E+00 0.  1.
         -2    1    1    2    0  502 -0.19899651913E+02  0.48587234070E+01  0.17881363815E+03  0.17998311179E+03  0.00000000000E+00 0.  1.
</event>
<event>
 4    1  0.5465458E+003  0.3972376E+02  0.7546771E-02  0.1350112E+00
          2   -1    0    0  501    0  0.00000000000E+00  0.00000000000E+00  0.24877827903E+03  0.24877827903E+03  0.00000000000E+00 0.  1.
         -2   -1    0    0    0  501 -0.00000000000E+00 -0.00000000000E+00 -0.10200737370E+03  0.10200737370E+03  0.00000000000E+00 0. -1.
          2    1    1    2  502    0 -0.14012612097E+02 -0.37170203956E+02  0.24323772916E+03  0.24646007840E+03  0.00000000000E+00 0.  1.
         -2    1    1    2    0  502  0.14012612097E+02  0.37170203956E+02 -0.96466823823E+02  0.10432557433E+03  0.00000000000E+00 0. -1.
</event>
<event>
 4    1  0.5465458E+003  0.2635539E+02  0.7546771E-02  0.1454193E+00
          2   -1    0    0  501    0  0.00000000000E+00  0.00000000000E+00  0.73617166407E+02  0.73617166407E+02  0.00000000000E+00 0. -1.
         -2   -1    0    0    0  501 -0.00000000000E+00 -0.00000000000E+00 -0.19484105529E+02  0.19484105529E+02  0.00000000000E+00 0. -1.
          2    1    1    2  502    0 -0.24308680922E+02 -0.10183055993E+02  0.60496861772E+02  0.65988460217E+02  0.00000000000E+00 0. -1.
         -2    1    1    2    0  502  0.24308680922E+02  0.10183055993E+02 -0.63638008933E+01  0.27112811719E+02  0.00000000000E+00 0. -1.
</event>
<event>
 4    1  0.6448218E+003  0.2268441E+02  0.7546771E-02  0.1496500E+00
          2   -1    0    0  501    0  0.00000000000E+00  0.00000000000E+00  0.11887083271E+04  0.11887083271E+04  0.00000000000E+00 0.  1.
         -2   -1    0    0    0  501 -0.00000000000E+00 -0.00000000000E+00 -0.22977728826E+03  0.22977728826E+03  0.00000000000E+00 0.  1.
          2    1    1    2  502    0 -0.22658129618E+02  0.10915757595E+01  0.11880399183E+04  0.11882564664E+04  0.00000000000E+00 0.  1.
         -2    1    1    2    0  502  0.22658129618E+02 -0.10915757595E+01 -0.22910887949E+03  0.23022914897E+03  0.00000000000E+00 0.  1.
</event>
<event>
 4    1  0.5465458E+003  0.6759548E+02  0.7546771E-02  0.1236002E+00
          2   -1    0    0  501    0  0.00000000000E+00  0.00000000000E+00  0.14209587712E+04  0.14209587712E+04  0.00000000000E+00 0. -1.
         -2   -1    0    0    0  501 -0.00000000000E+00 -0.00000000000E+00 -0.73594863344E+01  0.73594863344E+01  0.00000000000E+00 0.  1.
          2    1    1    2  502    0 -0.25795994701E+02 -0.62479724147E+02  0.12426929332E+04  0.12445299818E+04  0.00000000000E+00 0. -1.
         -2    1    1    2    0  502  0.25795994701E+02  0.62479724147E+02  0.17090635163E+03  0.18378827574E+03  0.00000000000E+00 0.  1.
</event>
<event>
 4    1  0.5465458E+003  0.3607622E+02  0.7546771E-02  0.1373151E+00
          2   -1    0    0  501    0  0.00000000000E+00  0.00000000000E+00  0.19301273145E+02  0.19301273145E+02  0.00000000000E+00 0. -1.
         -2   -1    0    0    0  501 -0.00000000000E+00 -0.00000000000E+00 -0.13346921914E+03  0.13346921914E+03  0.00000000000E+00 0. -1.
          2    1    1    2  502    0 -0.31289701633E+02 -0.17956843293E+02 -0.33537815568E+01  0.36231774730E+02  0.00000000000E+00 0. -1.
         -2    1    1    2    0  502  0.31289701633E+02  0.17956843293E+02 -0.11081416444E+03  0.11653871755E+03  0.00000000000E+00 0. -1.
</event>
<event>
 4    1  0.5465458E+003  0.2535602E+02  0.7546771E-02  0.1464860E+00
          2   -1    0    0  501    0  0.00000000000E+00  0.00000000000E+00  0.20991615287E+02  0.20991615287E+02  0.00000000000E+00 0. -1.
         -2   -1    0    0    0  501 -0.00000000000E+00 -0.00000000000E+00 -0.62419497749E+02  0.62419497749E+02  0.00000000000E+00 0.  1.
          2    1    1    2  502    0 -0.11689544627E+02 -0.22500713476E+02  0.90500016325E+01  0.26922668702E+02  0.00000000000E+00 0. -1.
         -2    1    1    2    0  502  0.11689544627E+02  0.22500713476E+02 -0.50477884095E+02  0.56488444334E+02  0.00000000000E+00 0.  1.
</event>
<event>
 4    1  0.5465458E+003  0.2246259E+02  0.7546771E-02  0.1499359E+00
          2   -1    0    0  501    0  0.00000000000E+00  0.00000000000E+00  0.25728635031E+03  0.25728635031E+03  0.00000000000E+00 0. -1.
         -2   -1    0    0    0  501 -0.00000000000E+00 -0.00000000000E+00 -0.28208467429E+03  0.28208467429E+03  0.00000000000E+00 0.  1.
          2    1    1    2  502    0 -0.21559987706E+02 -0.63035590950E+01  0.25634725899E+03  0.25732952633E+03  0.00000000000E+00 0. -1.
         -2    1    1    2    0  502  0.21559987706E+02  0.63035590950E+01 -0.28114558297E+03  0.28204149828E+03  0.00000000000E+00 0.  1.
</event>
<event>
 4    1  0.5465458E+003  0.2734574E+02  0.7546771E-02  0.1444166E+00
          2   -1    0    0  501    0  0.00000000000E+00  0.00000000000E+00  0.72698971402E+01  0.72698971402E+01  0.00000000000E+00 0. -1.
         -2   -1    0    0    0  501 -0.00000000000E+00 -0.00000000000E+00 -0.14928220237E+03  0.14928220237E+03  0.00000000000E+00 0.  1.
          2    1    1    2  502    0 -0.27857192596E+01  0.27203473991E+02 -0.27356292319E+02  0.38680175264E+02  0.00000000000E+00 0. -1.
         -2    1    1    2    0  502  0.27857192596E+01 -0.27203473991E+02 -0.11465601291E+03  0.11787192424E+03  0.00000000000E+00 0.  1.
</event>
<event>
 4    1  0.5465458E+003  0.2787827E+02  0.7546771E-02  0.1438980E+00
          2   -1    0    0  501    0  0.00000000000E+00  0.00000000000E+00  0.66541292070E+03  0.66541292070E+03  0.00000000000E+00 0. -1.
         -2   -1    0    0    0  501 -0.00000000000E+00 -0.00000000000E+00 -0.25288848143E+02  0.25288848143E+02  0.00000000000E+00 0.  1.
          2    1    1    2  502    0  0.27208985854E+02 -0.60720056270E+01  0.65734343588E+03  0.65793433628E+03  0.00000000000E+00 0. -1.
         -2    1    1    2    0  502 -0.27208985854E+02  0.60720056270E+01 -0.17219363322E+02  0.32767432563E+02  0.00000000000E+00 0.  1.
</event>
<event>
 4    1  0.5465458E+003  0.3645402E+02  0.7546771E-02  0.1370619E+00
          2   -1    0    0  501    0  0.00000000000E+00  0.00000000000E+00  0.27874295692E+03  0.27874295692E+03  0.00000000000E+00 0.  1.
         -2   -1    0    0    0  501 -0.00000000000E+00 -0.00000000000E+00 -0.50884791729E+01  0.50884791729E+01  0.00000000000E+00 0.  1.
          2    1    1    2  502    0  0.29009165646E+02  0.22076325073E+02  0.17247253043E+03  0.17628292479E+03  0.00000000000E+00 0.  1.
         -2    1    1    2    0  502 -0.29009165646E+02 -0.22076325073E+02  0.10118194732E+03  0.10754851130E+03  0.00000000000E+00 0.  1.
</event>
<event>
 4    1  0.5465458E+003  0.2664523E+02  0.7546771E-02  0.1451205E+00
          2   -1    0    0  501    0  0.00000000000E+00  0.00000000000E+00  0.18944467657E+02  0.18944467657E+02  0.00000000000E+00 0.  1.
         -2   -1    0    0    0  501 -0.00000000000E+00 -0.00000000000E+00 -0.92402621378E+03  0.92402621378E+03  0.00000000000E+00 0.  1.
          2    1    1    2  502    0 -0.64331383819E+01 -0.25856973474E+02  0.92843482073E+01  0.28216439682E+02  0.00000000000E+00 0.  1.
         -2    1    1    2    0  502  0.64331383819E+01  0.25856973474E+02 -0.91436609433E+03  0.91475424176E+03  0.00000000000E+00 0.  1.
</event>
<event>
 4    1  0.5465458E+003  0.2850836E+02  0.7546771E-02  0.1433018E+00
          2   -1    0    0  501    0  0.00000000000E+00  0.00000000000E+00  0.35444613433E+03  0.35444613433E+03  0.00000000000E+00 0.  1.
         -2   -1    0    0    0  501 -0.00000000000E+00 -0.00000000000E+00 -0.52217898732E+01  0.52217898732E+01  0.00000000000E+00 0. -1.
          2    1    1    2  502    0 -0.68135523144E+01  0.27682165682E+02  0.30929428785E+03  0.31060534975E+03  0.00000000000E+00 0.  1.
         -2    1    1    2    0  502  0.68135523144E+01 -0.27682165682E+02  0.39930056602E+02  0.49062574456E+02  0.00000000000E+00 0. -1.
</event>
<event>
 4    1  0.5465458E+003  0.2557363E+02  0.7546771E-02  0.1462487E+00
          2   -1    0    0  501    0  0.00000000000E+00  0.00000000000E+00  0.29352244364E+02  0.29352244364E+02  0.00000000000E+00 0. -1.
         -2   -1    0    0    0  501 -0.00000000000E+00 -0.00000000000E+00 -0.70035035943E+02  0.70035035943E+02  0.00000000000E+00 0. -1.
          2    1    1    2  502    0 -0.14200081426E+02  0.21268946004E+02  0.20692821780E+02  0.32896857750E+02  0.00000000000E+00 0. -1.
         -2    1    1    2    0  502  0.14200081426E+02 -0.21268946004E+02 -0.61375613359E+02  0.66490422557E+02  0.00000000000E+00 0. -1.
</event>
<event>
 4    1  0.5465458E+003  0.2713288E+02  0.7546771E-02  0.1446278E+00
          2   -1    0    0  501    0  0.00000000000E+00  0.00000000000E+00  0.17694320213E+02  0.17694320213E+02  0.00000000000E+00 0. -1.
         -2   -1    0    0    0  501 -0.00000000000E+00 -0.00000000000E+00 -0.79647985172E+02  0.79647985172E+02  0.00000000000E+00 0.  1.
          2    1    1    2  502    0  0.43579759477E+01 -0.26780613785E+02  0.26599729145E+01  0.27262954443E+02  0.00000000000E+00 0. -1.
         -2    1    1    2    0  502 -0.43579759477E+01  0.26780613785E+02 -0.64613637874E+02  0.70079350941E+02  0.00000000000E+00 0.  1.
</event>
<event>
 4    1  0.5465458E+003  0.2022178E+02  0.7546771E-02  0.1530672E+00
          2   -1    0    0  501    0  0.00000000000E+00  0.00000000000E+00  0.60663539728E+03  0.60663539728E+03  0.00000000000E+00 0. -1.
         -2   -1    0    0    0  501 -0.00000000000E+00 -0.00000000000E+00 -0.35279327965E+02  0.35279327965E+02  0.00000000000E+00 0. -1.
          2    1    1    2  502    0  0.17775814445E+02  0.96405887285E+01  0.60355435440E+03  0.60389301970E+03  0.00000000000E+00 0. -1.
         -2    1    1    2    0  502 -0.17775814445E+02 -0.96405887285E+01 -0.32198285083E+02  0.38021705545E+02  0.00000000000E+00 0. -1.
</event>
<event>
 4    1  0.5465458E+003  0.2655640E+02  0.7546771E-02  0.1452116E+00
          2   -1    0    0  501    0  0.00000000000E+00  0.00000000000E+00  0.17591441795E+04  0.17591441795E+04  0.00000000000E+00 0.  1.
         -2   -1    0    0    0  501 -0.00000000000E+00 -0.00000000000E+00 -0.10670203586E+03  0.10670203586E+03  0.00000000000E+00 0. -1.
          2    1    1    2  502    0  0.23289388104E+02  0.12761139112E+02  0.17573899413E+04  0.17575905803E+04  0.00000000000E+00 0.  1.
         -2    1    1    2    0  502 -0.23289388104E+02 -0.12761139112E+02 -0.10494779769E+03  0.10825563501E+03  0.00000000000E+00 0. -1.
</event>
<event>
 4    1  0.5465458E+003  0.2430549E+02  0.7546771E-02  0.1476725E+00
          2   -1    0    0  501    0  0.00000000000E+00  0.00000000000E+00  0.20224195339E+01  0.20224195339E+01  0.00000000000E+00 0. -1.
         -2   -1    0    0    0  501 -0.00000000000E+00 -0.00000000000E+00 -0.35278077246E+03  0.35278077246E+03  0.00000000000E+00 0. -1.
          2    1    1    2  502    0  0.19825488106E+01  0.24224486645E+02 -0.24895198517E+03  0.25013565754E+03  0.00000000000E+00 0. -1.
         -2    1    1    2    0  502 -0.19825488106E+01 -0.24224486645E+02 -0.10180636776E+03  0.10466753446E+03  0.00000000000E+00 0. -1.
</event>
<event>
 4    1  0.5465458E+003  0.2173878E+02  0.7546771E-02  0.1508973E+00
          2   -1    0    0  501    0  0.00000000000E+00  0.00000000000E+00  0.81352848111E+03  0.81352848111E+03  0.00000000000E+00 0.  1.
         -2   -1    0    0    0  501 -0.00000000000E+00 -0.00000000000E+00 -0.17260761972E+02  0.17260761972E+02  0.00000000000E+00 0. -1.
          2    1    1    2  502    0 -0.18602503920E+02  0.11248182368E+02  0.80647879775E+03  0.80677173102E+03  0.00000000000E+00 0.  1.
         -2    1    1    2    0  502  0.18602503920E+02 -0.11248182368E+02 -0.10211078618E+02  0.24017512053E+02  0.00000000000E+00 0. -1.
</event>
<event>
 4    1  0.5465458E+003  0.2031924E+02  0.7546771E-02  0.1529210E+00
          2   -1    0    0  501    0  0.00000000000E+00  0.00000000000E+00  0.52954947343E+03  0.52954947343E+03  0.00000000000E+00 0. -1.
         -2   -1    0    0    0  501 -0.00000000000E+00 -0.00000000000E+00 -0.42697317389E+02  0.42697317389E+02  0.00000000000E+00 0.  1.
          2    1    1    2  502    0  0.14775106008E+02  0.13948761267E+02  0.52692508774E+03  0.52731671677E+03  0.00000000000E+00 0. -1.
         -2    1    1    2    0  502 -0.14775106008E+02 -0.13948761267E+02 -0.40072931701E+02  0.44930074044E+02  0.00000000000E+00 0.  1.
</event>
<event>
 4    1  0.6911263E+003  0.2523982E+02  0.7546771E-02  0.1466138E+00
          2   -1    0    0  501    0  0.00000000000E+00  0.00000000000E+00  0.15529362917E+04  0.15529362917E+04  0.00000000000E+00 0. -1.
         -2   -1    0    0    0  501 -0.00000000000E+00 -0.00000000000E+00 -0.25344270495E+03  0.25344270495E+03  0.00000000000E+00 0.  1.
          2    1    1    2  502    0 -0.19354058545E+02  0.16200895566E+02  0.15522050451E+04  0.15524102391E+04  0.00000000000E+00 0. -1.
         -2    1    1    2    0  502  0.19354058545E+02 -0.16200895566E+02 -0.25271145835E+03  0.25396875749E+03  0.00000000000E+00 0.  1.
</event>
<event>
 4    1  0.5465458E+003  0.2409904E+02  0.7546771E-02  0.1479140E+00
          2   -1    0    0  501    0  0.00000000000E+00  0.00000000000E+00  0.28100021551E+03  0.28100021551E+03  0.00000000000E+00 0. -1.
         -2   -1    0    0    0  501 -0.00000000000E+00 -0.00000000000E+00 -0.45552431418E+01  0.45552431418E+01  0.00000000000E+00 0. -1.
          2    1    1    2  502    0 -0.16056761254E+02  0.17970650550E+02  0.24375124808E+03  0.24493965544E+03  0.00000000000E+00 0. -1.
         -2    1    1    2    0  502  0.16056761254E+02 -0.17970650550E+02  0.32693724282E+02  0.40615803213E+02  0.00000000000E+00 0. -1.
</event>
<event>
 4    1  0.5465458E+003  0.2210152E+02  0.7546771E-02  0.1504099E+00
          2   -1    0    0  501    0  0.00000000000E+00  0.00000000000E+00  0.96636865207E+02  0.96636865207E+02  0.00000000000E+00 0.  1.
         -2   -1    0    0    0  501 -0.00000000000E+00 -0.00000000000E+00 -0.66597190897E+02  0.66597190897E+02  0.00000000000E+00 0. -1.
          2    1    1    2  502    0 -0.25967861325E+01  0.21948441225E+02  0.93478355135E+02  0.96055610191E+02  0.00000000000E+00 0.  1.
         -2    1    1    2    0  502  0.25967861325E+01 -0.21948441225E+02 -0.63438680825E+02  0.67178445913E+02  0.00000000000E+00 0. -1.
</event>
<event>
 4    1  0.5465458E+003  0.2207238E+02  0.7546771E-02  0.1504487E+00
          2   -1    0    0  501    0  0.00000000000E+00  0.00000000000E+00  0.80545213542E+03  0.80545213542E+03  0.00000000000E+00 0.  1.
         -2   -1    0    0    0  501 -0.00000000000E+00 -0.00000000000E+00 -0.25434219633E+01  0.25434219633E+01  0.00000000000E+00 0.  1.
          2    1    1    2  502    0 -0.20836801123E+02 -0.72813277850E+01  0.75415725058E+03  0.75448018438E+03  0.00000000000E+00 0.  1.
         -2    1    1    2    0  502  0.20836801123E+02  0.72813277850E+01  0.48751462874E+02  0.53515373004E+02  0.00000000000E+00 0.  1.
</event>
<event>
 4    1  0.5465458E+003  0.3274199E+02  0.7546771E-02  0.1397173E+00
          2   -1    0    0  501    0  0.00000000000E+00  0.00000000000E+00  0.53676036720E+03  0.53676036720E+03  0.00000000000E+00 0.  1.
         -2   -1    0    0    0  501 -0.00000000000E+00 -0.00000000000E+00 -0.55395247237E+01  0.55395247237E+01  0.00000000000E+00 0.  1.
          2    1    1    2  502    0 -0.31084532560E+02  0.10285407365E+02  0.48243832685E+03  0.48354811238E+03  0.00000000000E+00 0.  1.
         -2    1    1    2    0  502  0.31084532560E+02 -0.10285407365E+02  0.48782515626E+02  0.58751779547E+02  0.00000000000E+00 0.  1.
</event>
<event>
 4    1  0.5465458E+003  0.2113972E+02  0.7546771E-02  0.1517279E+00
          2   -1    0    0  501    0  0.00000000000E+00  0.00000000000E+00  0.10312117503E+04  0.10312117503E+04  0.00000000000E+00 0.  1.
         -2   -1    0    0    0  501 -0.00000000000E+00 -0.00000000000E+00 -0.91429532343E+01  0.91429532343E+01  0.00000000000E+00 0. -1.
          2    1    1    2  502    0 -0.12880231147E+02 -0.16762684646E+02  0.10187342980E+04  0.10189536093E+04  0.00000000000E+00 0.  1.
         -2    1    1    2    0  502  0.12880231147E+02  0.16762684646E+02  0.33344990609E+01  0.21401094246E+02  0.00000000000E+00 0. -1.
</event>
<event>
 4    1  0.5465458E+003  0.2552144E+02  0.7546771E-02  0.1463054E+00
          2   -1    0    0  501    0  0.00000000000E+00  0.00000000000E+00  0.22132020144E+04  0.22132020144E+04  0.00000000000E+00 0. -1.
         -2   -1    0    0    0  501 -0.00000000000E+00 -0.00000000000E+00 -0.42344686037E+00  0.42344686037E+00  0.00000000000E+00 0. -1.
          2    1    1    2  502    0  0.10513131881E+02 -0.23255496913E+02  0.17176374674E+04  0.17178270616E+04  0.00000000000E+00 0. -1.
         -2    1    1    2    0  502 -0.10513131881E+02  0.23255496913E+02  0.49514110014E+03  0.49579839968E+03  0.00000000000E+00 0. -1.
</event>
<event>
 4    1  0.5465458E+003  0.2002590E+02  0.7546771E-02  0.1533640E+00
          2   -1    0    0  501    0  0.00000000000E+00  0.00000000000E+00  0.44809166819E+03  0.44809166819E+03  0.00000000000E+00 0.  1.
         -2   -1    0    0    0  501 -0.00000000000E+00 -0.00000000000E+00 -0.25614797861E+02  0.25614797861E+02  0.00000000000E+00 0. -1.
          2    1    1    2  502    0 -0.46223998209E+01  0.19485124364E+02  0.44391702011E+03  0.44436849281E+03  0.00000000000E+00 0.  1.
         -2    1    1    2    0  502  0.46223998209E+01 -0.19485124364E+02 -0.21440149782E+02  0.29337973248E+02  0.00000000000E+00 0. -1.
</event>
<event>
 4    1  0.5465458E+003  0.3212522E+02  0.7546771E-02  0.1401985E+00
          2   -1    0    0  501    0  0.00000000000E+00  0.00000000000E+00  0.59513303321E+03  0.59513303321E+03  0.00000000000E+00 0. -1.
         -2   -1    0    0    0  501 -0.00000000000E+00 -0.00000000000E+00 -0.26258558505E+01  0.26258558505E+01  0.00000000000E+00 0. -1.
          2    1    1    2  502    0  0.17231665412E+02 -0.27112715780E+02  0.47042614297E+03  0.47152177642E+03  0.00000000000E+00 0. -1.
         -2    1    1    2    0  502 -0.17231665412E+02  0.27112715780E+02  0.12208103439E+03  0.12623711264E+03  0.00000000000E+00 0. -1.
</event>
<event>
 4    1  0.5465458E+003  0.1220631E+03  0.7546771E-02  0.1130270E+00
          2   -1    0    0  501    0  0.00000000000E+00  0.00000000000E+00  0.11498514216E+04  0.11498514216E+04  0.00000000000E+00 0. -1.
         -2   -1    0    0    0  501 -0.00000000000E+00 -0.00000000000E+00 -0.97321429899E+02  0.97321429899E+02  0.00000000000E+00 0. -1.
          2    1    1    2  502    0  0.12102345450E+03 -0.15896926189E+02  0.11068561174E+04  0.11135662771E+04  0.00000000000E+00 0. -1.
         -2    1    1    2    0  502 -0.12102345450E+03  0.15896926189E+02 -0.54326125689E+02  0.13360657444E+03  0.00000000000E+00 0. -1.
</event>
<event>
 4    1  0.5465458E+003  0.2335155E+02  0.7546771E-02  0.1488130E+00
          2   -1    0    0  501    0  0.00000000000E+00  0.00000000000E+00  0.31832310762E+03  0.31832310762E+03  0.00000000000E+00 0. -1.
         -2   -1    0    0    0  501 -0.00000000000E+00 -0.00000000000E+00 -0.42790450235E+02  0.42790450235E+02  0.00000000000E+00 0.  1.
          2    1    1    2  502    0  0.17197308341E+02 -0.15797078929E+02  0.31467209240E+03  0.31553735255E+03  0.00000000000E+00 0. -1.
         -2    1    1    2    0  502 -0.17197308341E+02  0.15797078929E+02 -0.39139435016E+02  0.45576205307E+02  0.00000000000E+00 0.  1.
</event>
<event>
 4    1  0.5465458E+003  0.2035849E+02  0.7546771E-02  0.1528624E+00
          2   -1    0    0  501    0  0.00000000000E+00  0.00000000000E+00  0.15229654905E+03  0.15229654905E+03  0.00000000000E+00 0.  1.
         -2   -1    0    0    0  501 -0.00000000000E+00 -0.00000000000E+00 -0.32496028999E+01  0.32496028999E+01  0.00000000000E+00 0.  1.
          2    1    1    2  502    0  0.16889160389E+02 -0.11367682189E+02  0.10587744975E+03  0.10781698523E+03  0.00000000000E+00 0.  1.
         -2    1    1    2    0  502 -0.16889160389E+02  0.11367682189E+02  0.43169496393E+02  0.47729166720E+02  0.00000000000E+00 0.  1.
</event>
<event>
 4    1  0.5465458E+003  0.2059880E+02  0.7546771E-02  0.1525071E+00
          2   -1    0    0  501    0  0.00000000000E+00  0.00000000000E+00  0.43434186107E+03  0.43434186107E+03  0.00000000000E+00 0.  1.
         -2   -1    0    0    0  501 -0.00000000000E+00 -0.00000000000E+00 -0.14257738451E+01  0.14257738451E+01  0.00000000000E+00 0. -1.
          2    1    1    2  502    0  0.20104435310E+02  0.44857634731E+01  0.33871111175E+03  0.33933689398E+03  0.00000000000E+00 0.  1.
         -2    1    1    2    0  502 -0.20104435310E+02 -0.44857634731E+01  0.94204975475E+02  0.96430740935E+02  0.00000000000E+00 0. -1.
</event>
<event>
 4    1  0.5465458E+003  0.2150448E+02  0.7546771E-02  0.1512183E+00
          2   -1    0    0  501    0  0.00000000000E+00  0.00000000000E+00  0.13268579539E+03  0.13268579539E+03  0.00000000000E+00 0. -1.
         -2   -1    0    0    0  501 -0.00000000000E+00 -0.00000000000E+00 -0.27462224557E+03  0.27462224557E+03  0.00000000000E+00 0.  1.
          2    1    1    2  502    0 -0.16254608343E+02  0.14079427753E+02  0.13138937701E+03  0.13313756408E+03  0.00000000000E+00 0. -1.
         -2    1    1    2    0  502  0.16254608343E+02 -0.14079427753E+02 -0.27332582719E+03  0.27417047687E+03  0.00000000000E+00 0.  1.
</event>
<event>
 4    1  0.5465458E+003  0.2124905E+02  0.7546771E-02  0.1515739E+00
          2   -1    0    0  501    0  0.00000000000E+00  0.00000000000E+00  0.24771830641E+03  0.24771830641E+03  0.00000000000E+00 0. -1.
         -2   -1    0    0    0  501 -0.00000000000E+00 -0.00000000000E+00 -0.82840932666E+01  0.82840932666E+01  0.00000000000E+00 0.  1.
          2    1    1    2  502    0  0.19324847462E+02 -0.88358703385E+01  0.23276274219E+03  0.23373064944E+03  0.00000000000E+00 0. -1.
         -2    1    1    2    0  502 -0.19324847462E+02  0.88358703385E+01  0.66714709520E+01  0.22271750239E+02  0.00000000000E+00 0.  1.
</event>
<event>
 4    1  0.5465458E+003  0.2141949E+02  0.7546771E-02  0.1513359E+00
          2   -1    0    0  501    0  0.00000000000E+00  0.00000000000E+00  0.27035545226E+02  0.27035545226E+02  0.00000000000E+00 0.  1.
         -2   -1    0    0    0  501 -0.00000000000E+00 -0.00000000000E+00 -0.28240985021E+02  0.28240985021E+02  0.00000000000E+00 0.  1.
          2    1    1    2  502    0 -0.54921820931E+01 -0.20703393832E+02  0.16857544375E+02  0.27257501402E+02  0.00000000000E+00 0.  1.
         -2    1    1    2    0  502  0.54921820931E+01  0.20703393832E+02 -0.18062984170E+02  0.28019028846E+02  0.00000000000E+00 0.  1.
</event>
<event>
 4    1  0.5465458E+003  0.3981280E+02  0.7546771E-02  0.1349586E+00
          2   -1    0    0  501    0  0.00000000000E+00  0.00000000000E+00  0.86044789001E+01  0.86044789001E+01  0.00000000000E+00 0. -1.
         -2   -1    0    0    0  501 -0.00000000000E+00 -0.00000000000E+00 -0.22349528252E+03  0.22349528252E+03  0.00000000000E+00 0. -1.
          2    1    1    2  502    0 -0.33968285370E+02 -0.20765700121E+02 -0.58792618216E+02  0.71004441193E+02  0.00000000000E+00 0. -1.
         -2    1    1    2    0  502  0.33968285370E+02  0.20765700121E+02 -0.15609818541E+03  0.16109532023E+03  0.00000000000E+00 0. -1.
</event>
<event>
 4    1  0.5465458E+003  0.2368644E+02  0.7546771E-02  0.1484054E+00
          2   -1    0    0  501    0  0.00000000000E+00  0.00000000000E+00  0.30572020097E+03  0.30572020097E+03  0.00000000000E+00 0. -1.
         -2   -1    0    0    0  501 -0.00000000000E+00 -0.00000000000E+00 -0.26685451468E+01  0.26685451468E+01  0.00000000000E+00 0.  1.
          2    1    1    2  502    0 -0.23591929465E+02 -0.21138389079E+01  0.23769510507E+03  0.23887237267E+03  0.00000000000E+00 0. -1.
         -2    1    1    2    0  502  0.23591929465E+02  0.21138389079E+01  0.65356550751E+02  0.69516373444E+02  0.00000000000E+00 0.  1.
</event>
<event>
 4    1  0.5465458E+003  0.2394148E+02  0.7546771E-02  0.1481003E+00
          2   -1    0    0  501    0  0.00000000000E+00  0.00000000000E+00  0.92669356296E+03  0.92669356296E+03  0.00000000000E+00 0.  1.
         -2   -1    0    0    0  501 -0.00000000000E+00 -0.00000000000E+00 -0.26101604862E+01  0.26101604862E+01  0.00000000000E+00 0. -1.
          2    1    1    2  502    0  0.30098423582E+00 -0.23939590850E+02  0.86792170439E+03  0.86825185260E+03  0.00000000000E+00 0.  1.
         -2    1    1    2    0  502 -0.30098423582E+00  0.23939590850E+02  0.56161698093E+02  0.61051870850E+02  0.00000000000E+00 0. -1.
</event>
<event>
 4    1  0.5465458E+003  0.2536623E+02  0.7546771E-02  0.1464748E+00
          2   -1    0    0  501    0  0.00000000000E+00  0.00000000000E+00  0.11452586067E+03  0.11452586067E+03  0.00000000000E+00 0. -1.
         -2   -1    0    0    0  501 -0.00000000000E+00 -0.00000000000E+00 -0.16113078240E+02  0.16113078240E+02  0.00000000000E+00 0.  1.
          2    1    1    2  502    0 -0.11622270788E+02  0.22547030218E+02  0.10192198479E+03  0.10503112269E+03  0.00000000000E+00 0. -1.
         -2    1    1    2    0  502  0.11622270788E+02 -0.22547030218E+02 -0.35092023670E+01  0.25607816213E+02  0.00000000000E+00 0.  1.
</event>
<event>
 4    1  0.5465458E+003  0.2302973E+02  0.7546771E-02  0.1492125E+00
          2   -1    0    0  501    0  0.00000000000E+00  0.00000000000E+00  0.10628478133E+03  0.10628478133E+03  0.00000000000E+00 0. -1.
         -2   -1    0    0    0  501 -0.00000000000E+00 -0.00000000000E+00 -0.20035292569E+02  0.20035292569E+02  0.00000000000E+00 0.  1.
          2    1    1    2  502    0 -0.14113999307E+02 -0.18197893697E+02  0.97857065319E+02  0.10053046078E+03  0.00000000000E+00 0. -1.
         -2    1    1    2    0  502  0.14113999307E+02  0.18197893697E+02 -0.11607576557E+02  0.25789613122E+02  0.00000000000E+00 0.  1.
</event>
<event>
 4    1  0.5465458E+003  0.2648885E+02  0.7546771E-02  0.1452811E+00
          2   -1    0    0  501    0  0.00000000000E+00  0.00000000000E+00  0.75470081698E+00  0.75470081698E+00  0.00000000000E+00 0. -1.
         -2   -1    0    0    0  501 -0.00000000000E+00 -0.00000000000E+00 -0.20414940455E+04  0.20414940455E+04  0.00000000000E+00 0.  1.
          2    1    1    2  502    0  0.26328379464E+02  0.29113013678E+01 -0.26681778738E+03  0.26812942938E+03  0.00000000000E+00 0. -1.
         -2    1    1    2    0  502 -0.26328379464E+02 -0.29113013678E+01 -0.17739215573E+04  0.17741193169E+04  0.00000000000E+00 0.  1.
</event>
<event>
 4    1  0.5465458E+003  0.3175473E+02  0.7546771E-02  0.1404937E+00
          2   -1    0    0  501    0  0.00000000000E+00  0.00000000000E+00  0.93714827503E+03  0.93714827503E+03  0.00000000000E+00 0. -1.
         -2   -1    0    0    0  501 -0.00000000000E+00 -0.00000000000E+00 -0.43552789975E+02  0.43552789975E+02  0.00000000000E+00 0.  1.
          2    1    1    2  502    0  0.20763360434E+02 -0.24025941805E+02  0.93105323125E+03  0.93159459124E+03  0.00000000000E+00 0. -1.
         -2    1    1    2    0  502 -0.20763360434E+02  0.24025941805E+02 -0.37457746189E+02  0.49106473766E+02  0.00000000000E+00 0.  1.
</event>
<event>
 4    1  0.5465458E+003  0.2190518E+02  0.7546771E-02  0.1506723E+00
          2   -1    0    0  501    0  0.00000000000E+00  0.00000000000E+00  0.24006805943E+02  0.24006805943E+02  0.00000000000E+00 0.  1.
         -2   -1    0    0    0  501 -0.00000000000E+00 -0.00000000000E+00 -0.35404331203E+03  0.35404331203E+03  0.00000000000E+00 0. -1.
          2    1    1    2  502    0  0.50205503893E+01  0.21322075261E+02  0.18593585638E+02  0.28732529414E+02  0.00000000000E+00 0.  1.
         -2    1    1    2    0  502 -0.50205503893E+01 -0.21322075261E+02 -0.34863009173E+03  0.34931758856E+03  0.00000000000E+00 0. -1.
</event>
<event>
 4    1  0.5465458E+003  0.2670407E+02  0.7546771E-02  0.1450604E+00
          2   -1    0    0  501    0  0.00000000000E+00  0.00000000000E+00  0.84380198421E+03  0.84380198421E+03  0.00000000000E+00 0.  1.
         -2   -1    0    0    0  501 -0.00000000000E+00 -0.00000000000E+00 -0.27735841864E+01  0.27735841864E+01  0.00000000000E+00 0.  1.
          2    1    1    2  502    0 -0.58148761808E+01 -0.26063282303E+02  0.77347112769E+03  0.77393196913E+03  0.00000000000E+00 0.  1.
         -2    1    1    2    0  502  0.58148761808E+01  0.26063282303E+02  0.67557272331E+02  0.72643599265E+02  0.00000000000E+00 0.  1.
</event>
<event>
 4    1  0.5465458E+003  0.2017287E+02  0.7546771E-02  0.1531409E+00
          2   -1    0    0  501    0  0.00000000000E+00  0.00000000000E+00  0.16907276411E+03  0.16907276411E+03  0.00000000000E+00 0. -1.
         -2   -1    0    0    0  501 -0.00000000000E+00 -0.00000000000E+00 -0.10210763461E+02  0.10210763461E+02  0.00000000000E+00 0.  1.
          2    1    1    2  502    0 -0.18067550029E+02  0.89726350755E+01  0.15779842442E+03  0.15908264297E+03  0.00000000000E+00 0. -1.
         -2    1    1    2    0  502  0.18067550029E+02 -0.89726350755E+01  0.10635762260E+01  0.20200884601E+02  0.00000000000E+00 0.  1.
</event>
<event>
 4    1  0.5465458E+003  0.3079313E+02  0.7546771E-02  0.1412827E+00
          2   -1    0    0  501    0  0.00000000000E+00  0.00000000000E+00  0.58968791495E+02  0.58968791495E+02  0.00000000000E+00 0.  1.
         -2   -1    0    0    0  501 -0.00000000000E+00 -0.00000000000E+00 -0.11930939408E+03  0.11930939408E+03  0.00000000000E+00 0.  1.
          2    1    1    2  502    0 -0.23806580261E+02 -0.19531085566E+02  0.52744609126E+02  0.61075448087E+02  0.00000000000E+00 0.  1.
         -2    1    1    2    0  502  0.23806580261E+02  0.19531085566E+02 -0.11308521171E+03  0.11720273749E+03  0.00000000000E+00 0.  1.
</event>
<event>
 4    1  0.5465458E+003  0.3139223E+02  0.7546771E-02  0.1407872E+00
          2   -1    0    0  501    0  0.00000000000E+00  0.00000000000E+00  0.66215875304E+03  0.66215875304E+03  0.00000000000E+00 0.  1.
         -2   -1    0    0    0  501 -0.00000000000E+00 -0.00000000000E+00 -0.15311659114E+01  0.15311659114E+01  0.00000000000E+00 0.  1.
          2    1    1    2  502    0 -0.31385933313E+02 -0.62860889239E+00  0.38585621038E+03  0.38713109802E+03  0.00000000000E+00 0.  1.
         -2    1    1    2    0  502  0.31385933313E+02  0.62860889239E+00  0.27477137675E+03  0.27655882094E+03  0.00000000000E+00 0.  1.
</event>
<event>
 4    1  0.5465458E+003  0.3888166E+02  0.7546771E-02  0.1355167E+00
          2   -1    0    0  501    0  0.00000000000E+00  0.00000000000E+00  0.21153070098E+02  0.21153070098E+02  0.00000000000E+00 0.  1.
         -2   -1    0    0    0  501 -0.00000000000E+00 -0.00000000000E+00 -0.58107224671E+03  0.58107224671E+03  0.00000000000E+00 0. -1.
          2    1    1    2  502    0  0.37520813877E+02 -0.10196671679E+02  0.20280978967E+01  0.38934518982E+02  0.00000000000E+00 0.  1.
         -2    1    1    2    0  502 -0.37520813877E+02  0.10196671679E+02 -0.56194727451E+03  0.56329079783E+03  0.00000000000E+00 0. -1.
</event>
<event>
 4    1  0.5465458E+003  0.2396275E+02  0.7546771E-02  0.1480750E+00
          2   -1    0    0  501    0  0.00000000000E+00  0.00000000000E+00  0.65689702039E+01  0.65689702039E+01  0.00000000000E+00 0.  1.
         -2   -1    0    0    0  501 -0.00000000000E+00 -0.00000000000E+00 -0.10742059381E+03  0.10742059381E+03  0.00000000000E+00 0.  1.
          2    1    1    2  502    0 -0.16121427312E+02 -0.17728875958E+02 -0.25828443747E+02  0.35232399403E+02  0.00000000000E+00 0.  1.
         -2    1    1    2    0  502  0.16121427312E+02  0.17728875958E+02 -0.75023179857E+02  0.78757164609E+02  0.00000000000E+00 0.  1.
</event>
<event>
 4    1  0.5465458E+003  0.3191046E+02  0.7546771E-02  0.1403690E+00
          2   -1    0    0  501    0  0.00000000000E+00  0.00000000000E+00  0.90479321524E+03  0.90479321524E+03  0.00000000000E+00 0.  1.
         -2   -1    0    0    0  501 -0.00000000000E+00 -0.00000000000E+00 -0.48020376686E+01  0.48020376686E+01  0.00000000000E+00 0.  1.
          2    1    1    2  502    0  0.53914953220E+01  0.31451699524E+02  0.84794631436E+03  0.84854653948E+03  0.00000000000E+00 0.  1.
         -2    1    1    2    0  502 -0.53914953220E+01 -0.31451699524E+02  0.52044863213E+02  0.61048713431E+02  0.00000000000E+00 0.  1.
</event>
<event>
 4    1  0.5465458E+003  0.2017901E+02  0.7546771E-02  0.1531317E+00
          2   -1    0    0  501    0  0.00000000000E+00  0.00000000000E+00  0.26714291784E+03  0.26714291784E+03  0.00000000000E+00 0.  1.
         -2   -1    0    0    0  501 -0.00000000000E+00 -0.00000000000E+00 -0.11632531439E+02  0.11632531439E+02  0.00000000000E+00 0. -1.
          2    1    1    2  502    0 -0.14237745949E+00  0.20178511171E+02  0.25769017039E+03  0.25847904460E+03  0.00000000000E+00 0.  1.
         -2    1    1    2    0  502  0.14237745949E+00 -0.20178511171E+02 -0.21797839901E+01  0.20296404673E+02  0.00000000000E+00 0. -1.
</event>
<event>
 4    1  0.5465458E+003  0.2466871E+02  0.7546771E-02  0.1472544E+00
          2   -1    0    0  501    0  0.00000000000E+00  0.00000000000E+00  0.80468902617E+03  0.80468902617E+03  0.00000000000E+00 0. -1.
         -2   -1    0    0    0  501 -0.00000000000E+00 -0.00000000000E+00 -0.28357189067E+02  0.28357189067E+02  0.00000000000E+00 0.  1.
          2    1    1    2  502    0  0.16467561737E+02 -0.18367494642E+02  0.79909743029E+03  0.79947811011E+03  0.00000000000E+00 0. -1.
         -2    1    1    2    0  502 -0.16467561737E+02  0.18367494642E+02 -0.22765593184E+02  0.33568105129E+02  0.00000000000E+00 0.  1.
</event>
<event>
 4    1  0.5465458E+003  0.3800719E+02  0.7546771E-02  0.1360577E+00
          2   -1    0    0  501    0  0.00000000000E+00  0.00000000000E+00  0.43398070919E+03  0.43398070919E+03  0.00000000000E+00 0.  1.
         -2   -1    0    0    0  501 -0.00000000000E+00 -0.00000000000E+00 -0.16723492927E+02  0.16723492927E+02  0.00000000000E+00 0.  1.
          2    1    1    2  502    0  0.30319726095E+02 -0.22918566653E+02  0.41031091623E+03  0.41206746348E+03  0.00000000000E+00 0.  1.
         -2    1    1    2    0  502 -0.30319726095E+02  0.22918566653E+02  0.69463000359E+01  0.38636738632E+02  0.00000000000E+00 0.  1.
</event>
<event>
 4    1  0.5465458E+003  0.4993561E+02  0.7546771E-02  0.1298452E+00
          2   -1    0    0  501    0  0.00000000000E+00  0.00000000000E+00  0.91691418894E+03  0.91691418894E+03  0.00000000000E+00 0.  1.
         -2   -1    0    0    0  501 -0.00000000000E+00 -0.00000000000E+00 -0.35338228868E+01  0.35338228868E+01  0.00000000000E+00 0. -1.
          2    1    1    2  502    0  0.26646574478E+02 -0.42231801795E+02  0.67761285684E+03  0.67945032840E+03  0.00000000000E+00 0.  1.
         -2    1    1    2    0  502 -0.26646574478E+02  0.42231801795E+02  0.23576750921E+03  0.24099768342E+03  0.00000000000E+00 0. -1.
</event>
<event>
 4    1  0.5465458E+003  0.2718671E+02  0.7546771E-02  0.1445742E+00
          2   -1    0    0  501    0  0.00000000000E+00  0.00000000000E+00  0.39791605086E+03  0.39791605086E+03  0.00000000000E+00 0.  1.
         -2   -1    0    0    0  501 -0.00000000000E+00 -0.00000000000E+00 -0.22739774109E+02  0.22739774109E+02  0.00000000000E+00 0.  1.
          2    1    1    2  502    0 -0.40216090494E+01  0.26887619010E+02  0.38914288923E+03  0.39009140677E+03  0.00000000000E+00 0.  1.
         -2    1    1    2    0  502  0.40216090494E+01 -0.26887619010E+02 -0.13966612484E+02  0.30564418196E+02  0.00000000000E+00 0.  1.
</event>
<event>
 4    1  0.5465458E+003  0.2793301E+02  0.7546771E-02  0.1438454E+00
          2   -1    0    0  501    0  0.00000000000E+00  0.00000000000E+00  0.19524072221E+03  0.19524072221E+03  0.00000000000E+00 0.  1.
         -2   -1    0    0    0  501 -0.00000000000E+00 -0.00000000000E+00 -0.70019440005E+01  0.70019440005E+01  0.00000000000E+00 0. -1.
          2    1    1    2  502    0  0.14164254871E+02  0.24075437811E+02  0.16037118869E+03  0.16278565964E+03  0.00000000000E+00 0.  1.
         -2    1    1    2    0  502 -0.14164254871E+02 -0.24075437811E+02  0.27867589510E+02  0.39457006564E+02  0.00000000000E+00 0. -1.
</event>
<event>
 4    1  0.5465458E+003  0.5240936E+02  0.7546771E-02  0.1288051E+00
          2   -1    0    0  501    0  0.00000000000E+00  0.00000000000E+00  0.31385480718E+03  0.31385480718E+03  0.00000000000E+00 0.  1.
         -2   -1    0    0    0  501 -0.00000000000E+00 -0.00000000000E+00 -0.10701755439E+03  0.10701755439E+03  0.00000000000E+00 0. -1.
          2    1    1    2  502    0  0.51353010854E+02  0.10469423821E+02  0.30506683873E+03  0.30953596988E+03  0.00000000000E+00 0.  1.
         -2    1    1    2    0  502 -0.51353010854E+02 -0.10469423821E+02 -0.98229585941E+02  0.11133639168E+03  0.00000000000E+00 0. -1.
</event>
<event>
 4    1  0.5465458E+003  0.2482630E+02  0.7546771E-02  0.1470756E+00
          2   -1    0    0  501    0  0.00000000000E+00  0.00000000000E+00  0.48371505047E+02  0.48371505047E+02  0.00000000000E+00 0. -1.
         -2   -1    0    0    0  501 -0.00000000000E+00 -0.00000000000E+00 -0.30746607849E+02  0.30746607849E+02  0.00000000000E+00 0.  1.
          2    1    1    2  502    0  0.22977799228E+02  0.94003168668E+01  0.39084390136E+02  0.46302643195E+02  0.00000000000E+00 0. -1.
         -2    1    1    2    0  502 -0.22977799228E+02 -0.94003168668E+01 -0.21459492938E+02  0.32815469701E+02  0.00000000000E+00 0.  1.
</event>
<event>
 4    1  0.5465458E+003  0.4282073E+02  0.7546771E-02  0.1332705E+00
          2   -1    0    0  501    0  0.00000000000E+00  0.00000000000E+00  0.24110575054E+03  0.24110575054E+03  0.00000000000E+00 0.  1.
         -2   -1    0    0    0  501 -0.00000000000E+00 -0.00000000000E+00 -0.22687939832E+02  0.22687939832E+02  0.00000000000E+00 0. -1.
          2    1    1    2  502    0 -0.19486500704E+02 -0.38129928881E+02  0.21675125496E+03  0.22094053886E+03  0.00000000000E+00 0.  1.
         -2    1    1    2    0  502  0.19486500704E+02  0.38129928881E+02  0.16665557477E+01  0.42853151508E+02  0.00000000000E+00 0. -1.
</event>
<event>
 4    1  0.5465458E+003  0.2476203E+02  0.7546771E-02  0.1471483E+00
          2   -1    0    0  501    0  0.00000000000E+00  0.00000000000E+00  0.17650595229E+02  0.17650595229E+02  0.00000000000E+00 0. -1.
         -2   -1    0    0    0  501 -0.00000000000E+00 -0.00000000000E+00 -0.38665503456E+02  0.38665503456E+02  0.00000000000E+00 0. -1.
          2    1    1    2  502    0 -0.24419110275E+02 -0.41067392982E+01 -0.15339552661E+01  0.24809499653E+02  0.00000000000E+00 0. -1.
         -2    1    1    2    0  502  0.24419110275E+02  0.41067392982E+01 -0.19480952962E+02  0.31506599032E+02  0.00000000000E+00 0. -1.
</event>
<event>
 4    1  0.5465458E+003  0.2010203E+02  0.7546771E-02  0.1532482E+00
          2   -1    0    0  501    0  0.00000000000E+00  0.00000000000E+00  0.38175613330E+03  0.38175613330E+03  0.00000000000E+00 0.  1.
         -2   -1    0    0    0  501 -0.00000000000E+00 -0.00000000000E+00 -0.12074463966E+01  0.12074463966E+01  0.00000000000E+00 0. -1.
          2    1    1    2  502    0  0.18901275402E+02 -0.68434633827E+01  0.12302320686E+03  0.12465472566E+03  0.00000000000E+00 0.  1.
         -2    1    1    2    0  502 -0.18901275402E+02  0.68434633827E+01  0.25752548004E+03  0.25830885404E+03  0.00000000000E+00 0. -1.
</event>
<event>
 4    1  0.5465458E+003  0.2555680E+02  0.7546771E-02  0.1462670E+00
          2   -1    0    0  501    0  0.00000000000E+00  0.00000000000E+00  0.95179540550E+01  0.95179540550E+01  0.00000000000E+00 0. -1.
         -2   -1    0    0    0  501 -0.00000000000E+00 -0.00000000000E+00 -0.77376884078E+02  0.77376884078E+02  0.00000000000E+00 0. -1.
          2    1    1    2  502    0 -0.20696468055E+02  0.14993522336E+02 -0.48543209855E+02  0.54859755058E+02  0.00000000000E+00 0. -1.
         -2    1    1    2    0  502  0.20696468055E+02 -0.14993522336E+02 -0.19315720168E+02  0.32035083075E+02  0.00000000000E+00 0. -1.
</event>
<event>
 4    1  0.5465458E+003  0.2124712E+02  0.7546771E-02  0.1515766E+00
          2   -1    0    0  501    0  0.00000000000E+00  0.00000000000E+00  0.11492817260E+04  0.11492817260E+04  0.00000000000E+00 0.  1.
         -2   -1    0    0    0  501 -0.00000000000E+00 -0.00000000000E+00 -0.19839337950E+02  0.19839337950E+02  0.00000000000E+00 0.  1.
          2    1    1    2  502    0  0.20281754355E+02 -0.63317222566E+01  0.11434658932E+04  0.11436632761E+04  0.00000000000E+00 0.  1.
         -2    1    1    2    0  502 -0.20281754355E+02  0.63317222566E+01 -0.14023505115E+02  0.25457787849E+02  0.00000000000E+00 0.  1.
</event>
<event>
 4    1  0.5465458E+003  0.3526756E+02  0.7546771E-02  0.1378692E+00
          2   -1    0    0  501    0  0.00000000000E+00  0.00000000000E+00  0.69328403018E+03  0.69328403018E+03  0.00000000000E+00 0.  1.
         -2   -1    0    0    0  501 -0.00000000000E+00 -0.00000000000E+00 -0.27606613426E+01  0.27606613426E+01  0.00000000000E+00 0.  1.
          2    1    1    2  502    0  0.35266759061E+02  0.23766091746E+00  0.55119271244E+03  0.55231984124E+03  0.00000000000E+00 0.  1.
         -2    1    1    2    0  502 -0.35266759061E+02 -0.23766091746E+00  0.13933065640E+03  0.14372485028E+03  0.00000000000E+00 0.  1.
</event>
<event>
 4    1  0.5465458E+003  0.4191133E+02  0.7546771E-02  0.1337635E+00
          2   -1    0    0  501    0  0.00000000000E+00  0.00000000000E+00  0.12268681636E+03  0.12268681636E+03  0.00000000000E+00 0. -1.
         -2   -1    0    0    0  501 -0.00000000000E+00 -0.00000000000E+00 -0.27992591660E+03  0.27992591660E+03  0.00000000000E+00 0.  1.
          2    1    1    2  502    0 -0.41394414022E+02  0.65621385399E+01  0.11747112153E+03  0.12472378910E+03  0.00000000000E+00 0. -1.
         -2    1    1    2    0  502  0.41394414022E+02 -0.65621385399E+01 -0.27471022177E+03  0.27788894386E+03  0.00000000000E+00 0.  1.
</event>
<event>
 4    1  0.5465458E+003  0.2102185E+02  0.7546771E-02  0.1518953E+00
          2   -1    0    0  501    0  0.00000000000E+00  0.00000000000E+00  0.33100290360E+02  0.33100290360E+02  0.00000000000E+00 0. -1.
         -2   -1    0    0    0  501 -0.00000000000E+00 -0.00000000000E+00 -0.45011903169E+02  0.45011903169E+02  0.00000000000E+00 0. -1.
          2    1    1    2  502    0  0.11883504995E+02  0.17340716733E+02  0.26799947020E+02  0.34061052656E+02  0.00000000000E+00 0. -1.
         -2    1    1    2    0  502 -0.11883504995E+02 -0.17340716733E+02 -0.38711559829E+02  0.44051140873E+02  0.00000000000E+00 0. -1.
</event>
<event>
 4    1  0.5465458E+003  0.2208967E+02  0.7546771E-02  0.1504257E+00
          2   -1    0    0  501    0  0.00000000000E+00  0.00000000000E+00  0.87563877957E+03  0.87563877957E+03  0.00000000000E+00 0. -1.
         -2   -1    0    0    0  501 -0.00000000000E+00 -0.00000000000E+00 -0.81138444204E+00  0.81138444204E+00  0.00000000000E+00 0. -1.
          2    1    1    2  502    0  0.15120097321E+02  0.16103914293E+02  0.68266541500E+03  0.68302270989E+03  0.00000000000E+00 0. -1.
         -2    1    1    2    0  502 -0.15120097321E+02 -0.16103914293E+02  0.19216198013E+03  0.19342745412E+03  0.00000000000E+00 0. -1.
</event>
<event>
 4    1  0.5465458E+003  0.2408931E+02  0.7546771E-02  0.1479255E+00
          2   -1    0    0  501    0  0.00000000000E+00  0.00000000000E+00  0.14339637951E+03  0.14339637951E+03  0.00000000000E+00 0.  1.
         -2   -1    0    0    0  501 -0.00000000000E+00 -0.00000000000E+00 -0.43074799384E+01  0.43074799384E+01  0.00000000000E+00 0.  1.
          2    1    1    2  502    0 -0.23895586228E+02 -0.30489353220E+01  0.87712665371E+02  0.90960467865E+02  0.00000000000E+00 0.  1.
         -2    1    1    2    0  502  0.23895586228E+02  0.30489353220E+01  0.51376234205E+02  0.56743391587E+02  0.00000000000E+00 0.  1.
</event>
<event>
 4    1  0.5465458E+003  0.3979609E+02  0.7546771E-02  0.1349685E+00
          2   -1    0    0  501    0  0.00000000000E+00  0.00000000000E+00  0.38438061048E+03  0.38438061048E+03  0.00000000000E+00 0. -1.
         -2   -1    0    0    0  501 -0.00000000000E+00 -0.00000000000E+00 -0.15428088767E+02  0.15428088767E+02  0.00000000000E+00 0. -1.
          2    1    1    2  502    0 -0.28243292432E+01 -0.39695743563E+02  0.35561831815E+03  0.35783811577E+03  0.00000000000E+00 0. -1.
         -2    1    1    2    0  502  0.28243292432E+01  0.39695743563E+02  0.13334203560E+02  0.41970583475E+02  0.00000000000E+00 0. -1.
</event>
<event>
 4    1  0.5465458E+003  0.4347249E+02  0.7546771E-02  0.1329256E+00
          2   -1    0    0  501    0  0.00000000000E+00  0.00000000000E+00  0.22290182858E+04  0.22290182858E+04  0.00000000000E+00 0.  1.
         -2   -1    0    0    0  501 -0.00000000000E+00 -0.00000000000E+00 -0.14473957723E+01  0.14473957723E+01  0.00000000000E+00 0. -1.
          2    1    1    2  502    0  0.88536592865E+00 -0.43463476013E+02  0.18315559307E+04  0.18320717739E+04  0.00000000000E+00 0.  1.
         -2    1    1    2    0  502 -0.88536592865E+00  0.43463476013E+02  0.39601495938E+03  0.39839390768E+03  0.00000000000E+00 0. -1.
</event>
<event>
 4    1  0.5465458E+003  0.2603143E+02  0.7546771E-02  0.1457588E+00
          2   -1    0    0  501    0  0.00000000000E+00  0.00000000000E+00  0.10206819600E+03  0.10206819600E+03  0.00000000000E+00 0.  1.
         -2   -1    0    0    0  501 -0.00000000000E+00 -0.00000000000E+00 -0.38897994038E+02  0.38897994038E+02  0.00000000000E+00 0. -1.
          2    1    1    2  502    0  0.22779574416E+02  0.12598670811E+02  0.95772009599E+02  0.99246729616E+02  0.00000000000E+00 0.  1.
         -2    1    1    2    0  502 -0.22779574416E+02 -0.12598670811E+02 -0.32601807637E+02  0.41719460423E+02  0.00000000000E+00 0. -1.
</event>
<event>
 4    1  0.5465458E+003  0.2101496E+02  0.7546771E-02  0.1519051E+00
          2   -1    0    0  501    0  0.00000000000E+00  0.00000000000E+00  0.12446594853E+04  0.12446594853E+04  0.00000000000E+00 0. -1.
         -2   -1    0    0    0  501 -0.00000000000E+00 -0.00000000000E+00 -0.13076823330E+01  0.13076823330E+01  0.00000000000E+00 0. -1.
          2    1    1    2  502    0  0.22605970076E+01 -0.20893023459E+02  0.11534666792E+04  0.11536580987E+04  0.00000000000E+00 0. -1.
         -2    1    1    2    0  502 -0.22605970076E+01  0.20893023459E+02  0.89885123754E+02  0.92309068896E+02  0.00000000000E+00 0. -1.
</event>
<event>
 4    1  0.5465458E+003  0.2571041E+02  0.7546771E-02  0.1461011E+00
          2   -1    0    0  501    0  0.00000000000E+00  0.00000000000E+00  0.18462675071E+01  0.18462675071E+01  0.00000000000E+00 0. -1.
         -2   -1    0    0    0  501 -0.00000000000E+00 -0.00000000000E+00 -0.36127684561E+03  0.36127684561E+03  0.00000000000E+00 0.  1.
          2    1    1    2  502    0  0.16808121230E+02 -0.19455377079E+02 -0.19691954984E+03  0.19859087025E+03  0.00000000000E+00 0. -1.
         -2    1    1    2    0  502 -0.16808121230E+02  0.19455377079E+02 -0.16251102826E+03  0.16453224287E+03  0.00000000000E+00 0.  1.
</event>
<event>
 4    1  0.5465458E+003  0.2042332E+02  0.7546771E-02  0.1527660E+00
          2   -1    0    0  501    0  0.00000000000E+00  0.00000000000E+00  0.40139367874E+03  0.40139367874E+03  0.00000000000E+00 0. -1.
         -2   -1    0    0    0  501 -0.00000000000E+00 -0.00000000000E+00 -0.78293743730E+02  0.78293743730E+02  0.00000000000E+00 0. -1.
          2    1    1    2  502    0 -0.11731712857E+02 -0.16717625617E+02  0.39979669017E+03  0.40031800554E+03  0.00000000000E+00 0. -1.
         -2    1    1    2    0  502  0.11731712857E+02  0.16717625617E+02 -0.76696755154E+02  0.79369416931E+02  0.00000000000E+00 0. -1.
</event>
<event>
 4    1  0.5465458E+003  0.3166595E+02  0.7546771E-02  0.1405651E+00
          2   -1    0    0  501    0  0.00000000000E+00  0.00000000000E+00  0.30333451766E+03  0.30333451766E+03  0.00000000000E+00 0. -1.
         -2   -1    0    0    0  501 -0.00000000000E+00 -0.00000000000E+00 -0.28689064020E+02  0.28689064020E+02  0.00000000000E+00 0.  1.
          2    1    1    2  502    0  0.22662853078E+02 -0.22116228872E+02  0.29347752943E+03  0.29518094920E+03  0.00000000000E+00 0. -1.
         -2    1    1    2    0  502 -0.22662853078E+02  0.22116228872E+02 -0.18832075794E+02  0.36842632478E+02  0.00000000000E+00 0.  1.
</event>
<event>
 4    1  0.5465458E+003  0.1107323E+03  0.7546771E-02  0.1146406E+00
          2   -1    0    0  501    0  0.00000000000E+00  0.00000000000E+00  0.61043803505E+03  0.61043803505E+03  0.00000000000E+00 0. -1.
         -2   -1    0    0    0  501 -0.00000000000E+00 -0.00000000000E+00 -0.56899632502E+02  0.56899632502E+02  0.00000000000E+00 0.  1.
          2    1    1    2  502    0 -0.96010021815E+02  0.55169841653E+02  0.54515627970E+03  0.55628859867E+03  0.00000000000E+00 0. -1.
         -2    1    1    2    0  502  0.96010021815E+02 -0.55169841653E+02  0.83821228538E+01  0.11104906889E+03  0.00000000000E+00 0.  1.
</event>
<event>
 4    1  0.5465458E+003  0.2700047E+02  0.7546771E-02  0.1447603E+00
          2   -1    0    0  501    0  0.00000000000E+00  0.00000000000E+00  0.17415694447E+03  0.17415694447E+03  0.00000000000E+00 0.  1.
         -2   -1    0    0    0  501 -0.00000000000E+00 -0.00000000000E+00 -0.28188146139E+03  0.28188146139E+03  0.00000000000E+00 0.  1.
          2    1    1    2  502    0  0.24942335416E+02 -0.10339506530E+02  0.17245753421E+03  0.17455837590E+03  0.00000000000E+00 0.  1.
         -2    1    1    2    0  502 -0.24942335416E+02  0.10339506530E+02 -0.28018205113E+03  0.28148002996E+03  0.00000000000E+00 0.  1.
</event>
<event>
 4    1  0.5465458E+003  0.3161086E+02  0.7546771E-02  0.1406096E+00
          2   -1    0    0  501    0  0.00000000000E+00  0.00000000000E+00  0.19323096053E+04  0.19323096053E+04  0.00000000000E+00 0.  1.
         -2   -1    0    0    0  501 -0.00000000000E+00 -0.00000000000E+00 -0.15436980243E+01  0.15436980243E+01  0.00000000000E+00 0. -1.
          2    1    1    2  502    0 -0.30442643951E+02  0.85142070982E+01  0.17538929535E+04  0.17541777956E+04  0.00000000000E+00 0.  1.
         -2    1    1    2    0  502  0.30442643951E+02 -0.85142070982E+01  0.17687295380E+03  0.17967550773E+03  0.00000000000E+00 0. -1.
</event>
<event>
 4    1  0.5465458E+003  0.2685437E+02  0.7546771E-02  0.1449076E+00
          2   -1    0    0  501    0  0.00000000000E+00  0.00000000000E+00  0.17411629278E+04  0.17411629278E+04  0.00000000000E+00 0.  1.
         -2   -1    0    0    0  501 -0.00000000000E+00 -0.00000000000E+00 -0.11266772127E+01  0.11266772127E+01  0.00000000000E+00 0.  1.
          2    1    1    2  502    0 -0.26800131149E+02  0.17059695515E+01  0.15627764315E+04  0.15630071440E+04  0.00000000000E+00 0.  1.
         -2    1    1    2    0  502  0.26800131149E+02 -0.17059695515E+01  0.17725981906E+03  0.17928246098E+03  0.00000000000E+00 0.  1.
</event>
<event>
 4    1  0.5465458E+003  0.2053834E+02  0.7546771E-02  0.1525959E+00
          2   -1    0    0  501    0  0.00000000000E+00  0.00000000000E+00  0.65960274171E+02  0.65960274171E+02  0.00000000000E+00 0.  1.
         -2   -1    0    0    0  501 -0.00000000000E+00 -0.00000000000E+00 -0.96613899673E+01  0.96613899673E+01  0.00000000000E+00 0. -1.
          2    1    1    2  502    0  0.17268100306E+02  0.11119169430E+02  0.50134272727E+02  0.54178118450E+02  0.00000000000E+00 0.  1.
         -2    1    1    2    0  502 -0.17268100306E+02 -0.11119169430E+02  0.61646114769E+01  0.21443545688E+02  0.00000000000E+00 0. -1.
</event>
<event>
 4    1  0.5465458E+003  0.2002661E+02  0.7546771E-02  0.1533629E+00
          2   -1    0    0  501    0  0.00000000000E+00  0.00000000000E+00  0.44364042784E+00  0.44364042784E+00  0.00000000000E+00 0. -1.
         -2   -1    0    0    0  501 -0.00000000000E+00 -0.00000000000E+00 -0.12881568623E+04  0.12881568623E+04  0.00000000000E+00 0. -1.
          2    1    1    2  502    0 -0.17637277452E+02  0.94863804038E+01 -0.29202054513E+03  0.29270644637E+03  0.00000000000E+00 0. -1.
         -2    1    1    2    0  502  0.17637277452E+02 -0.94863804038E+01 -0.99569267670E+03  0.99589405631E+03  0.00000000000E+00 0. -1.
</event>
<event>
 4    1  0.5465458E+003  0.2233374E+02  0.7546771E-02  0.1501038E+00
          2   -1    0    0  501    0  0.00000000000E+00  0.00000000000E+00  0.65994514231E+03  0.65994514231E+03  0.00000000000E+00 0.  1.
         -2   -1    0    0    0  501 -0.00000000000E+00 -0.00000000000E+00 -0.12936964440E+01  0.12936964440E+01  0.00000000000E+00 0. -1.
          2    1    1    2  502    0  0.34159184818E+01 -0.22070962045E+02  0.54251030787E+03  0.54296982422E+03  0.00000000000E+00 0.  1.
         -2    1    1    2    0  502 -0.34159184818E+01  0.22070962045E+02  0.11614113800E+03  0.11826901454E+03  0.00000000000E+00 0. -1.
</event>
<event>
 4    1  0.5465458E+003  0.2429216E+02  0.7546771E-02  0.1476880E+00
          2   -1    0    0  501    0  0.00000000000E+00  0.00000000000E+00  0.34063240477E+03  0.34063240477E+03  0.00000000000E+00 0. -1.
         -2   -1    0    0    0  501 -0.00000000000E+00 -0.00000000000E+00 -0.17588486711E+01  0.17588486711E+01  0.00000000000E+00 0.  1.
          2    1    1    2  502    0  0.18616561363E+02 -0.15605510089E+02  0.14843967882E+03  0.15041424983E+03  0.00000000000E+00 0. -1.
         -2    1    1    2    0  502 -0.18616561363E+02  0.15605510089E+02  0.19043387728E+03  0.19197700362E+03  0.00000000000E+00 0.  1.
</event>
<event>
 4    1  0.5465458E+003  0.5778073E+02  0.7546771E-02  0.1267565E+00
          2   -1    0    0  501    0  0.00000000000E+00  0.00000000000E+00  0.37604835146E+03  0.37604835146E+03  0.00000000000E+00 0. -1.
         -2   -1    0    0    0  501 -0.00000000000E+00 -0.00000000000E+00 -0.16852141531E+02  0.16852141531E+02  0.00000000000E+00 0. -1.
          2    1    1    2  502    0  0.51713217970E+02 -0.25775099225E+02  0.31473159335E+03  0.31999154443E+03  0.00000000000E+00 0. -1.
         -2    1    1    2    0  502 -0.51713217970E+02  0.25775099225E+02  0.44464616574E+02  0.72908948559E+02  0.00000000000E+00 0. -1.
</event>
<event>
 4    1  0.5465458E+003  0.2999238E+02  0.7546771E-02  0.1419663E+00
          2   -1    0    0  501    0  0.00000000000E+00  0.00000000000E+00  0.13329665899E+03  0.13329665899E+03  0.00000000000E+00 0.  1.
         -2   -1    0    0    0  501 -0.00000000000E+00 -0.00000000000E+00 -0.67928448257E+02  0.67928448257E+02  0.00000000000E+00 0. -1.
          2    1    1    2  502    0 -0.29793386804E+02  0.34492249066E+01  0.12816822085E+03  0.13163067988E+03  0.00000000000E+00 0.  1.
         -2    1    1    2    0  502  0.29793386804E+02 -0.34492249066E+01 -0.62800010118E+02  0.69594427367E+02  0.00000000000E+00 0. -1.
</event>
<event>
 4    1  0.5465458E+003  0.3368954E+02  0.7546771E-02  0.1390018E+00
          2   -1    0    0  501    0  0.00000000000E+00  0.00000000000E+00  0.38357077442E+03  0.38357077442E+03  0.00000000000E+00 0. -1.
         -2   -1    0    0    0  501 -0.00000000000E+00 -0.00000000000E+00 -0.30050011705E+03  0.30050011705E+03  0.00000000000E+00 0. -1.
          2    1    1    2  502    0  0.24836714034E+02  0.22762302975E+02  0.38188261252E+03  0.38336577122E+03  0.00000000000E+00 0. -1.
         -2    1    1    2    0  502 -0.24836714034E+02 -0.22762302975E+02 -0.29881195515E+03  0.30070512025E+03  0.00000000000E+00 0. -1.
</event>
<event>
 4    1  0.5465458E+003  0.2553185E+02  0.7546771E-02  0.1462941E+00
          2   -1    0    0  501    0  0.00000000000E+00  0.00000000000E+00  0.38154822363E+01  0.38154822363E+01  0.00000000000E+00 0. -1.
         -2   -1    0    0    0  501 -0.00000000000E+00 -0.00000000000E+00 -0.18077566246E+03  0.18077566246E+03  0.00000000000E+00 0. -1.
          2    1    1    2  502    0  0.24052140976E+02  0.85655948536E+01 -0.11010687747E+03  0.11302831224E+03  0.00000000000E+00 0. -1.
         -2    1    1    2    0  502 -0.24052140976E+02 -0.85655948536E+01 -0.66853302757E+02  0.71562832464E+02  0.00000000000E+00 0. -1.
</event>
<event>
 4    1  0.5465458E+003  0.3333475E+02  0.7546771E-02  0.1392664E+00
          2   -1    0    0  501    0  0.00000000000E+00  0.00000000000E+00  0.36213927939E+03  0.36213927939E+03  0.00000000000E+00 0.  1.
         -2   -1    0    0    0  501 -0.00000000000E+00 -0.00000000000E+00 -0.14599011951E+02  0.14599011951E+02  0.00000000000E+00 0.  1.
          2    1    1    2  502    0 -0.69318687414E+01  0.32606053243E+02  0.34117701752E+03  0.34280163768E+03  0.00000000000E+00 0.  1.
         -2    1    1    2    0  502  0.69318687414E+01 -0.32606053243E+02  0.63632499220E+01  0.33936653664E+02  0.00000000000E+00 0.  1.
</event>
<event>
 4    1  0.5465458E+003  0.2444072E+02  0.7546771E-02  0.1475158E+00
          2   -1    0    0  501    0  0.00000000000E+00  0.00000000000E+00  0.19841290028E+01  0.19841290028E+01  0.00000000000E+00 0. -1.
         -2   -1    0    0    0  501 -0.00000000000E+00 -0.00000000000E+00 -0.59673037573E+03  0.59673037573E+03  0.00000000000E+00 0. -1.
          2    1    1    2  502    0 -0.12903019328E+02 -0.20757186398E+02 -0.86654900759E+02  0.90035662493E+02  0.00000000000E+00 0. -1.
         -2    1    1    2    0  502  0.12903019328E+02  0.20757186398E+02 -0.50809134597E+03  0.50867884224E+03  0.00000000000E+00 0. -1.
</event>
<event>
 4    1  0.5465458E+003  0.2016761E+02  0.7546771E-02  0.1531489E+00
          2   -1    0    0  501    0  0.00000000000E+00  0.00000000000E+00  0.12414870685E+04  0.12414870685E+04  0.00000000000E+00 0.  1.
         -2   -1    0    0    0  501 -0.00000000000E+00 -0.00000000000E+00 -0.16309192512E+02  0.16309192512E+02  0.00000000000E+00 0. -1.
          2    1    1    2  502    0 -0.17367799663E+02 -0.10251442099E+02  0.12351384068E+04  0.12353030464E+04  0.00000000000E+00 0.  1.
         -2    1    1    2    0  502  0.17367799663E+02  0.10251442099E+02 -0.99605307896E+01  0.22493214619E+02  0.00000000000E+00 0. -1.
</event>
<event>
 4    1  0.5465458E+003  0.2638512E+02  0.7546771E-02  0.1453884E+00
          2   -1    0    0  501    0  0.00000000000E+00  0.00000000000E+00  0.29138656714E+03  0.29138656714E+03  0.00000000000E+00 0. -1.
         -2   -1    0    0    0  501 -0.00000000000E+00 -0.00000000000E+00 -0.86858802689E+01  0.86858802689E+01  0.00000000000E+00 0.  1.
          2    1    1    2  502    0 -0.26081838845E+02 -0.39890453071E+01  0.26909587996E+03  0.27038632993E+03  0.00000000000E+00 0. -1.
         -2    1    1    2    0  502  0.26081838845E+02  0.39890453071E+01  0.13604806910E+02  0.29686117481E+02  0.00000000000E+00 0.  1.
</event>
<event>
 4    1  0.5465458E+003  0.3148263E+02  0.7546771E-02  0.1407136E+00
          2   -1    0    0  501    0  0.00000000000E+00  0.00000000000E+00  0.77150112120E+01  0.77150112120E+01  0.00000000000E+00 0. -1.
         -2   -1    0    0    0  501 -0.00000000000E+00 -0.00000000000E+00 -0.12890420737E+03  0.12890420737E+03  0.00000000000E+00 0. -1.
          2    1    1    2  502    0  0.21118546992E+02 -0.23348700861E+02 -0.64554812356E+02  0.71822549782E+02  0.00000000000E+00 0. -1.
         -2    1    1    2    0  502 -0.21118546992E+02  0.23348700861E+02 -0.56634383803E+02  0.64796668801E+02  0.00000000000E+00 0. -1.
</event>
<event>
 4    1  0.5465458E+003  0.3079186E+02  0.7546771E-02  0.1412837E+00
          2   -1    0    0  501    0  0.00000000000E+00  0.00000000000E+00  0.68843127498E+03  0.68843127498E+03  0.00000000000E+00 0. -1.
         -2   -1    0    0    0  501 -0.00000000000E+00 -0.00000000000E+00 -0.38475162618E+01  0.38475162618E+01  0.00000000000E+00 0. -1.
          2    1    1    2  502    0 -0.30210282072E+02  0.59562967189E+01  0.61964503499E+03  0.62040962920E+03  0.00000000000E+00 0. -1.
         -2    1    1    2    0  502  0.30210282072E+02 -0.59562967189E+01  0.64938723728E+02  0.71869162044E+02  0.00000000000E+00 0. -1.
</event>
<event>
 4    1  0.5465458E+003  0.2694929E+02  0.7546771E-02  0.1448118E+00
          2   -1    0    0  501    0  0.00000000000E+00  0.00000000000E+00  0.14762146524E+04  0.14762146524E+04  0.00000000000E+00 0. -1.
         -2   -1    0    0    0  501 -0.00000000000E+00 -0.00000000000E+00 -0.84153446064E+01  0.84153446064E+01  0.00000000000E+00 0. -1.
          2    1    1    2  502    0  0.23023262196E+02 -0.14006909627E+02  0.14541893088E+04  0.14544390018E+04  0.00000000000E+00 0. -1.
         -2    1    1    2    0  502 -0.23023262196E+02  0.14006909627E+02  0.13609999003E+02  0.30190995219E+02  0.00000000000E+00 0. -1.
</event>
<event>
 4    1  0.5465458E+003  0.2752378E+02  0.7546771E-02  0.1442416E+00
          2   -1    0    0  501    0  0.00000000000E+00  0.00000000000E+00  0.12044267519E+03  0.12044267519E+03  0.00000000000E+00 0.  1.
         -2   -1    0    0    0  501 -0.00000000000E+00 -0.00000000000E+00 -0.24734191962E+02  0.24734191962E+02  0.00000000000E+00 0.  1.
          2    1    1    2  502    0  0.27250103536E+02  0.38717396423E+01  0.11053740582E+03  0.11391258313E+03  0.00000000000E+00 0.  1.
         -2    1    1    2    0  502 -0.27250103536E+02 -0.38717396423E+01 -0.14828922586E+02  0.31264284026E+02  0.00000000000E+00 0.  1.
</event>
<event>
 4    1  0.5465458E+003  0.2140332E+02  0.7546771E-02  0.1513584E+00
          2   -1    0    0  501    0  0.00000000000E+00  0.00000000000E+00  0.15662457224E+04  0.15662457224E+04  0.00000000000E+00 0. -1.
         -2   -1    0    0    0  501 -0.00000000000E+00 -0.00000000000E+00 -0.29315902609E+00  0.29315902609E+00  0.00000000000E+00 0. -1.
          2    1    1    2  502    0 -0.21199735198E+02 -0.29449474699E+01  0.74538503478E+03  0.74569226331E+03  0.00000000000E+00 0. -1.
         -2    1    1    2    0  502  0.21199735198E+02  0.29449474699E+01  0.82056752859E+03  0.82084661811E+03  0.00000000000E+00 0. -1.
</event>
<event>
 4    1  0.5465458E+003  0.2092838E+02  0.7546771E-02  0.1520290E+00
          2   -1    0    0  501    0  0.00000000000E+00  0.00000000000E+00  0.13573984698E+03  0.13573984698E+03  0.00000000000E+00 0.  1.
         -2   -1    0    0    0  501 -0.00000000000E+00 -0.00000000000E+00 -0.65150991538E+02  0.65150991538E+02  0.00000000000E+00 0. -1.
          2    1    1    2  502    0  0.14792825090E+02 -0.14804371256E+02  0.13322087683E+03  0.13485473335E+03  0.00000000000E+00 0.  1.
         -2    1    1    2    0  502 -0.14792825090E+02  0.14804371256E+02 -0.62632021391E+02  0.66036105169E+02  0.00000000000E+00 0. -1.
</event>
<event>
 4    1  0.5465458E+003  0.2324201E+02  0.7546771E-02  0.1489481E+00
          2   -1    0    0  501    0  0.00000000000E+00  0.00000000000E+00  0.83202482818E+03  0.83202482818E+03  0.00000000000E+00 0. -1.
         -2   -1    0    0    0  501 -0.00000000000E+00 -0.00000000000E+00 -0.65187952750E+01  0.65187952750E+01  0.00000000000E+00 0.  1.
          2    1    1    2  502    0  0.22279197333E+02 -0.66203191586E+01  0.81059834297E+03  0.81093147977E+03  0.00000000000E+00 0. -1.
         -2    1    1    2    0  502 -0.22279197333E+02  0.66203191586E+01  0.14907689935E+02  0.27612143683E+02  0.00000000000E+00 0.  1.
</event>
<event>
 4    1  0.5465458E+003  0.2615439E+02  0.7546771E-02  0.1456292E+00
          2   -1    0    0  501    0  0.00000000000E+00  0.00000000000E+00  0.38148041469E+02  0.38148041469E+02  0.00000000000E+00 0.  1.
         -2   -1    0    0    0  501 -0.00000000000E+00 -0.00000000000E+00 -0.37542090717E+02  0.37542090717E+02  0.00000000000E+00 0.  1.
          2    1    1    2  502    0  0.13934514270E+02 -0.22133270895E+02  0.27655357627E+02  0.38064040431E+02  0.00000000000E+00 0.  1.
         -2    1    1    2    0  502 -0.13934514270E+02  0.22133270895E+02 -0.27049406875E+02  0.37626091755E+02  0.00000000000E+00 0.  1.
</event>
<event>
 4    1  0.5465458E+003  0.2368645E+02  0.7546771E-02  0.1484054E+00
          2   -1    0    0  501    0  0.00000000000E+00  0.00000000000E+00  0.26522694848E+03  0.26522694848E+03  0.00000000000E+00 0. -1.
         -2   -1    0    0    0  501 -0.00000000000E+00 -0.00000000000E+00 -0.59304082640E+01  0.59304082640E+01  0.00000000000E+00 0.  1.
          2    1    1    2  502    0 -0.22065393304E+02  0.86119937759E+01  0.23839085342E+03  0.23956470319E+03  0.00000000000E+00 0. -1.
         -2    1    1    2    0  502  0.22065393304E+02 -0.86119937759E+01  0.20905686797E+02  0.31592653559E+02  0.00000000000E+00 0.  1.
</event>
<event>
 4    1  0.5465458E+003  0.4287913E+02  0.7546771E-02  0.1332393E+00
          2   -1    0    0  501    0  0.00000000000E+00  0.00000000000E+00  0.17148761298E+03  0.17148761298E+03  0.00000000000E+00 0. -1.
         -2   -1    0    0    0  501 -0.00000000000E+00 -0.00000000000E+00 -0.94761926460E+02  0.94761926460E+02  0.00000000000E+00 0. -1.
          2    1    1    2  502    0 -0.34662940062E+02 -0.25240846105E+02  0.16373059064E+03  0.16925225564E+03  0.00000000000E+00 0. -1.
         -2    1    1    2    0  502  0.34662940062E+02  0.25240846105E+02 -0.87004904118E+02  0.96997283809E+02  0.00000000000E+00 0. -1.
</event>
<event>
 4    1  0.5465458E+003  0.2266825E+02  0.7546771E-02  0.1496706E+00
          2   -1    0    0  501    0  0.00000000000E+00  0.00000000000E+00  0.61337361392E+03  0.61337361392E+03  0.00000000000E+00 0. -1.
         -2   -1    0    0    0  501 -0.00000000000E+00 -0.00000000000E+00 -0.50954696447E+02  0.50954696447E+02  0.00000000000E+00 0.  1.
          2    1    1    2  502    0 -0.19548597936E+02 -0.11476147070E+02  0.61063175142E+03  0.61105235903E+03  0.00000000000E+00 0. -1.
         -2    1    1    2    0  502  0.19548597936E+02  0.11476147070E+02 -0.48212833952E+02  0.53275951334E+02  0.00000000000E+00 0.  1.
</event>
<event>
 4    1  0.5465458E+003  0.2104399E+02  0.7546771E-02  0.1518638E+00
          2   -1    0    0  501    0  0.00000000000E+00  0.00000000000E+00  0.68964403671E+00  0.68964403671E+00  0.00000000000E+00 0. -1.
         -2   -1    0    0    0  501 -0.00000000000E+00 -0.00000000000E+00 -0.72547381439E+03  0.72547381439E+03  0.00000000000E+00 0.  1.
          2    1    1    2  502    0  0.20351577453E+02 -0.53537701562E+01 -0.23933734613E+03  0.24026072258E+03  0.00000000000E+00 0. -1.
         -2    1    1    2    0  502 -0.20351577453E+02  0.53537701562E+01 -0.48544682423E+03  0.48590273585E+03  0.00000000000E+00 0.  1.
</event>
<event>
 4    1  0.5465458E+003  0.2139705E+02  0.7546771E-02  0.1513671E+00
          2   -1    0    0  501    0  0.00000000000E+00  0.00000000000E+00  0.13372130424E+02  0.13372130424E+02  0.00000000000E+00 0. -1.
         -2   -1    0    0    0  501 -0.00000000000E+00 -0.00000000000E+00 -0.95547743803E+02  0.95547743803E+02  0.00000000000E+00 0. -1.
          2    1    1    2  502    0 -0.19686239620E+02 -0.83836521311E+01  0.25368502799E+01  0.21546908428E+02  0.00000000000E+00 0. -1.
         -2    1    1    2    0  502  0.19686239620E+02  0.83836521311E+01 -0.84712463658E+02  0.87372965799E+02  0.00000000000E+00 0. -1.
</event>
<event>
 4    1  0.5465458E+003  0.2563431E+02  0.7546771E-02  0.1461831E+00
          2   -1    0    0  501    0  0.00000000000E+00  0.00000000000E+00  0.84181390865E+01  0.84181390865E+01  0.00000000000E+00 0. -1.
         -2   -1    0    0    0  501 -0.00000000000E+00 -0.00000000000E+00 -0.16316189451E+03  0.16316189451E+03  0.00000000000E+00 0.  1.
          2    1    1    2  502    0  0.25442722273E+02 -0.31282232144E+01 -0.15413845563E+02  0.29911611996E+02  0.00000000000E+00 0. -1.
         -2    1    1    2    0  502 -0.25442722273E+02  0.31282232144E+01 -0.13932990986E+03  0.14166842160E+03  0.00000000000E+00 0.  1.
</event>
<event>
 4    1  0.5465458E+003  0.2212976E+02  0.7546771E-02  0.1503725E+00
          2   -1    0    0  501    0  0.00000000000E+00  0.00000000000E+00  0.62890986695E+02  0.62890986695E+02  0.00000000000E+00 0.  1.
         -2   -1    0    0    0  501 -0.00000000000E+00 -0.00000000000E+00 -0.15920414834E+02  0.15920414834E+02  0.00000000000E+00 0. -1.
          2    1    1    2  502    0  0.20098689888E+02 -0.92611591672E+01  0.51650998986E+02  0.56192099983E+02  0.00000000000E+00 0.  1.
         -2    1    1    2    0  502 -0.20098689888E+02  0.92611591672E+01 -0.46804271252E+01  0.22619301545E+02  0.00000000000E+00 0. -1.
</event>
<event>
 4    1  0.5465458E+003  0.2013541E+02  0.7546771E-02  0.1531976E+00
          2   -1    0    0  501    0  0.00000000000E+00  0.00000000000E+00  0.28659227594E+03  0.28659227594E+03  0.00000000000E+00 0. -1.
         -2   -1    0    0    0  501 -0.00000000000E+00 -0.00000000000E+00 -0.14516834921E+01  0.14516834921E+01  0.00000000000E+00 0.  1.
          2    1    1    2  502    0 -0.17905660800E+02  0.92098865899E+01  0.16556607784E+03  0.16678597313E+03  0.00000000000E+00 0. -1.
         -2    1    1    2    0  502  0.17905660800E+02 -0.92098865899E+01  0.11957451460E+03  0.12125798630E+03  0.00000000000E+00 0.  1.
</event>
<event>
 4    1  0.5465458E+003  0.2074386E+02  0.7546771E-02  0.1522953E+00
          2   -1    0    0  501    0  0.00000000000E+00  0.00000000000E+00  0.13562633103E+02  0.13562633103E+02  0.00000000000E+00 0.  1.
         -2   -1    0    0    0  501 -0.00000000000E+00 -0.00000000000E+00 -0.55477372419E+03  0.55477372419E+03  0.00000000000E+00 0.  1.
          2    1    1    2  502    0 -0.18435498588E+02  0.95100081011E+01  0.53172334486E+01  0.21414500550E+02  0.00000000000E+00 0.  1.
         -2    1    1    2    0  502  0.18435498588E+02 -0.95100081011E+01 -0.54652832454E+03  0.54692185674E+03  0.00000000000E+00 0.  1.
</event>
<event>
 4    1  0.5465458E+003  0.2502356E+02  0.7546771E-02  0.1468540E+00
          2   -1    0    0  501    0  0.00000000000E+00  0.00000000000E+00  0.94118887564E+03  0.94118887564E+03  0.00000000000E+00 0. -1.
         -2   -1    0    0    0  501 -0.00000000000E+00 -0.00000000000E+00 -0.19343847003E+02  0.19343847003E+02  0.00000000000E+00 0. -1.
          2    1    1    2  502    0 -0.20511032807E+02 -0.14334432687E+02  0.93285755230E+03  0.93319311576E+03  0.00000000000E+00 0. -1.
         -2    1    1    2    0  502  0.20511032807E+02  0.14334432687E+02 -0.11012523658E+02  0.27339606884E+02  0.00000000000E+00 0. -1.
</event>
<event>
 4    1  0.5465458E+003  0.2969348E+02  0.7546771E-02  0.1422279E+00
          2   -1    0    0  501    0  0.00000000000E+00  0.00000000000E+00  0.76443837626E+03  0.76443837626E+03  0.00000000000E+00 0. -1.
         -2   -1    0    0    0  501 -0.00000000000E+00 -0.00000000000E+00 -0.11147681737E+03  0.11147681737E+03  0.00000000000E+00 0.  1.
          2    1    1    2  502    0  0.12002546652E+01 -0.29669211584E+02  0.76216681238E+03  0.76274501153E+03  0.00000000000E+00 0. -1.
         -2    1    1    2    0  502 -0.12002546652E+01  0.29669211584E+02 -0.10920525349E+03  0.11317018210E+03  0.00000000000E+00 0.  1.
</event>
<event>
 4    1  0.5465458E+003  0.6558656E+02  0.7546771E-02  0.1241948E+00
          2   -1    0    0  501    0  0.00000000000E+00  0.00000000000E+00  0.13658027457E+03  0.13658027457E+03  0.00000000000E+00 0.  1.
         -2   -1    0    0    0  501 -0.00000000000E+00 -0.00000000000E+00 -0.96029621478E+02  0.96029621478E+02  0.00000000000E+00 0. -1.
          2    1    1    2  502    0 -0.87208472853E+01 -0.65004181117E+02  0.11561901350E+03  0.13292611866E+03  0.00000000000E+00 0.  1.
         -2    1    1    2    0  502  0.87208472853E+01  0.65004181117E+02 -0.75068360405E+02  0.99683777387E+02  0.00000000000E+00 0. -1.
</event>
<event>
 4    1  0.5465458E+003  0.4171114E+02  0.7546771E-02  0.1338740E+00
          2   -1    0    0  501    0  0.00000000000E+00  0.00000000000E+00  0.18979294961E+04  0.18979294961E+04  0.00000000000E+00 0.  1.
         -2   -1    0    0    0  501 -0.00000000000E+00 -0.00000000000E+00 -0.15200182414E+01  0.15200182414E+01  0.00000000000E+00 0. -1.
          2    1    1    2  502    0 -0.38714568394E+02 -0.15524215263E+02  0.15465461131E+04  0.15471084962E+04  0.00000000000E+00 0.  1.
         -2    1    1    2    0  502  0.38714568394E+02  0.15524215263E+02  0.34986336471E+03  0.35234101809E+03  0.00000000000E+00 0. -1.
</event>
<event>
 4    1  0.5465458E+003  0.1021406E+03  0.7546771E-02  0.1160150E+00
          2   -1    0    0  501    0  0.00000000000E+00  0.00000000000E+00  0.97539143053E+03  0.97539143053E+03  0.00000000000E+00 0.  1.
         -2   -1    0    0    0  501 -0.00000000000E+00 -0.00000000000E+00 -0.38102373089E+03  0.38102373089E+03  0.00000000000E+00 0. -1.
          2    1    1    2  502    0 -0.75741620519E+02 -0.68526649568E+02  0.96580452158E+03  0.97119054191E+03  0.00000000000E+00 0.  1.
         -2    1    1    2    0  502  0.75741620519E+02  0.68526649568E+02 -0.37143682195E+03  0.38522461951E+03  0.00000000000E+00 0. -1.
</event>
<event>
 4    1  0.5465458E+003  0.2458341E+02  0.7546771E-02  0.1473518E+00
          2   -1    0    0  501    0  0.00000000000E+00  0.00000000000E+00  0.10402617509E+01  0.10402617509E+01  0.00000000000E+00 0.  1.
         -2   -1    0    0    0  501 -0.00000000000E+00 -0.00000000000E+00 -0.11660293456E+04  0.11660293456E+04  0.00000000000E+00 0. -1.
          2    1    1    2  502    0 -0.18298540470E+02 -0.16416679088E+02 -0.16914446223E+03  0.17092159910E+03  0.00000000000E+00 0.  1.
         -2    1    1    2    0  502  0.18298540470E+02  0.16416679088E+02 -0.99584462159E+03  0.99614800822E+03  0.00000000000E+00 0. -1.
</event>
<event>
 4    1  0.5465458E+003  0.5145320E+02  0.7546771E-02  0.1291992E+00
          2   -1    0    0  501    0  0.00000000000E+00  0.00000000000E+00  0.54306053815E+02  0.54306053815E+02  0.00000000000E+00 0.  1.
         -2   -1    0    0    0  501 -0.00000000000E+00 -0.00000000000E+00 -0.14001378335E+03  0.14001378335E+03  0.00000000000E+00 0. -1.
          2    1    1    2  502    0 -0.39003483244E+02 -0.33558302480E+02  0.35588465781E+02  0.62561731651E+02  0.00000000000E+00 0.  1.
         -2    1    1    2    0  502  0.39003483244E+02  0.33558302480E+02 -0.12129619532E+03  0.13175810552E+03  0.00000000000E+00 0. -1.
</event>
<event>
 4    1  0.5465458E+003  0.3409742E+02  0.7546771E-02  0.1387022E+00
          2   -1    0    0  501    0  0.00000000000E+00  0.00000000000E+00  0.87317847339E+03  0.87317847339E+03  0.00000000000E+00 0.  1.
         -2   -1    0    0    0  501 -0.00000000000E+00 -0.00000000000E+00 -0.24252510182E+01  0.24252510182E+01  0.00000000000E+00 0.  1.
          2    1    1    2  502    0  0.27536206724E+02 -0.20109486855E+02  0.72938462816E+03  0.73018118980E+03  0.00000000000E+00 0.  1.
         -2    1    1    2    0  502 -0.27536206724E+02  0.20109486855E+02  0.14136859421E+03  0.14542253461E+03  0.00000000000E+00 0.  1.
</event>
<event>
 4    1  0.5465458E+003  0.2416470E+02  0.7546771E-02  0.1478369E+00
          2   -1    0    0  501    0  0.00000000000E+00  0.00000000000E+00  0.13323770219E+03  0.13323770219E+03  0.00000000000E+00 0. -1.
         -2   -1    0    0    0  501 -0.00000000000E+00 -0.00000000000E+00 -0.43859818281E+01  0.43859818281E+01  0.00000000000E+00 0.  1.
          2    1    1    2  502    0 -0.23935404790E+02  0.33210255241E+01  0.66325433420E+02  0.70590338796E+02  0.00000000000E+00 0. -1.
         -2    1    1    2    0  502  0.23935404790E+02 -0.33210255241E+01  0.62526286946E+02  0.67033345226E+02  0.00000000000E+00 0.  1.
</event>
<event>
 4    1  0.5465458E+003  0.2635307E+02  0.7546771E-02  0.1454217E+00
          2   -1    0    0  501    0  0.00000000000E+00  0.00000000000E+00  0.50641477118E+03  0.50641477118E+03  0.00000000000E+00 0.  1.
         -2   -1    0    0    0  501 -0.00000000000E+00 -0.00000000000E+00 -0.59178709146E+03  0.59178709146E+03  0.00000000000E+00 0.  1.
          2    1    1    2  502    0 -0.21749299482E+02 -0.14881268043E+02  0.50577817430E+03  0.50646425912E+03  0.00000000000E+00 0.  1.
         -2    1    1    2    0  502  0.21749299482E+02  0.14881268043E+02 -0.59115049458E+03  0.59173760351E+03  0.00000000000E+00 0.  1.
</event>
<event>
 4    1  0.5465458E+003  0.2996351E+02  0.7546771E-02  0.1419914E+00
          2   -1    0    0  501    0  0.00000000000E+00  0.00000000000E+00  0.48774184921E+02  0.48774184921E+02  0.00000000000E+00 0.  1.
         -2   -1    0    0    0  501 -0.00000000000E+00 -0.00000000000E+00 -0.11975790705E+03  0.11975790705E+03  0.00000000000E+00 0.  1.
          2    1    1    2  502    0 -0.91633699629E+01 -0.28527962185E+02  0.42028040875E+02  0.51615580935E+02  0.00000000000E+00 0.  1.
         -2    1    1    2    0  502  0.91633699629E+01  0.28527962185E+02 -0.11301176300E+03  0.11691651103E+03  0.00000000000E+00 0.  1.
</event>
<event>
 4    1  0.5465458E+003  0.3878963E+02  0.7546771E-02  0.1355728E+00
          2   -1    0    0  501    0  0.00000000000E+00  0.00000000000E+00  0.28901646135E+02  0.28901646135E+02  0.00000000000E+00 0.  1.
         -2   -1    0    0    0  501 -0.00000000000E+00 -0.00000000000E+00 -0.11189135207E+03  0.11189135207E+03  0.00000000000E+00 0. -1.
          2    1    1    2  502    0  0.81009959159E+00  0.38781171324E+02  0.99823834697E+01  0.40053507841E+02  0.00000000000E+00 0.  1.
         -2    1    1    2    0  502 -0.81009959159E+00 -0.38781171324E+02 -0.92972089407E+02  0.10073949037E+03  0.00000000000E+00 0. -1.
</event>
<event>
 4    1  0.5465458E+003  0.4215282E+02  0.7546771E-02  0.1336312E+00
          2   -1    0    0  501    0  0.00000000000E+00  0.00000000000E+00  0.42994349589E+02  0.42994349589E+02  0.00000000000E+00 0. -1.
         -2   -1    0    0    0  501 -0.00000000000E+00 -0.00000000000E+00 -0.81550108145E+02  0.81550108145E+02  0.00000000000E+00 0. -1.
          2    1    1    2  502    0 -0.34906104993E+02  0.23630993772E+02  0.24455784951E+02  0.48733412050E+02  0.00000000000E+00 0. -1.
         -2    1    1    2    0  502  0.34906104993E+02 -0.23630993772E+02 -0.63011543508E+02  0.75811045684E+02  0.00000000000E+00 0. -1.
</event>
<event>
 4    1  0.5465458E+003  0.3489661E+02  0.7546771E-02  0.1381292E+00
          2   -1    0    0  501    0  0.00000000000E+00  0.00000000000E+00  0.93231276863E+03  0.93231276863E+03  0.00000000000E+00 0.  1.
         -2   -1    0    0    0  501 -0.00000000000E+00 -0.00000000000E+00 -0.52993288275E+01  0.52993288275E+01  0.00000000000E+00 0.  1.
          2    1    1    2  502    0 -0.49062170609E+01  0.34549994314E+02  0.87045595994E+03  0.87115518208E+03  0.00000000000E+00 0.  1.
         -2    1    1    2    0  502  0.49062170609E+01 -0.34549994314E+02  0.56557479865E+02  0.66456915379E+02  0.00000000000E+00 0.  1.
</event>
<event>
 4    1  0.5465458E+003  0.2045119E+02  0.7546771E-02  0.1527247E+00
          2   -1    0    0  501    0  0.00000000000E+00  0.00000000000E+00  0.14244619487E+02  0.14244619487E+02  0.00000000000E+00 0.  1.
         -2   -1    0    0    0  501 -0.00000000000E+00 -0.00000000000E+00 -0.13160647654E+03  0.13160647654E+03  0.00000000000E+00 0. -1.
          2    1    1    2  502    0  0.13906603741E+02 -0.14995249400E+02  0.55968570624E+01  0.21203205917E+02  0.00000000000E+00 0.  1.
         -2    1    1    2    0  502 -0.13906603741E+02  0.14995249400E+02 -0.12295871411E+03  0.12464789011E+03  0.00000000000E+00 0. -1.
</event>
<event>
 4    1  0.5465458E+003  0.2605400E+02  0.7546771E-02  0.1457349E+00
          2   -1    0    0  501    0  0.00000000000E+00  0.00000000000E+00  0.22056391786E+03  0.22056391786E+03  0.00000000000E+00 0. -1.
         -2   -1    0    0    0  501 -0.00000000000E+00 -0.00000000000E+00 -0.40391221485E+01  0.40391221485E+01  0.00000000000E+00 0.  1.
          2    1    1    2  502    0  0.22311214168E+02 -0.13454394963E+02  0.16305452936E+03  0.16512295590E+03  0.00000000000E+00 0. -1.
         -2    1    1    2    0  502 -0.22311214168E+02  0.13454394963E+02  0.53470266356E+02  0.59480084110E+02  0.00000000000E+00 0.  1.
</event>
<event>
 4    1  0.5465458E+003  0.2471757E+02  0.7546771E-02  0.1471988E+00
          2   -1    0    0  501    0  0.00000000000E+00  0.00000000000E+00  0.10784075768E+04  0.10784075768E+04  0.00000000000E+00 0. -1.
         -2   -1    0    0    0  501 -0.00000000000E+00 -0.00000000000E+00 -0.45732339150E+02  0.45732339150E+02  0.00000000000E+00 0.  1.
          2    1    1    2  502    0 -0.21160638931E+02 -0.12774420814E+02  0.10749152326E+04  0.10751993842E+04  0.00000000000E+00 0. -1.
         -2    1    1    2    0  502  0.21160638931E+02  0.12774420814E+02 -0.42239995002E+02  0.48940531718E+02  0.00000000000E+00 0.  1.
</event>
<event>
 4    1  0.5465458E+003  0.2141877E+02  0.7546771E-02  0.1513369E+00
          2   -1    0    0  501    0  0.00000000000E+00  0.00000000000E+00  0.11690894048E+03  0.11690894048E+03  0.00000000000E+00 0.  1.
         -2   -1    0    0    0  501 -0.00000000000E+00 -0.00000000000E+00 -0.39341890360E+01  0.39341890360E+01  0.00000000000E+00 0. -1.
          2    1    1    2  502    0 -0.12439314376E+02  0.17436370123E+02  0.59545628265E+02  0.63280687344E+02  0.00000000000E+00 0.  1.
         -2    1    1    2    0  502  0.12439314376E+02 -0.17436370123E+02  0.53429123181E+02  0.57562442175E+02  0.00000000000E+00 0. -1.
</event>
<event>
 4    1  0.5465458E+003  0.2010146E+02  0.7546771E-02  0.1532490E+00
          2   -1    0    0  501    0  0.00000000000E+00  0.00000000000E+00  0.15696553783E+02  0.15696553783E+02  0.00000000000E+00 0.  1.
         -2   -1    0    0    0  501 -0.00000000000E+00 -0.00000000000E+00 -0.57797708699E+03  0.57797708699E+03  0.00000000000E+00 0.  1.
          2    1    1    2  502    0  0.14976458151E+02 -0.13407998687E+02  0.90108571553E+01  0.22028714765E+02  0.00000000000E+00 0.  1.
         -2    1    1    2    0  502 -0.14976458151E+02  0.13407998687E+02 -0.57129139036E+03  0.57164492600E+03  0.00000000000E+00 0.  1.
</event>
<event>
 4    1  0.5465458E+003  0.9046738E+02  0.7546771E-02  0.1181437E+00
          2   -1    0    0  501    0  0.00000000000E+00  0.00000000000E+00  0.10108990256E+04  0.10108990256E+04  0.00000000000E+00 0. -1.
         -2   -1    0    0    0  501 -0.00000000000E+00 -0.00000000000E+00 -0.19020266172E+02  0.19020266172E+02  0.00000000000E+00 0. -1.
          2    1    1    2  502    0  0.11957694170E+02  0.89673634832E+02  0.88620374780E+03  0.89080942398E+03  0.00000000000E+00 0. -1.
         -2    1    1    2    0  502 -0.11957694170E+02 -0.89673634832E+02  0.10567501161E+03  0.13910986778E+03  0.00000000000E+00 0. -1.
</event>
<event>
 4    1  0.5465458E+003  0.2137405E+02  0.7546771E-02  0.1513991E+00
          2   -1    0    0  501    0  0.00000000000E+00  0.00000000000E+00  0.29088183163E+03  0.29088183163E+03  0.00000000000E+00 0.  1.
         -2   -1    0    0    0  501 -0.00000000000E+00 -0.00000000000E+00 -0.21230467697E+02  0.21230467697E+02  0.00000000000E+00 0. -1.
          2    1    1    2  502    0  0.10260549571E+02 -0.18750228318E+02  0.28499864379E+03  0.28579901487E+03  0.00000000000E+00 0.  1.
         -2    1    1    2    0  502 -0.10260549571E+02  0.18750228318E+02 -0.15347279861E+02  0.26313284451E+02  0.00000000000E+00 0. -1.
</event>
<event>
 4    1  0.5465458E+003  0.2044095E+02  0.7546771E-02  0.1527398E+00
          2   -1    0    0  501    0  0.00000000000E+00  0.00000000000E+00  0.26648258734E+03  0.26648258734E+03  0.00000000000E+00 0. -1.
         -2   -1    0    0    0  501 -0.00000000000E+00 -0.00000000000E+00 -0.86549991603E+02  0.86549991603E+02  0.00000000000E+00 0. -1.
          2    1    1    2  502    0 -0.20138058073E+02  0.35058407328E+01  0.26487638086E+03  0.26566394080E+03  0.00000000000E+00 0. -1.
         -2    1    1    2    0  502  0.20138058073E+02 -0.35058407328E+01 -0.84943785118E+02  0.87368638151E+02  0.00000000000E+00 0. -1.
</event>
<event>
 4    1  0.5465458E+003  0.9679138E+02  0.7546771E-02  0.1169487E+00
          2   -1    0    0  501    0  0.00000000000E+00  0.00000000000E+00  0.12236123581E+04  0.12236123581E+04  0.00000000000E+00 0. -1.
         -2   -1    0    0    0  501 -0.00000000000E+00 -0.00000000000E+00 -0.14899681598E+02  0.14899681598E+02  0.00000000000E+00 0.  1.
          2    1    1    2  502    0  0.53853051787E+02 -0.80426491062E+02  0.10361207385E+04  0.10406319025E+04  0.00000000000E+00 0. -1.
         -2    1    1    2    0  502 -0.53853051787E+02  0.80426491062E+02  0.17259193797E+03  0.19788013721E+03  0.00000000000E+00 0.  1.
</event>
<event>
 4    1  0.5465458E+003  0.2466169E+02  0.7546771E-02  0.1472624E+00
          2   -1    0    0  501    0  0.00000000000E+00  0.00000000000E+00  0.57913958584E+02  0.57913958584E+02  0.00000000000E+00 0. -1.
         -2   -1    0    0    0  501 -0.00000000000E+00 -0.00000000000E+00 -0.10782222229E+02  0.10782222229E+02  0.00000000000E+00 0. -1.
          2    1    1    2  502    0 -0.13272296069E+02 -0.20785696997E+02  0.29105466951E+02  0.38148751605E+02  0.00000000000E+00 0. -1.
         -2    1    1    2    0  502  0.13272296069E+02  0.20785696997E+02  0.18026269404E+02  0.30547429208E+02  0.00000000000E+00 0. -1.
</event>
<event>
 4    1  0.5465458E+003  0.2064130E+02  0.7546771E-02  0.1524448E+00
          2   -1    0    0  501    0  0.00000000000E+00  0.00000000000E+00  0.41348563842E+00  0.41348563842E+00  0.00000000000E+00 0.  1.
         -2   -1    0    0    0  501 -0.00000000000E+00 -0.00000000000E+00 -0.11480916958E+04  0.11480916958E+04  0.00000000000E+00 0.  1.
          2    1    1    2  502    0  0.67829824254E+01  0.19494984154E+02 -0.38999342866E+03  0.39053929080E+03  0.00000000000E+00 0.  1.
         -2    1    1    2    0  502 -0.67829824254E+01 -0.19494984154E+02 -0.75768478153E+03  0.75796589067E+03  0.00000000000E+00 0.  1.
</event>
<event>
 4    1  0.5465458E+003  0.2446404E+02  0.7546771E-02  0.1474889E+00
          2   -1    0    0  501    0  0.00000000000E+00  0.00000000000E+00  0.54934287324E+01  0.54934287324E+01  0.00000000000E+00 0. -1.
         -2   -1    0    0    0  501 -0.00000000000E+00 -0.00000000000E+00 -0.26532193402E+03  0.26532193402E+03  0.00000000000E+00 0. -1.
          2    1    1    2  502    0 -0.22789819604E+02 -0.88945714093E+01 -0.25960270878E+02  0.35671065896E+02  0.00000000000E+00 0. -1.
         -2    1    1    2    0  502  0.22789819604E+02  0.88945714093E+01 -0.23386823441E+03  0.23514429685E+03  0.00000000000E+00 0. -1.
</event>
<event>
 4    1  0.5465458E+003  0.2810621E+02  0.7546771E-02  0.1436802E+00
          2   -1    0    0  501    0  0.00000000000E+00  0.00000000000E+00  0.18256939412E+02  0.18256939412E+02  0.00000000000E+00 0. -1.
         -2   -1    0    0    0  501 -0.00000000000E+00 -0.00000000000E+00 -0.49561175608E+03  0.49561175608E+03  0.00000000000E+00 0. -1.
          2    1    1    2  502    0  0.20686429311E+02  0.19027100759E+02  0.67851190812E+01  0.28913608593E+02  0.00000000000E+00 0. -1.
         -2    1    1    2    0  502 -0.20686429311E+02 -0.19027100759E+02 -0.48413993575E+03  0.48495508690E+03  0.00000000000E+00 0. -1.
</event>
<event>
 4    1  0.5465458E+003  0.2283328E+02  0.7546771E-02  0.1494602E+00
          2   -1    0    0  501    0  0.00000000000E+00  0.00000000000E+00  0.30904221997E+03  0.30904221997E+03  0.00000000000E+00 0. -1.
         -2   -1    0    0    0  501 -0.00000000000E+00 -0.00000000000E+00 -0.16918501533E+02  0.16918501533E+02  0.00000000000E+00 0.  1.
          2    1    1    2  502    0 -0.14710796188E+02  0.17462854441E+02  0.30070315319E+03  0.30156880665E+03  0.00000000000E+00 0. -1.
         -2    1    1    2    0  502  0.14710796188E+02 -0.17462854441E+02 -0.85794347459E+01  0.24391914855E+02  0.00000000000E+00 0.  1.
</event>
<event>
 4    1  0.5465458E+003  0.3663957E+02  0.7546771E-02  0.1369389E+00
          2   -1    0    0  501    0  0.00000000000E+00  0.00000000000E+00  0.31535719200E+03  0.31535719200E+03  0.00000000000E+00 0.  1.
         -2   -1    0    0    0  501 -0.00000000000E+00 -0.00000000000E+00 -0.79440613829E+01  0.79440613829E+01  0.00000000000E+00 0.  1.
          2    1    1    2  502    0  0.35410975631E+02  0.94085502865E+01  0.26383502347E+03  0.26636699799E+03  0.00000000000E+00 0.  1.
         -2    1    1    2    0  502 -0.35410975631E+02 -0.94085502865E+01  0.43578107148E+02  0.56934255385E+02  0.00000000000E+00 0.  1.
</event>
<event>
 4    1  0.5465458E+003  0.4383132E+02  0.7546771E-02  0.1327388E+00
          2   -1    0    0  501    0  0.00000000000E+00  0.00000000000E+00  0.84493347676E+03  0.84493347676E+03  0.00000000000E+00 0.  1.
         -2   -1    0    0    0  501 -0.00000000000E+00 -0.00000000000E+00 -0.43444949541E+01  0.43444949541E+01  0.00000000000E+00 0.  1.
          2    1    1    2  502    0  0.43305387147E+02  0.67696332993E+01  0.71345901268E+03  0.71480413210E+03  0.00000000000E+00 0.  1.
         -2    1    1    2    0  502 -0.43305387147E+02 -0.67696332993E+01  0.12712996913E+03  0.13447383961E+03  0.00000000000E+00 0.  1.
</event>
<event>
 4    1  0.5465458E+003  0.2863826E+02  0.7546771E-02  0.1431811E+00
          2   -1    0    0  501    0  0.00000000000E+00  0.00000000000E+00  0.17564776054E+03  0.17564776054E+03  0.00000000000E+00 0. -1.
         -2   -1    0    0    0  501 -0.00000000000E+00 -0.00000000000E+00 -0.81308047500E+02  0.81308047500E+02  0.00000000000E+00 0. -1.
          2    1    1    2  502    0 -0.45892335265E+01  0.28268158512E+02  0.17190416170E+03  0.17427332171E+03  0.00000000000E+00 0. -1.
         -2    1    1    2    0  502  0.45892335265E+01 -0.28268158512E+02 -0.77564448660E+02  0.82682486331E+02  0.00000000000E+00 0. -1.
</event>
<event>
 4    1  0.5554179E+003  0.2356042E+02  0.7546771E-02  0.1485578E+00
          2   -1    0    0  501    0  0.00000000000E+00  0.00000000000E+00  0.70447924355E+03  0.70447924355E+03  0.00000000000E+00 0. -1.
         -2   -1    0    0    0  501 -0.00000000000E+00 -0.00000000000E+00 -0.51689329717E+03  0.51689329717E+03  0.00000000000E+00 0.  1.
          2    1    1    2  502    0  0.74934544919E+01 -0.22336998713E+02  0.70401360310E+03  0.70440772761E+03  0.00000000000E+00 0. -1.
         -2    1    1    2    0  502 -0.74934544919E+01  0.22336998713E+02 -0.51642765672E+03  0.51696481311E+03  0.00000000000E+00 0.  1.
</event>
<event>
 4    1  0.5465458E+003  0.6232871E+02  0.7546771E-02  0.1252119E+00
          2   -1    0    0  501    0  0.00000000000E+00  0.00000000000E+00  0.95832097193E+03  0.95832097193E+03  0.00000000000E+00 0. -1.
         -2   -1    0    0    0  501 -0.00000000000E+00 -0.00000000000E+00 -0.12523802534E+02  0.12523802534E+02  0.00000000000E+00 0. -1.
          2    1    1    2  502    0 -0.38948805422E+01 -0.62206892877E+02  0.87210064038E+03  0.87432510805E+03  0.00000000000E+00 0. -1.
         -2    1    1    2    0  502  0.38948805422E+01  0.62206892877E+02  0.73696529016E+02  0.96519666415E+02  0.00000000000E+00 0. -1.
</event>
<event>
 4    1  0.5465458E+003  0.2190889E+02  0.7546771E-02  0.1506673E+00
          2   -1    0    0  501    0  0.00000000000E+00  0.00000000000E+00  0.23589782413E+03  0.23589782413E+03  0.00000000000E+00 0. -1.
         -2   -1    0    0    0  501 -0.00000000000E+00 -0.00000000000E+00 -0.97259799802E+01  0.97259799802E+01  0.00000000000E+00 0.  1.
          2    1    1    2  502    0  0.21575160887E+02 -0.38094465001E+01  0.22229806040E+03  0.22337508166E+03  0.00000000000E+00 0. -1.
         -2    1    1    2    0  502 -0.21575160887E+02  0.38094465001E+01  0.38737837470E+01  0.22248722445E+02  0.00000000000E+00 0.  1.
</event>
<event>
 4    1  0.5465458E+003  0.2031535E+02  0.7546771E-02  0.1529268E+00
          2   -1    0    0  501    0  0.00000000000E+00  0.00000000000E+00  0.98100012248E+03  0.98100012248E+03  0.00000000000E+00 0. -1.
         -2   -1    0    0    0  501 -0.00000000000E+00 -0.00000000000E+00 -0.88093082997E+00  0.88093082997E+00  0.00000000000E+00 0. -1.
          2    1    1    2  502    0  0.34186614017E+01  0.20025640535E+02  0.84490777070E+03  0.84515197125E+03  0.00000000000E+00 0. -1.
         -2    1    1    2    0  502 -0.34186614017E+01 -0.20025640535E+02  0.13521142095E+03  0.13672908205E+03  0.00000000000E+00 0. -1.
</event>
<event>
 4    1  0.5465458E+003  0.2655292E+02  0.7546771E-02  0.1452152E+00
          2   -1    0    0  501    0  0.00000000000E+00  0.00000000000E+00  0.31834295349E+03  0.31834295349E+03  0.00000000000E+00 0.  1.
         -2   -1    0    0    0  501 -0.00000000000E+00 -0.00000000000E+00 -0.50190119954E+01  0.50190119954E+01  0.00000000000E+00 0. -1.
          2    1    1    2  502    0 -0.21572569350E+02 -0.15481658406E+02  0.27751493498E+03  0.27878234634E+03  0.00000000000E+00 0.  1.
         -2    1    1    2    0  502  0.21572569350E+02  0.15481658406E+02  0.35809006517E+02  0.44579619145E+02  0.00000000000E+00 0. -1.
</event>
<event>
 4    1  0.5465458E+003  0.2156813E+02  0.7546771E-02  0.1511306E+00
          2   -1    0    0  501    0  0.00000000000E+00  0.00000000000E+00  0.47047156026E+02  0.47047156026E+02  0.00000000000E+00 0. -1.
         -2   -1    0    0    0  501 -0.00000000000E+00 -0.00000000000E+00 -0.26879536253E+03  0.26879536253E+03  0.00000000000E+00 0.  1.
          2    1    1    2  502    0 -0.21565601962E+02  0.33016607620E+00  0.44115381768E+02  0.49105509937E+02  0.00000000000E+00 0. -1.
         -2    1    1    2    0  502  0.21565601962E+02 -0.33016607620E+00 -0.26586358827E+03  0.26673700862E+03  0.00000000000E+00 0.  1.
</event>
<event>
 4    1  0.5465458E+003  0.2133779E+02  0.7546771E-02  0.1514496E+00
          2   -1    0    0  501    0  0.00000000000E+00  0.00000000000E+00  0.19533891733E+03  0.19533891733E+03  0.00000000000E+00 0. -1.
         -2   -1    0    0    0  501 -0.00000000000E+00 -0.00000000000E+00 -0.23045816483E+02  0.23045816483E+02  0.00000000000E+00 0. -1.
          2    1    1    2  502    0  0.19042532455E+02  0.96272088039E+01  0.18966996560E+03  0.19086643771E+03  0.00000000000E+00 0. -1.
         -2    1    1    2    0  502 -0.19042532455E+02 -0.96272088039E+01 -0.17376864757E+02  0.27518296103E+02  0.00000000000E+00 0. -1.
</event>
<event>
 4    1  0.5465458E+003  0.2093247E+02  0.7546771E-02  0.1520231E+00
          2   -1    0    0  501    0  0.00000000000E+00  0.00000000000E+00  0.32681111519E+03  0.32681111519E+03  0.00000000000E+00 0. -1.
         -2   -1    0    0    0  501 -0.00000000000E+00 -0.00000000000E+00 -0.12343831912E+02  0.12343831912E+02  0.00000000000E+00 0. -1.
          2    1    1    2  502    0 -0.97281514187E+01  0.18534601591E+02  0.31733704076E+03  0.31802667471E+03  0.00000000000E+00 0. -1.
         -2    1    1    2    0  502  0.97281514187E+01 -0.18534601591E+02 -0.28697574882E+01  0.21128272390E+02  0.00000000000E+00 0. -1.
</event>
<event>
 4    1  0.5465458E+003  0.5324672E+02  0.7546771E-02  0.1284678E+00
          2   -1    0    0  501    0  0.00000000000E+00  0.00000000000E+00  0.56842266364E+03  0.56842266364E+03  0.00000000000E+00 0.  1.
         -2   -1    0    0    0  501 -0.00000000000E+00 -0.00000000000E+00 -0.47299321240E+02  0.47299321240E+02  0.00000000000E+00 0. -1.
          2    1    1    2  502    0  0.88915581261E+01 -0.52499083962E+02  0.55173809932E+03  0.55430149185E+03  0.00000000000E+00 0.  1.
         -2    1    1    2    0  502 -0.88915581261E+01  0.52499083962E+02 -0.30614756923E+02  0.61420493031E+02  0.00000000000E+00 0. -1.
</event>
<event>
 4    1  0.5465458E+003  0.3820201E+02  0.7546771E-02  0.1359357E+00
          2   -1    0    0  501    0  0.00000000000E+00  0.00000000000E+00  0.83978779693E+02  0.83978779693E+02  0.00000000000E+00 0.  1.
         -2   -1    0    0    0  501 -0.00000000000E+00 -0.00000000000E+00 -0.20314394176E+02  0.20314394176E+02  0.00000000000E+00 0.  1.
          2    1    1    2  502    0 -0.37582354036E+02 -0.68527437291E+01  0.51657601393E+02  0.64248744837E+02  0.00000000000E+00 0.  1.
         -2    1    1    2    0  502  0.37582354036E+02  0.68527437291E+01  0.12006784123E+02  0.40044429032E+02  0.00000000000E+00 0.  1.
</event>
<event>
 4    1  0.5465458E+003  0.2129580E+02  0.7546771E-02  0.1515083E+00
          2   -1    0    0  501    0  0.00000000000E+00  0.00000000000E+00  0.38568899651E+03  0.38568899651E+03  0.00000000000E+00 0.  1.
         -2   -1    0    0    0  501 -0.00000000000E+00 -0.00000000000E+00 -0.27625758877E+01  0.27625758877E+01  0.00000000000E+00 0.  1.
          2    1    1    2  502    0  0.96692109478E+01  0.18974126864E+02  0.33866096521E+03  0.33932986972E+03  0.00000000000E+00 0.  1.
         -2    1    1    2    0  502 -0.96692109478E+01 -0.18974126864E+02  0.44265455413E+02  0.49121702674E+02  0.00000000000E+00 0.  1.
</event>
<event>
 4    1  0.5465458E+003  0.2216813E+02  0.7546771E-02  0.1503217E+00
          2   -1    0    0  501    0  0.00000000000E+00  0.00000000000E+00  0.11159436602E+04  0.11159436602E+04  0.00000000000E+00 0.  1.
         -2   -1    0    0    0  501 -0.00000000000E+00 -0.00000000000E+00 -0.79137401379E+00  0.79137401379E+00  0.00000000000E+00 0.  1.
          2    1    1    2  502    0  0.58967234027E+01 -0.21369483795E+02  0.92944204810E+03  0.92970637674E+03  0.00000000000E+00 0.  1.
         -2    1    1    2    0  502 -0.58967234027E+01  0.21369483795E+02  0.18571023813E+03  0.18702865751E+03  0.00000000000E+00 0.  1.
</event>
<event>
 4    1  0.5465458E+003  0.3018537E+02  0.7546771E-02  0.1417992E+00
          2   -1    0    0  501    0  0.00000000000E+00  0.00000000000E+00  0.67998082241E+01  0.67998082241E+01  0.00000000000E+00 0. -1.
         -2   -1    0    0    0  501 -0.00000000000E+00 -0.00000000000E+00 -0.20360870709E+03  0.20360870709E+03  0.00000000000E+00 0. -1.
          2    1    1    2  502    0 -0.81078079471E+01 -0.29076104099E+02 -0.36890282194E+02  0.47666018291E+02  0.00000000000E+00 0. -1.
         -2    1    1    2    0  502  0.81078079471E+01  0.29076104099E+02 -0.15991861668E+03  0.16274249703E+03  0.00000000000E+00 0. -1.
</event>
<event>
 4    1  0.5465458E+003  0.3235763E+02  0.7546771E-02  0.1400157E+00
          2   -1    0    0  501    0  0.00000000000E+00  0.00000000000E+00  0.13134126920E+04  0.13134126920E+04  0.00000000000E+00 0.  1.
         -2   -1    0    0    0  501 -0.00000000000E+00 -0.00000000000E+00 -0.83258677824E+00  0.83258677824E+00  0.00000000000E+00 0.  1.
          2    1    1    2  502    0  0.15712263818E+02  0.28286759505E+02  0.79181620879E+03  0.79247708138E+03  0.00000000000E+00 0.  1.
         -2    1    1    2    0  502 -0.15712263818E+02 -0.28286759505E+02  0.52076389640E+03  0.52176819738E+03  0.00000000000E+00 0.  1.
</event>
<event>
 4    1  0.5465458E+003  0.2464821E+02  0.7546771E-02  0.1472778E+00
          2   -1    0    0  501    0  0.00000000000E+00  0.00000000000E+00  0.20796725557E+04  0.20796725557E+04  0.00000000000E+00 0.  1.
         -2   -1    0    0    0  501 -0.00000000000E+00 -0.00000000000E+00 -0.36331170968E+00  0.36331170968E+00  0.00000000000E+00 0.  1.
          2    1    1    2  502    0 -0.11172242095E+02  0.21970778714E+02  0.15000026280E+04  0.15002051254E+04  0.00000000000E+00 0.  1.
         -2    1    1    2    0  502  0.11172242095E+02 -0.21970778714E+02  0.57930661598E+03  0.57983074206E+03  0.00000000000E+00 0.  1.
</event>
<event>
 4    1  0.5465458E+003  0.2282224E+02  0.7546771E-02  0.1494742E+00
          2   -1    0    0  501    0  0.00000000000E+00  0.00000000000E+00  0.11602090959E+03  0.11602090959E+03  0.00000000000E+00 0. -1.
         -2   -1    0    0    0  501 -0.00000000000E+00 -0.00000000000E+00 -0.73440024477E+01  0.73440024477E+01  0.00000000000E+00 0. -1.
          2    1    1    2  502    0  0.22629684349E+02  0.29583636383E+01  0.92795369751E+02  0.95560636123E+02  0.00000000000E+00 0. -1.
         -2    1    1    2    0  502 -0.22629684349E+02 -0.29583636383E+01  0.15881537389E+02  0.27804275911E+02  0.00000000000E+00 0. -1.
</event>
<event>
 4    1  0.5465458E+003  0.6643125E+02  0.7546771E-02  0.1239419E+00
          2   -1    0    0  501    0  0.00000000000E+00  0.00000000000E+00  0.24250104901E+04  0.24250104901E+04  0.00000000000E+00 0.  1.
         -2   -1    0    0    0  501 -0.00000000000E+00 -0.00000000000E+00 -0.43942398648E+01  0.43942398648E+01  0.00000000000E+00 0. -1.
          2    1    1    2  502    0  0.66424403814E+02 -0.95383061552E+00  0.21400592029E+04  0.21410900269E+04  0.00000000000E+00 0.  1.
         -2    1    1    2    0  502 -0.66424403814E+02  0.95383061552E+00  0.28055704730E+03  0.28831470307E+03  0.00000000000E+00 0. -1.
</event>
<event>
 4    1  0.5465458E+003  0.2077019E+02  0.7546771E-02  0.1522571E+00
          2   -1    0    0  501    0  0.00000000000E+00  0.00000000000E+00  0.80642569703E+03  0.80642569703E+03  0.00000000000E+00 0.  1.
         -2   -1    0    0    0  501 -0.00000000000E+00 -0.00000000000E+00 -0.35700502866E+01  0.35700502866E+01  0.00000000000E+00 0.  1.
          2    1    1    2  502    0  0.20156465178E+02  0.50117498369E+01  0.77485146215E+03  0.77512978857E+03  0.00000000000E+00 0.  1.
         -2    1    1    2    0  502 -0.20156465178E+02 -0.50117498369E+01  0.28004184591E+02  0.34865958749E+02  0.00000000000E+00 0.  1.
</event>
<event>
 4    1  0.5465458E+003  0.3916797E+02  0.7546771E-02  0.1353432E+00
          2   -1    0    0  501    0  0.00000000000E+00  0.00000000000E+00  0.15217526054E+04  0.15217526054E+04  0.00000000000E+00 0.  1.
         -2   -1    0    0    0  501 -0.00000000000E+00 -0.00000000000E+00 -0.21983222175E+01  0.21983222175E+01  0.00000000000E+00 0.  1.
          2    1    1    2  502    0  0.24475059661E+02 -0.30579422137E+02  0.13204418864E+04  0.13210226739E+04  0.00000000000E+00 0.  1.
         -2    1    1    2    0  502 -0.24475059661E+02  0.30579422137E+02  0.19911239680E+03  0.20292825373E+03  0.00000000000E+00 0.  1.
</event>
<event>
 4    1  0.5465458E+003  0.2596213E+02  0.7546771E-02  0.1458322E+00
          2   -1    0    0  501    0  0.00000000000E+00  0.00000000000E+00  0.25839820554E+04  0.25839820554E+04  0.00000000000E+00 0.  1.
         -2   -1    0    0    0  501 -0.00000000000E+00 -0.00000000000E+00 -0.34063117654E+00  0.34063117654E+00  0.00000000000E+00 0. -1.
          2    1    1    2  502    0  0.15001512491E+02  0.21189306501E+02  0.19171724742E+04  0.19173482542E+04  0.00000000000E+00 0.  1.
         -2    1    1    2    0  502 -0.15001512491E+02 -0.21189306501E+02  0.66646895000E+03  0.66697443235E+03  0.00000000000E+00 0. -1.
</event>
<event>
 4    1  0.5465458E+003  0.4227806E+02  0.7546771E-02  0.1335630E+00
          2   -1    0    0  501    0  0.00000000000E+00  0.00000000000E+00  0.48720944383E+03  0.48720944383E+03  0.00000000000E+00 0. -1.
         -2   -1    0    0    0  501 -0.00000000000E+00 -0.00000000000E+00 -0.64687410122E+01  0.64687410122E+01  0.00000000000E+00 0. -1.
          2    1    1    2  502    0 -0.40074789973E+02  0.13470177046E+02  0.40276989149E+03  0.40498274031E+03  0.00000000000E+00 0. -1.
         -2    1    1    2    0  502  0.40074789973E+02 -0.13470177046E+02  0.77970811329E+02  0.88695444530E+02  0.00000000000E+00 0. -1.
</event>
<event>
 4    1  0.5465458E+003  0.2342717E+02  0.7546771E-02  0.1487203E+00
          2   -1    0    0  501    0  0.00000000000E+00  0.00000000000E+00  0.46749231397E+03  0.46749231397E+03  0.00000000000E+00 0.  1.
         -2   -1    0    0    0  501 -0.00000000000E+00 -0.00000000000E+00 -0.12024020949E+01  0.12024020949E+01  0.00000000000E+00 0. -1.
          2    1    1    2  502    0 -0.19351461935E+02 -0.13204284487E+02  0.26916730359E+03  0.27018488027E+03  0.00000000000E+00 0.  1.
         -2    1    1    2    0  502  0.19351461935E+02  0.13204284487E+02  0.19712260829E+03  0.19850983580E+03  0.00000000000E+00 0. -1.
</event>
<event>
 4    1  0.5465458E+003  0.2079833E+02  0.7546771E-02  0.1522164E+00
          2   -1    0    0  501    0  0.00000000000E+00  0.00000000000E+00  0.56692577980E+03  0.56692577980E+03  0.00000000000E+00 0.  1.
         -2   -1    0    0    0  501 -0.00000000000E+00 -0.00000000000E+00 -0.37403059210E+01  0.37403059210E+01  0.00000000000E+00 0.  1.
          2    1    1    2  502    0 -0.20583845775E+02  0.29792136318E+01  0.53616404705E+03  0.53656728914E+03  0.00000000000E+00 0.  1.
         -2    1    1    2    0  502  0.20583845775E+02 -0.29792136318E+01  0.27021426830E+02  0.34098796587E+02  0.00000000000E+00 0.  1.
</event>
<event>
 4    1  0.5465458E+003  0.3672590E+02  0.7546771E-02  0.1368819E+00
          2   -1    0    0  501    0  0.00000000000E+00  0.00000000000E+00  0.49827643540E+03  0.49827643540E+03  0.00000000000E+00 0. -1.
         -2   -1    0    0    0  501 -0.00000000000E+00 -0.00000000000E+00 -0.37037188914E+01  0.37037188914E+01  0.00000000000E+00 0. -1.
          2    1    1    2  502    0  0.35202293594E+02 -0.10468542760E+02  0.37749579125E+03  0.37927808304E+03  0.00000000000E+00 0. -1.
         -2    1    1    2    0  502 -0.35202293594E+02  0.10468542760E+02  0.11707692526E+03  0.12270207125E+03  0.00000000000E+00 0. -1.
</event>
<event>
 4    1  0.5465458E+003  0.2024117E+02  0.7546771E-02  0.1530380E+00
          2   -1    0    0  501    0  0.00000000000E+00  0.00000000000E+00  0.16773717098E+01  0.16773717098E+01  0.00000000000E+00 0. -1.
         -2   -1    0    0    0  501 -0.00000000000E+00 -0.00000000000E+00 -0.36648792438E+03  0.36648792438E+03  0.00000000000E+00 0.  1.
          2    1    1    2  502    0 -0.20234893458E+02  0.50418527328E+00 -0.76094201779E+02  0.78740286134E+02  0.00000000000E+00 0. -1.
         -2    1    1    2    0  502  0.20234893458E+02 -0.50418527328E+00 -0.28871635089E+03  0.28942500995E+03  0.00000000000E+00 0.  1.
</event>
<event>
 4    1  0.5465458E+003  0.2247732E+02  0.7546771E-02  0.1499168E+00
          2   -1    0    0  501    0  0.00000000000E+00  0.00000000000E+00  0.13260313849E+02  0.13260313849E+02  0.00000000000E+00 0.  1.
         -2   -1    0    0    0  501 -0.00000000000E+00 -0.00000000000E+00 -0.82238678348E+02  0.82238678348E+02  0.00000000000E+00 0. -1.
          2    1    1    2  502    0  0.12548952297E+02 -0.18648152996E+02  0.49212180636E+00  0.22482704415E+02  0.00000000000E+00 0.  1.
         -2    1    1    2    0  502 -0.12548952297E+02  0.18648152996E+02 -0.69470486306E+02  0.73016287782E+02  0.00000000000E+00 0. -1.
</event>
<event>
 4    1  0.5465458E+003  0.3567242E+02  0.7546771E-02  0.1375897E+00
          2   -1    0    0  501    0  0.00000000000E+00  0.00000000000E+00  0.14059685449E+04  0.14059685449E+04  0.00000000000E+00 0.  1.
         -2   -1    0    0    0  501 -0.00000000000E+00 -0.00000000000E+00 -0.45921048625E+03  0.45921048625E+03  0.00000000000E+00 0. -1.
          2    1    1    2  502    0  0.89575585054E+01  0.34529466110E+02  0.14050490431E+04  0.14055018091E+04  0.00000000000E+00 0.  1.
         -2    1    1    2    0  502 -0.89575585054E+01 -0.34529466110E+02 -0.45829098454E+03  0.45967722196E+03  0.00000000000E+00 0. -1.
</event>
<event>
 4    1  0.5465458E+003  0.2419427E+02  0.7546771E-02  0.1478023E+00
          2   -1    0    0  501    0  0.00000000000E+00  0.00000000000E+00  0.26804364680E+03  0.26804364680E+03  0.00000000000E+00 0. -1.
         -2   -1    0    0    0  501 -0.00000000000E+00 -0.00000000000E+00 -0.19718137659E+02  0.19718137659E+02  0.00000000000E+00 0. -1.
          2    1    1    2  502    0 -0.30597282820E+01 -0.24000014603E+02  0.25984232056E+03  0.26096627022E+03  0.00000000000E+00 0. -1.
         -2    1    1    2    0  502  0.30597282820E+01  0.24000014603E+02 -0.11516811419E+02  0.26795514239E+02  0.00000000000E+00 0. -1.
</event>
<event>
 4    1  0.5465458E+003  0.3127917E+02  0.7546771E-02  0.1408797E+00
          2   -1    0    0  501    0  0.00000000000E+00  0.00000000000E+00  0.15113229299E+04  0.15113229299E+04  0.00000000000E+00 0. -1.
         -2   -1    0    0    0  501 -0.00000000000E+00 -0.00000000000E+00 -0.19867181040E+01  0.19867181040E+01  0.00000000000E+00 0. -1.
          2    1    1    2  502    0  0.10196812498E+02 -0.29570445350E+02  0.13759322602E+04  0.13762877500E+04  0.00000000000E+00 0. -1.
         -2    1    1    2    0  502 -0.10196812498E+02  0.29570445350E+02  0.13340395164E+03  0.13702189802E+03  0.00000000000E+00 0. -1.
</event>
<event>
 4    1  0.5465458E+003  0.3916616E+02  0.7546771E-02  0.1353443E+00
          2   -1    0    0  501    0  0.00000000000E+00  0.00000000000E+00  0.15485991651E+04  0.15485991651E+04  0.00000000000E+00 0. -1.
         -2   -1    0    0    0  501 -0.00000000000E+00 -0.00000000000E+00 -0.76670088094E+02  0.76670088094E+02  0.00000000000E+00 0. -1.
          2    1    1    2  502    0  0.38000088985E+02  0.94858343016E+01  0.15433325467E+04  0.15438294392E+04  0.00000000000E+00 0. -1.
         -2    1    1    2    0  502 -0.38000088985E+02 -0.94858343016E+01 -0.71403469675E+02  0.81439813954E+02  0.00000000000E+00 0. -1.
</event>
<event>
 4    1  0.5465458E+003  0.3346832E+02  0.7546771E-02  0.1391663E+00
          2   -1    0    0  501    0  0.00000000000E+00  0.00000000000E+00  0.17096909997E+03  0.17096909997E+03  0.00000000000E+00 0.  1.
         -2   -1    0    0    0  501 -0.00000000000E+00 -0.00000000000E+00 -0.18105212914E+02  0.18105212914E+02  0.00000000000E+00 0.  1.
          2    1    1    2  502    0  0.45045912218E+01  0.33163788609E+02  0.15195139854E+03  0.15559355943E+03  0.00000000000E+00 0.  1.
         -2    1    1    2    0  502 -0.45045912218E+01 -0.33163788609E+02  0.91248851914E+00  0.33480753460E+02  0.00000000000E+00 0.  1.
</event>
<event>
 4    1  0.5465458E+003  0.3421467E+02  0.7546771E-02  0.1386170E+00
          2   -1    0    0  501    0  0.00000000000E+00  0.00000000000E+00  0.16920624529E+03  0.16920624529E+03  0.00000000000E+00 0. -1.
         -2   -1    0    0    0  501 -0.00000000000E+00 -0.00000000000E+00 -0.86831747075E+01  0.86831747075E+01  0.00000000000E+00 0.  1.
          2    1    1    2  502    0  0.25088774398E+02  0.23263642303E+02  0.12035931058E+03  0.12512796369E+03  0.00000000000E+00 0. -1.
         -2    1    1    2    0  502 -0.25088774398E+02 -0.23263642303E+02  0.40163760000E+02  0.52761456305E+02  0.00000000000E+00 0.  1.
</event>
<event>
 4    1  0.5465458E+003  0.2658223E+02  0.7546771E-02  0.1451850E+00
          2   -1    0    0  501    0  0.00000000000E+00  0.00000000000E+00  0.39023410856E+01  0.39023410856E+01  0.00000000000E+00 0.  1.
         -2   -1    0    0    0  501 -0.00000000000E+00 -0.00000000000E+00 -0.18329056903E+03  0.18329056903E+03  0.00000000000E+00 0.  1.
          2    1    1    2  502    0  0.11453533979E+01 -0.26557533414E+02 -0.99985695642E+02  0.10345894716E+03  0.00000000000E+00 0.  1.
         -2    1    1    2    0  502 -0.11453533979E+01  0.26557533414E+02 -0.79402532306E+02  0.83733962955E+02  0.00000000000E+00 0.  1.
</event>
<event>
 4    1  0.5465458E+003  0.2522830E+02  0.7546771E-02  0.1466265E+00
          2   -1    0    0  501    0  0.00000000000E+00  0.00000000000E+00  0.35580991468E+03  0.35580991468E+03  0.00000000000E+00 0.  1.
         -2   -1    0    0    0  501 -0.00000000000E+00 -0.00000000000E+00 -0.31634897412E+01  0.31634897412E+01  0.00000000000E+00 0. -1.
          2    1    1    2  502    0  0.22810255424E+02 -0.10777726358E+02  0.29464205474E+03  0.29572015075E+03  0.00000000000E+00 0.  1.
         -2    1    1    2    0  502 -0.22810255424E+02  0.10777726358E+02  0.58004370203E+02  0.63253253676E+02  0.00000000000E+00 0. -1.
</event>
<event>
 4    1  0.5465458E+003  0.3628989E+02  0.7546771E-02  0.1371715E+00
          2   -1    0    0  501    0  0.00000000000E+00  0.00000000000E+00  0.49897357480E+02  0.49897357480E+02  0.00000000000E+00 0.  1.
         -2   -1    0    0    0  501 -0.00000000000E+00 -0.00000000000E+00 -0.83893038824E+02  0.83893038824E+02  0.00000000000E+00 0. -1.
          2    1    1    2  502    0  0.24624909477E+02 -0.26656516297E+02  0.38383684247E+02  0.52822942404E+02  0.00000000000E+00 0.  1.
         -2    1    1    2    0  502 -0.24624909477E+02  0.26656516297E+02 -0.72379365590E+02  0.80967453900E+02  0.00000000000E+00 0. -1.
</event>
<event>
 4    1  0.5465458E+003  0.2350628E+02  0.7546771E-02  0.1486237E+00
          2   -1    0    0  501    0  0.00000000000E+00  0.00000000000E+00  0.66714064918E+03  0.66714064918E+03  0.00000000000E+00 0.  1.
         -2   -1    0    0    0  501 -0.00000000000E+00 -0.00000000000E+00 -0.21700765903E+03  0.21700765903E+03  0.00000000000E+00 0.  1.
          2    1    1    2  502    0  0.53431679662E+01  0.22890954552E+02  0.66629623507E+03  0.66671074546E+03  0.00000000000E+00 0.  1.
         -2    1    1    2    0  502 -0.53431679662E+01 -0.22890954552E+02 -0.21616324492E+03  0.21743756276E+03  0.00000000000E+00 0.  1.
</event>
<event>
 4    1  0.5465458E+003  0.2958258E+02  0.7546771E-02  0.1423259E+00
          2   -1    0    0  501    0  0.00000000000E+00  0.00000000000E+00  0.39557799782E+03  0.39557799782E+03  0.00000000000E+00 0.  1.
         -2   -1    0    0    0  501 -0.00000000000E+00 -0.00000000000E+00 -0.11801507508E+02  0.11801507508E+02  0.00000000000E+00 0.  1.
          2    1    1    2  502    0  0.10300106367E+00  0.29582401459E+02  0.37549652441E+03  0.37666001769E+03  0.00000000000E+00 0.  1.
         -2    1    1    2    0  502 -0.10300106367E+00 -0.29582401459E+02  0.82799659043E+01  0.30719487637E+02  0.00000000000E+00 0.  1.
</event>
<event>
 4    1  0.5465458E+003  0.2978041E+02  0.7546771E-02  0.1421514E+00
          2   -1    0    0  501    0  0.00000000000E+00  0.00000000000E+00  0.92508549052E+03  0.92508549052E+03  0.00000000000E+00 0. -1.
         -2   -1    0    0    0  501 -0.00000000000E+00 -0.00000000000E+00 -0.13425470757E+01  0.13425470757E+01  0.00000000000E+00 0. -1.
          2    1    1    2  502    0  0.54234400689E+01  0.29282407910E+02  0.70955659996E+03  0.71018127380E+03  0.00000000000E+00 0. -1.
         -2    1    1    2    0  502 -0.54234400689E+01 -0.29282407910E+02  0.21418634348E+03  0.21624676379E+03  0.00000000000E+00 0. -1.
</event>
<event>
 4    1  0.5465458E+003  0.2252353E+02  0.7546771E-02  0.1498569E+00
          2   -1    0    0  501    0  0.00000000000E+00  0.00000000000E+00  0.15614357649E+03  0.15614357649E+03  0.00000000000E+00 0. -1.
         -2   -1    0    0    0  501 -0.00000000000E+00 -0.00000000000E+00 -0.62248697246E+01  0.62248697246E+01  0.00000000000E+00 0. -1.
          2    1    1    2  502    0  0.70511956308E+01 -0.21391359308E+02  0.13109178661E+03  0.13301265402E+03  0.00000000000E+00 0. -1.
         -2    1    1    2    0  502 -0.70511956308E+01  0.21391359308E+02  0.18826920158E+02  0.29355792197E+02  0.00000000000E+00 0. -1.
</event>
<event>
 4    1  0.5465458E+003  0.3153262E+02  0.7546771E-02  0.1406730E+00
          2   -1    0    0  501    0  0.00000000000E+00  0.00000000000E+00  0.45133825908E+03  0.45133825908E+03  0.00000000000E+00 0. -1.
         -2   -1    0    0    0  501 -0.00000000000E+00 -0.00000000000E+00 -0.19245467341E+02  0.19245467341E+02  0.00000000000E+00 0. -1.
          2    1    1    2  502    0 -0.16027441104E+02 -0.27155606320E+02  0.43746224131E+03  0.43859721659E+03  0.00000000000E+00 0. -1.
         -2    1    1    2    0  502  0.16027441104E+02  0.27155606320E+02 -0.53694495703E+01  0.31986509838E+02  0.00000000000E+00 0. -1.
</event>
<event>
 4    1  0.5465458E+003  0.1842708E+03  0.7546771E-02  0.1066886E+00
          2   -1    0    0  501    0  0.00000000000E+00  0.00000000000E+00  0.52042731573E+03  0.52042731573E+03  0.00000000000E+00 0. -1.
         -2   -1    0    0    0  501 -0.00000000000E+00 -0.00000000000E+00 -0.65417854212E+03  0.65417854212E+03  0.00000000000E+00 0. -1.
          2    1    1    2  502    0 -0.35385338758E+02  0.18084141613E+03  0.49037023135E+03  0.52384988668E+03  0.00000000000E+00 0. -1.
         -2    1    1    2    0  502  0.35385338758E+02 -0.18084141613E+03 -0.62412145775E+03  0.65075597116E+03  0.00000000000E+00 0. -1.
</event>
<event>
 4    1  0.5465458E+003  0.2712176E+02  0.7546771E-02  0.1446389E+00
          2   -1    0    0  501    0  0.00000000000E+00  0.00000000000E+00  0.12865793448E+03  0.12865793448E+03  0.00000000000E+00 0. -1.
         -2   -1    0    0    0  501 -0.00000000000E+00 -0.00000000000E+00 -0.74612464313E+02  0.74612464313E+02  0.00000000000E+00 0.  1.
          2    1    1    2  502    0 -0.18872421720E+02  0.19478748476E+02  0.12468627916E+03  0.12760195200E+03  0.00000000000E+00 0. -1.
         -2    1    1    2    0  502  0.18872421720E+02 -0.19478748476E+02 -0.70640808996E+02  0.75668446788E+02  0.00000000000E+00 0.  1.
</event>
<event>
 4    1  0.5465458E+003  0.2089125E+02  0.7546771E-02  0.1520823E+00
          2   -1    0    0  501    0  0.00000000000E+00  0.00000000000E+00  0.45624934714E+02  0.45624934714E+02  0.00000000000E+00 0. -1.
         -2   -1    0    0    0  501 -0.00000000000E+00 -0.00000000000E+00 -0.80197553142E+02  0.80197553142E+02  0.00000000000E+00 0. -1.
          2    1    1    2  502    0 -0.20476535434E+02 -0.41419822034E+01  0.41753824788E+02  0.46688611078E+02  0.00000000000E+00 0. -1.
         -2    1    1    2    0  502  0.20476535434E+02  0.41419822034E+01 -0.76326443216E+02  0.79133876778E+02  0.00000000000E+00 0. -1.
</event>
<event>
 4    1  0.5465458E+003  0.3547747E+02  0.7546771E-02  0.1377237E+00
          2   -1    0    0  501    0  0.00000000000E+00  0.00000000000E+00  0.74681009788E+03  0.74681009788E+03  0.00000000000E+00 0. -1.
         -2   -1    0    0    0  501 -0.00000000000E+00 -0.00000000000E+00 -0.67813674031E+01  0.67813674031E+01  0.00000000000E+00 0. -1.
          2    1    1    2  502    0  0.49680256732E+01 -0.35127906842E+02  0.69664878673E+03  0.69755156309E+03  0.00000000000E+00 0. -1.
         -2    1    1    2    0  502 -0.49680256732E+01  0.35127906842E+02  0.43379943745E+02  0.56039902190E+02  0.00000000000E+00 0. -1.
</event>
<event>
 4    1  0.5465458E+003  0.5023209E+02  0.7546771E-02  0.1297169E+00
          2   -1    0    0  501    0  0.00000000000E+00  0.00000000000E+00  0.17725724569E+04  0.17725724569E+04  0.00000000000E+00 0.  1.
         -2   -1    0    0    0  501 -0.00000000000E+00 -0.00000000000E+00 -0.23531397779E+02  0.23531397779E+02  0.00000000000E+00 0.  1.
          2    1    1    2  502    0  0.91415587194E+01  0.49393262390E+02  0.17449854617E+04  0.17457083159E+04  0.00000000000E+00 0.  1.
         -2    1    1    2    0  502 -0.91415587194E+01 -0.49393262390E+02  0.40555974374E+01  0.50395538850E+02  0.00000000000E+00 0.  1.
</event>
<event>
 4    1  0.5465458E+003  0.2294465E+02  0.7546771E-02  0.1493194E+00
          2   -1    0    0  501    0  0.00000000000E+00  0.00000000000E+00  0.49249043853E+03  0.49249043853E+03  0.00000000000E+00 0.  1.
         -2   -1    0    0    0  501 -0.00000000000E+00 -0.00000000000E+00 -0.15986407171E+01  0.15986407171E+01  0.00000000000E+00 0.  1.
          2    1    1    2  502    0  0.21305191494E+02  0.85173694454E+01  0.38764715073E+03  0.38832559823E+03  0.00000000000E+00 0.  1.
         -2    1    1    2    0  502 -0.21305191494E+02 -0.85173694454E+01  0.10324464708E+03  0.10576348102E+03  0.00000000000E+00 0.  1.
</event>
<event>
 4    1  0.5465458E+003  0.2998880E+02  0.7546771E-02  0.1419694E+00
          2   -1    0    0  501    0  0.00000000000E+00  0.00000000000E+00  0.15369919384E+04  0.15369919384E+04  0.00000000000E+00 0. -1.
         -2   -1    0    0    0  501 -0.00000000000E+00 -0.00000000000E+00 -0.83727884603E+00  0.83727884603E+00  0.00000000000E+00 0. -1.
          2    1    1    2  502    0  0.15972531661E+02 -0.25381215399E+02  0.11900442419E+04  0.11904220367E+04  0.00000000000E+00 0. -1.
         -2    1    1    2    0  502 -0.15972531661E+02  0.25381215399E+02  0.34611041769E+03  0.34740718055E+03  0.00000000000E+00 0. -1.
</event>
<event>
 4    1  0.5465458E+003  0.3473460E+02  0.7546771E-02  0.1382439E+00
          2   -1    0    0  501    0  0.00000000000E+00  0.00000000000E+00  0.12079758293E+04  0.12079758293E+04  0.00000000000E+00 0. -1.
         -2   -1    0    0    0  501 -0.00000000000E+00 -0.00000000000E+00 -0.42584485489E+01  0.42584485489E+01  0.00000000000E+00 0.  1.
          2    1    1    2  502    0  0.26014478275E+02  0.23016063758E+02  0.11321544146E+04  0.11326871195E+04  0.00000000000E+00 0. -1.
         -2    1    1    2    0  502 -0.26014478275E+02 -0.23016063758E+02  0.71562966146E+02  0.79547158305E+02  0.00000000000E+00 0.  1.
</event>
<event>
 4    1  0.5465458E+003  0.2256921E+02  0.7546771E-02  0.1497980E+00
          2   -1    0    0  501    0  0.00000000000E+00  0.00000000000E+00  0.10114964571E+04  0.10114964571E+04  0.00000000000E+00 0.  1.
         -2   -1    0    0    0  501 -0.00000000000E+00 -0.00000000000E+00 -0.15937825069E+01  0.15937825069E+01  0.00000000000E+00 0.  1.
          2    1    1    2  502    0  0.21948681723E+02  0.52559051017E+01  0.92389655644E+03  0.92417217886E+03  0.00000000000E+00 0.  1.
         -2    1    1    2    0  502 -0.21948681723E+02 -0.52559051017E+01  0.86006118101E+02  0.88918060700E+02  0.00000000000E+00 0.  1.
</event>
<event>
 4    1  0.5465458E+003  0.2386884E+02  0.7546771E-02  0.1481867E+00
          2   -1    0    0  501    0  0.00000000000E+00  0.00000000000E+00  0.40017386818E+03  0.40017386818E+03  0.00000000000E+00 0. -1.
         -2   -1    0    0    0  501 -0.00000000000E+00 -0.00000000000E+00 -0.21167848093E+02  0.21167848093E+02  0.00000000000E+00 0. -1.
          2    1    1    2  502    0 -0.11226782616E+02  0.21063729327E+02  0.39296602672E+03  0.39369025833E+03  0.00000000000E+00 0. -1.
         -2    1    1    2    0  502  0.11226782616E+02 -0.21063729327E+02 -0.13960006640E+02  0.27651457944E+02  0.00000000000E+00 0. -1.
</event>
<event>
 4    1  0.5465458E+003  0.3513814E+02  0.7546771E-02  0.1379595E+00
          2   -1    0    0  501    0  0.00000000000E+00  0.00000000000E+00  0.19133788566E+03  0.19133788566E+03  0.00000000000E+00 0.  1.
         -2   -1    0    0    0  501 -0.00000000000E+00 -0.00000000000E+00 -0.83993841903E+01  0.83993841903E+01  0.00000000000E+00 0. -1.
          2    1    1    2  502    0  0.31212195052E+02  0.16139633483E+02  0.13954522806E+03  0.14390121460E+03  0.00000000000E+00 0.  1.
         -2    1    1    2    0  502 -0.31212195052E+02 -0.16139633483E+02  0.43393273415E+02  0.55836055256E+02  0.00000000000E+00 0. -1.
</event>
<event>
 4    1  0.5465458E+003  0.2276261E+02  0.7546771E-02  0.1495501E+00
          2   -1    0    0  501    0  0.00000000000E+00  0.00000000000E+00  0.13109660633E+04  0.13109660633E+04  0.00000000000E+00 0.  1.
         -2   -1    0    0    0  501 -0.00000000000E+00 -0.00000000000E+00 -0.12736455577E+02  0.12736455577E+02  0.00000000000E+00 0.  1.
          2    1    1    2  502    0  0.29760043096E+01 -0.22567229197E+02  0.13006159856E+04  0.13008151592E+04  0.00000000000E+00 0.  1.
         -2    1    1    2    0  502 -0.29760043096E+01  0.22567229197E+02 -0.23863778337E+01  0.22887359708E+02  0.00000000000E+00 0.  1.
</event>
<event>
 4    1  0.5465458E+003  0.4520974E+02  0.7546771E-02  0.1320394E+00
          2   -1    0    0  501    0  0.00000000000E+00  0.00000000000E+00  0.42481351781E+02  0.42481351781E+02  0.00000000000E+00 0.  1.
         -2   -1    0    0    0  501 -0.00000000000E+00 -0.00000000000E+00 -0.54608157492E+02  0.54608157492E+02  0.00000000000E+00 0.  1.
          2    1    1    2  502    0  0.45153145081E+02  0.22613822357E+01  0.10678180209E+02  0.46453674698E+02  0.00000000000E+00 0.  1.
         -2    1    1    2    0  502 -0.45153145081E+02 -0.22613822357E+01 -0.22804985920E+02  0.50635834575E+02  0.00000000000E+00 0.  1.
</event>
<event>
 4    1  0.5465458E+003  0.2088229E+02  0.7546771E-02  0.1520952E+00
          2   -1    0    0  501    0  0.00000000000E+00  0.00000000000E+00  0.49408814451E+02  0.49408814451E+02  0.00000000000E+00 0.  1.
         -2   -1    0    0    0  501 -0.00000000000E+00 -0.00000000000E+00 -0.81202084751E+02  0.81202084751E+02  0.00000000000E+00 0. -1.
          2    1    1    2  502    0  0.71319481756E+01 -0.19626646253E+02  0.45757771422E+02  0.50297550372E+02  0.00000000000E+00 0.  1.
         -2    1    1    2    0  502 -0.71319481756E+01  0.19626646253E+02 -0.77551041722E+02  0.80313348829E+02  0.00000000000E+00 0. -1.
</event>
<event>
 4    1  0.5465458E+003  0.3987201E+02  0.7546771E-02  0.1349237E+00
          2   -1    0    0  501    0  0.00000000000E+00  0.00000000000E+00  0.31306035635E+03  0.31306035635E+03  0.00000000000E+00 0.  1.
         -2   -1    0    0    0  501 -0.00000000000E+00 -0.00000000000E+00 -0.37466540702E+02  0.37466540702E+02  0.00000000000E+00 0. -1.
          2    1    1    2  502    0 -0.35314286361E+02 -0.18511582633E+02  0.30075053197E+03  0.30338203637E+03  0.00000000000E+00 0.  1.
         -2    1    1    2    0  502  0.35314286361E+02  0.18511582633E+02 -0.25156716320E+02  0.47144860682E+02  0.00000000000E+00 0. -1.
</event>
<event>
 4    1  0.5465458E+003  0.4414740E+02  0.7546771E-02  0.1325758E+00
          2   -1    0    0  501    0  0.00000000000E+00  0.00000000000E+00  0.17448227561E+03  0.17448227561E+03  0.00000000000E+00 0.  1.
         -2   -1    0    0    0  501 -0.00000000000E+00 -0.00000000000E+00 -0.12897655484E+02  0.12897655484E+02  0.00000000000E+00 0.  1.
          2    1    1    2  502    0 -0.70212993088E+01  0.43585479951E+02  0.11508075265E+03  0.12325815323E+03  0.00000000000E+00 0.  1.
         -2    1    1    2    0  502  0.70212993088E+01 -0.43585479951E+02  0.46503867479E+02  0.64121777869E+02  0.00000000000E+00 0.  1.
</event>
<event>
 4    1  0.5465458E+003  0.3003605E+02  0.7546771E-02  0.1419283E+00
          2   -1    0    0  501    0  0.00000000000E+00  0.00000000000E+00  0.36237215315E+02  0.36237215315E+02  0.00000000000E+00 0.  1.
         -2   -1    0    0    0  501 -0.00000000000E+00 -0.00000000000E+00 -0.14243656112E+03  0.14243656112E+03  0.00000000000E+00 0.  1.
          2    1    1    2  502    0  0.42764532359E+01  0.29730053163E+02  0.28055057349E+02  0.41100490948E+02  0.00000000000E+00 0.  1.
         -2    1    1    2    0  502 -0.42764532359E+01 -0.29730053163E+02 -0.13425440315E+03  0.13757328548E+03  0.00000000000E+00 0.  1.
</event>
<event>
 4    1  0.5465458E+003  0.2261149E+02  0.7546771E-02  0.1497435E+00
          2   -1    0    0  501    0  0.00000000000E+00  0.00000000000E+00  0.16732698289E+04  0.16732698289E+04  0.00000000000E+00 0. -1.
         -2   -1    0    0    0  501 -0.00000000000E+00 -0.00000000000E+00 -0.92605198158E+00  0.92605198158E+00  0.00000000000E+00 0.  1.
          2    1    1    2  502    0  0.97190261230E+01  0.20416174701E+02  0.15213881395E+04  0.15215561609E+04  0.00000000000E+00 0. -1.
         -2    1    1    2    0  502 -0.97190261230E+01 -0.20416174701E+02  0.15095563747E+03  0.15263972007E+03  0.00000000000E+00 0.  1.
</event>
<event>
 4    1  0.5465458E+003  0.2109321E+02  0.7546771E-02  0.1517938E+00
          2   -1    0    0  501    0  0.00000000000E+00  0.00000000000E+00  0.13087481237E+02  0.13087481237E+02  0.00000000000E+00 0.  1.
         -2   -1    0    0    0  501 -0.00000000000E+00 -0.00000000000E+00 -0.42667675632E+02  0.42667675632E+02  0.00000000000E+00 0. -1.
          2    1    1    2  502    0  0.36424592570E+01 -0.20776335559E+02 -0.22224502160E+01  0.21209972034E+02  0.00000000000E+00 0. -1.
         -2    1    1    2    0  502 -0.36424592570E+01  0.20776335559E+02 -0.27357744179E+02  0.34545184835E+02  0.00000000000E+00 0.  1.
</event>
<event>
 4    1  0.5465458E+003  0.2639943E+02  0.7546771E-02  0.1453736E+00
          2   -1    0    0  501    0  0.00000000000E+00  0.00000000000E+00  0.10352871943E+04  0.10352871943E+04  0.00000000000E+00 0. -1.
         -2   -1    0    0    0  501 -0.00000000000E+00 -0.00000000000E+00 -0.27101695334E+01  0.27101695334E+01  0.00000000000E+00 0. -1.
          2    1    1    2  502    0  0.26397945360E+02 -0.28008438058E+00  0.96623711233E+03  0.96659768632E+03  0.00000000000E+00 0. -1.
         -2    1    1    2    0  502 -0.26397945360E+02  0.28008438058E+00  0.66339912476E+02  0.71399677547E+02  0.00000000000E+00 0. -1.
</event>
<event>
 4    1  0.5465458E+003  0.6837542E+02  0.7546771E-02  0.1233756E+00
          2   -1    0    0  501    0  0.00000000000E+00  0.00000000000E+00  0.41543681750E+02  0.41543681750E+02  0.00000000000E+00 0.  1.
         -2   -1    0    0    0  501 -0.00000000000E+00 -0.00000000000E+00 -0.13742181613E+04  0.13742181613E+04  0.00000000000E+00 0.  1.
          2    1    1    2  502    0  0.65903476889E+02 -0.18218952694E+02  0.11939910083E+02  0.69410085406E+02  0.00000000000E+00 0.  1.
         -2    1    1    2    0  502 -0.65903476889E+02  0.18218952694E+02 -0.13446143896E+04  0.13463517577E+04  0.00000000000E+00 0.  1.
</event>
<event>
 4    1  0.5465458E+003  0.1284259E+03  0.7546771E-02  0.1122039E+00
          2   -1    0    0  501    0  0.00000000000E+00  0.00000000000E+00  0.64788202743E+02  0.64788202743E+02  0.00000000000E+00 0.  1.
         -2   -1    0    0    0  501 -0.00000000000E+00 -0.00000000000E+00 -0.26286257299E+03  0.26286257299E+03  0.00000000000E+00 0.  1.
          2    1    1    2  502    0  0.45066264416E+02 -0.12025906968E+03 -0.69941442718E+02  0.14623617008E+03  0.00000000000E+00 0.  1.
         -2    1    1    2    0  502 -0.45066264416E+02  0.12025906968E+03 -0.12813292753E+03  0.18141460566E+03  0.00000000000E+00 0.  1.
</event>
<event>
 4    1  0.5465458E+003  0.3397640E+02  0.7546771E-02  0.1387906E+00
          2   -1    0    0  501    0  0.00000000000E+00  0.00000000000E+00  0.11500987116E+04  0.11500987116E+04  0.00000000000E+00 0.  1.
         -2   -1    0    0    0  501 -0.00000000000E+00 -0.00000000000E+00 -0.10369962114E+02  0.10369962114E+02  0.00000000000E+00 0. -1.
          2    1    1    2  502    0 -0.32329471956E+02 -0.10449916811E+02  0.11213029700E+04  0.11218176082E+04  0.00000000000E+00 0.  1.
         -2    1    1    2    0  502  0.32329471956E+02  0.10449916811E+02  0.18425779534E+02  0.38651065571E+02  0.00000000000E+00 0. -1.
</event>
<event>
 4    1  0.5465458E+003  0.2235111E+02  0.7546771E-02  0.1500811E+00
          2   -1    0    0  501    0  0.00000000000E+00  0.00000000000E+00  0.94377767463E+03  0.94377767463E+03  0.00000000000E+00 0. -1.
         -2   -1    0    0    0  501 -0.00000000000E+00 -0.00000000000E+00 -0.71811004390E+00  0.71811004390E+00  0.00000000000E+00 0.  1.
          2    1    1    2  502    0  0.58791820086E+01  0.21564024426E+02  0.71366057115E+03  0.71401049204E+03  0.00000000000E+00 0. -1.
         -2    1    1    2    0  502 -0.58791820086E+01 -0.21564024426E+02  0.22939899343E+03  0.23048529263E+03  0.00000000000E+00 0.  1.
</event>
<event>
 4    1  0.5465458E+003  0.2633770E+02  0.7546771E-02  0.1454377E+00
          2   -1    0    0  501    0  0.00000000000E+00  0.00000000000E+00  0.14731569434E+03  0.14731569434E+03  0.00000000000E+00 0. -1.
         -2   -1    0    0    0  501 -0.00000000000E+00 -0.00000000000E+00 -0.78002403323E+01  0.78002403323E+01  0.00000000000E+00 0.  1.
          2    1    1    2  502    0 -0.85461835425E+01  0.24912595023E+02  0.11858421441E+03  0.12147382661E+03  0.00000000000E+00 0. -1.
         -2    1    1    2    0  502  0.85461835425E+01 -0.24912595023E+02  0.20931239602E+02  0.33642108067E+02  0.00000000000E+00 0.  1.
</event>
<event>
 4    1  0.5465458E+003  0.2105115E+02  0.7546771E-02  0.1518536E+00
          2   -1    0    0  501    0  0.00000000000E+00  0.00000000000E+00  0.59703688144E+03  0.59703688144E+03  0.00000000000E+00 0.  1.
         -2   -1    0    0    0  501 -0.00000000000E+00 -0.00000000000E+00 -0.20180514302E+02  0.20180514302E+02  0.00000000000E+00 0.  1.
          2    1    1    2  502    0 -0.17468455916E+02 -0.11747502437E+02  0.59130831559E+03  0.59168291749E+03  0.00000000000E+00 0.  1.
         -2    1    1    2    0  502  0.17468455916E+02  0.11747502437E+02 -0.14451948451E+02  0.25534478252E+02  0.00000000000E+00 0.  1.
</event>
<event>
 4    1  0.5465458E+003  0.2545899E+02  0.7546771E-02  0.1463734E+00
          2   -1    0    0  501    0  0.00000000000E+00  0.00000000000E+00  0.13657200217E+04  0.13657200217E+04  0.00000000000E+00 0. -1.
         -2   -1    0    0    0  501 -0.00000000000E+00 -0.00000000000E+00 -0.57568469866E+00  0.57568469866E+00  0.00000000000E+00 0. -1.
          2    1    1    2  502    0 -0.20387646702E+02 -0.15248077450E+02  0.96884618646E+03  0.96918062972E+03  0.00000000000E+00 0. -1.
         -2    1    1    2    0  502  0.20387646702E+02  0.15248077450E+02  0.39629815055E+03  0.39711507669E+03  0.00000000000E+00 0. -1.
</event>
<event>
 4    1  0.5465458E+003  0.3278811E+02  0.7546771E-02  0.1396818E+00
          2   -1    0    0  501    0  0.00000000000E+00  0.00000000000E+00  0.17504091007E+02  0.17504091007E+02  0.00000000000E+00 0.  1.
         -2   -1    0    0    0  501 -0.00000000000E+00 -0.00000000000E+00 -0.10261944651E+03  0.10261944651E+03  0.00000000000E+00 0. -1.
          2    1    1    2  502    0 -0.24767859015E+02 -0.21485185076E+02 -0.45000779174E+01  0.33095478833E+02  0.00000000000E+00 0.  1.
         -2    1    1    2    0  502  0.24767859015E+02  0.21485185076E+02 -0.80615277581E+02  0.87028058679E+02  0.00000000000E+00 0. -1.
</event>
<event>
 4    1  0.5465458E+003  0.5310638E+02  0.7546771E-02  0.1285238E+00
          2   -1    0    0  501    0  0.00000000000E+00  0.00000000000E+00  0.46418852929E+03  0.46418852929E+03  0.00000000000E+00 0.  1.
         -2   -1    0    0    0  501 -0.00000000000E+00 -0.00000000000E+00 -0.83085509942E+03  0.83085509942E+03  0.00000000000E+00 0. -1.
          2    1    1    2  502    0 -0.76154830153E+01 -0.52557513620E+02  0.46181664067E+03  0.46486008370E+03  0.00000000000E+00 0.  1.
         -2    1    1    2    0  502  0.76154830153E+01  0.52557513620E+02 -0.82848321080E+03  0.83018354501E+03  0.00000000000E+00 0. -1.
</event>
<event>
 4    1  0.5465458E+003  0.2831939E+02  0.7546771E-02  0.1434787E+00
          2   -1    0    0  501    0  0.00000000000E+00  0.00000000000E+00  0.32176965178E+01  0.32176965178E+01  0.00000000000E+00 0.  1.
         -2   -1    0    0    0  501 -0.00000000000E+00 -0.00000000000E+00 -0.56977682222E+03  0.56977682222E+03  0.00000000000E+00 0. -1.
          2    1    1    2  502    0  0.21291609911E+02 -0.18672306461E+02 -0.68395032791E+02  0.74026131816E+02  0.00000000000E+00 0.  1.
         -2    1    1    2    0  502 -0.21291609911E+02  0.18672306461E+02 -0.49816409291E+03  0.49896838693E+03  0.00000000000E+00 0. -1.
</event>
<event>
 4    1  0.5465458E+003  0.2062070E+02  0.7546771E-02  0.1524750E+00
          2   -1    0    0  501    0  0.00000000000E+00  0.00000000000E+00  0.12181571845E+03  0.12181571845E+03  0.00000000000E+00 0. -1.
         -2   -1    0    0    0  501 -0.00000000000E+00 -0.00000000000E+00 -0.56205666891E+02  0.56205666891E+02  0.00000000000E+00 0.  1.
          2    1    1    2  502    0 -0.19333149356E+02  0.71723473914E+01  0.11900743384E+03  0.12078072090E+03  0.00000000000E+00 0. -1.
         -2    1    1    2    0  502  0.19333149356E+02 -0.71723473914E+01 -0.53397382283E+02  0.57240664443E+02  0.00000000000E+00 0.  1.
</event>
<event>
 4    1  0.5465458E+003  0.2374000E+02  0.7546771E-02  0.1483409E+00
          2   -1    0    0  501    0  0.00000000000E+00  0.00000000000E+00  0.71353961994E+02  0.71353961994E+02  0.00000000000E+00 0.  1.
         -2   -1    0    0    0  501 -0.00000000000E+00 -0.00000000000E+00 -0.90665971643E+02  0.90665971643E+02  0.00000000000E+00 0. -1.
          2    1    1    2  502    0 -0.23483262093E+02 -0.34818450080E+01 -0.87056943528E+02  0.90235792564E+02  0.00000000000E+00 0. -1.
         -2    1    1    2    0  502  0.23483262093E+02  0.34818450080E+01  0.67744933880E+02  0.71784141073E+02  0.00000000000E+00 0.  1.
</event>
<event>
 4    1  0.5465458E+003  0.2649105E+02  0.7546771E-02  0.1452789E+00
          2   -1    0    0  501    0  0.00000000000E+00  0.00000000000E+00  0.53100547867E+02  0.53100547867E+02  0.00000000000E+00 0.  1.
         -2   -1    0    0    0  501 -0.00000000000E+00 -0.00000000000E+00 -0.13449753130E+02  0.13449753130E+02  0.00000000000E+00 0. -1.
          2    1    1    2  502    0 -0.11666460279E+02  0.23783802142E+02  0.24212364145E+02  0.35888913570E+02  0.00000000000E+00 0.  1.
         -2    1    1    2    0  502  0.11666460279E+02 -0.23783802142E+02  0.15438430593E+02  0.30661387426E+02  0.00000000000E+00 0. -1.
</event>
<event>
 4    1  0.5465458E+003  0.2238338E+02  0.7546771E-02  0.1500390E+00
          2   -1    0    0  501    0  0.00000000000E+00  0.00000000000E+00  0.14166856939E+03  0.14166856939E+03  0.00000000000E+00 0. -1.
         -2   -1    0    0    0  501 -0.00000000000E+00 -0.00000000000E+00 -0.38550295929E+01  0.38550295929E+01  0.00000000000E+00 0. -1.
          2    1    1    2  502    0  0.15364858406E+02 -0.16276883668E+02  0.89820947383E+02  0.92567912392E+02  0.00000000000E+00 0. -1.
         -2    1    1    2    0  502 -0.15364858406E+02  0.16276883668E+02  0.47992592418E+02  0.52955686595E+02  0.00000000000E+00 0. -1.
</event>
<event>
 4    1  0.5465458E+003  0.6911570E+02  0.7546771E-02  0.1231655E+00
          2   -1    0    0  501    0  0.00000000000E+00  0.00000000000E+00  0.65308132843E+03  0.65308132843E+03  0.00000000000E+00 0. -1.
         -2   -1    0    0    0  501 -0.00000000000E+00 -0.00000000000E+00 -0.61870500574E+02  0.61870500574E+02  0.00000000000E+00 0.  1.
          2    1    1    2  502    0  0.21657647107E+02 -0.65634795597E+02  0.63128592820E+03  0.63505818884E+03  0.00000000000E+00 0. -1.
         -2    1    1    2    0  502 -0.21657647107E+02  0.65634795597E+02 -0.40075100342E+02  0.79893640164E+02  0.00000000000E+00 0.  1.
</event>
<event>
 4    1  0.5465458E+003  0.2058635E+02  0.7546771E-02  0.1525253E+00
          2   -1    0    0  501    0  0.00000000000E+00  0.00000000000E+00  0.36617897607E+02  0.36617897607E+02  0.00000000000E+00 0. -1.
         -2   -1    0    0    0  501 -0.00000000000E+00 -0.00000000000E+00 -0.11608789051E+02  0.11608789051E+02  0.00000000000E+00 0.  1.
          2    1    1    2  502    0 -0.18673521956E+02 -0.86658386569E+01  0.11175038835E+02  0.23423891112E+02  0.00000000000E+00 0. -1.
         -2    1    1    2    0  502  0.18673521956E+02  0.86658386569E+01  0.13834069721E+02  0.24802795546E+02  0.00000000000E+00 0.  1.
</event>
<event>
 4    1  0.5465458E+003  0.2012557E+02  0.7546771E-02  0.1532125E+00
          2   -1    0    0  501    0  0.00000000000E+00  0.00000000000E+00  0.80497469825E+03  0.80497469825E+03  0.00000000000E+00 0.  1.
         -2   -1    0    0    0  501 -0.00000000000E+00 -0.00000000000E+00 -0.70340646766E+00  0.70340646766E+00  0.00000000000E+00 0.  1.
          2    1    1    2  502    0 -0.14464653292E+02  0.13993297904E+02  0.61706745750E+03  0.61739556662E+03  0.00000000000E+00 0.  1.
         -2    1    1    2    0  502  0.14464653292E+02 -0.13993297904E+02  0.18720383428E+03  0.18828253809E+03  0.00000000000E+00 0.  1.
</event>
<event>
 4    1  0.5465458E+003  0.2345287E+02  0.7546771E-02  0.1486888E+00
          2   -1    0    0  501    0  0.00000000000E+00  0.00000000000E+00  0.32510581502E+03  0.32510581502E+03  0.00000000000E+00 0. -1.
         -2   -1    0    0    0  501 -0.00000000000E+00 -0.00000000000E+00 -0.98102559580E+01  0.98102559580E+01  0.00000000000E+00 0. -1.
          2    1    1    2  502    0 -0.12258127220E+02  0.19994380180E+02  0.30998311659E+03  0.31086905522E+03  0.00000000000E+00 0. -1.
         -2    1    1    2    0  502  0.12258127220E+02 -0.19994380180E+02  0.53124424662E+01  0.24047015754E+02  0.00000000000E+00 0. -1.
</event>
<event>
 4    1  0.5465458E+003  0.2414454E+02  0.7546771E-02  0.1478605E+00
          2   -1    0    0  501    0  0.00000000000E+00  0.00000000000E+00  0.18184420288E+04  0.18184420288E+04  0.00000000000E+00 0. -1.
         -2   -1    0    0    0  501 -0.00000000000E+00 -0.00000000000E+00 -0.10369639636E+01  0.10369639636E+01  0.00000000000E+00 0. -1.
          2    1    1    2  502    0 -0.19821022323E+02 -0.13787162216E+02  0.16648521008E+04  0.16650271698E+04  0.00000000000E+00 0. -1.
         -2    1    1    2    0  502  0.19821022323E+02  0.13787162216E+02  0.15255296400E+03  0.15445182288E+03  0.00000000000E+00 0. -1.
</event>
<event>
 4    1  0.5465458E+003  0.3652412E+02  0.7546771E-02  0.1370153E+00
          2   -1    0    0  501    0  0.00000000000E+00  0.00000000000E+00  0.20890460535E+03  0.20890460535E+03  0.00000000000E+00 0. -1.
         -2   -1    0    0    0  501 -0.00000000000E+00 -0.00000000000E+00 -0.12252080719E+04  0.12252080719E+04  0.00000000000E+00 0.  1.
          2    1    1    2  502    0 -0.34744876894E+02 -0.11260774946E+02  0.20703352692E+03  0.21023057054E+03  0.00000000000E+00 0. -1.
         -2    1    1    2    0  502  0.34744876894E+02  0.11260774946E+02 -0.12233369935E+04  0.12238821067E+04  0.00000000000E+00 0.  1.
</event>
<event>
 4    1  0.5465458E+003  0.2110203E+02  0.7546771E-02  0.1517813E+00
          2   -1    0    0  501    0  0.00000000000E+00  0.00000000000E+00  0.73802649046E+01  0.73802649046E+01  0.00000000000E+00 0.  1.
         -2   -1    0    0    0  501 -0.00000000000E+00 -0.00000000000E+00 -0.14799966908E+03  0.14799966908E+03  0.00000000000E+00 0.  1.
          2    1    1    2  502    0  0.20667661158E+02 -0.42595162095E+01 -0.10517523784E+02  0.23577828624E+02  0.00000000000E+00 0.  1.
         -2    1    1    2    0  502 -0.20667661158E+02  0.42595162095E+01 -0.13010188039E+03  0.13180210536E+03  0.00000000000E+00 0.  1.
</event>
<event>
 4    1  0.5465458E+003  0.2799965E+02  0.7546771E-02  0.1437817E+00
          2   -1    0    0  501    0  0.00000000000E+00  0.00000000000E+00  0.39818051528E+03  0.39818051528E+03  0.00000000000E+00 0. -1.
         -2   -1    0    0    0  501 -0.00000000000E+00 -0.00000000000E+00 -0.41271552082E+01  0.41271552082E+01  0.00000000000E+00 0.  1.
          2    1    1    2  502    0  0.27972146625E+02  0.12406398204E+01  0.34249005820E+03  0.34363268200E+03  0.00000000000E+00 0. -1.
         -2    1    1    2    0  502 -0.27972146625E+02 -0.12406398204E+01  0.51563301873E+02  0.58674988488E+02  0.00000000000E+00 0.  1.
</event>
<event>
 4    1  0.5465458E+003  0.2998174E+02  0.7546771E-02  0.1419755E+00
          2   -1    0    0  501    0  0.00000000000E+00  0.00000000000E+00  0.24927883157E+03  0.24927883157E+03  0.00000000000E+00 0.  1.
         -2   -1    0    0    0  501 -0.00000000000E+00 -0.00000000000E+00 -0.23892949909E+02  0.23892949909E+02  0.00000000000E+00 0.  1.
          2    1    1    2  502    0  0.26929110647E+02  0.13180586787E+02  0.23855044044E+03  0.24042715633E+03  0.00000000000E+00 0.  1.
         -2    1    1    2    0  502 -0.26929110647E+02 -0.13180586787E+02 -0.13164558776E+02  0.32744625148E+02  0.00000000000E+00 0.  1.
</event>
<event>
 4    1  0.5465458E+003  0.2432313E+02  0.7546771E-02  0.1476520E+00
          2   -1    0    0  501    0  0.00000000000E+00  0.00000000000E+00  0.25146522612E+02  0.25146522612E+02  0.00000000000E+00 0. -1.
         -2   -1    0    0    0  501 -0.00000000000E+00 -0.00000000000E+00 -0.68708899064E+02  0.68708899064E+02  0.00000000000E+00 0.  1.
          2    1    1    2  502    0 -0.21830790256E+02  0.10725270468E+02  0.16273356538E+02  0.29264944265E+02  0.00000000000E+00 0. -1.
         -2    1    1    2    0  502  0.21830790256E+02 -0.10725270468E+02 -0.59835732990E+02  0.64590477412E+02  0.00000000000E+00 0.  1.
</event>
<event>
 4    1  0.5465458E+003  0.2013014E+02  0.7546771E-02  0.1532056E+00
          2   -1    0    0  501    0  0.00000000000E+00  0.00000000000E+00  0.10194464330E+04  0.10194464330E+04  0.00000000000E+00 0. -1.
         -2   -1    0    0    0  501 -0.00000000000E+00 -0.00000000000E+00 -0.25048672862E+01  0.25048672862E+01  0.00000000000E+00 0. -1.
          2    1    1    2  502    0  0.92891919473E+01  0.17858703961E+02  0.97715327000E+03  0.97736059644E+03  0.00000000000E+00 0. -1.
         -2    1    1    2    0  502 -0.92891919473E+01 -0.17858703961E+02  0.39788295732E+02  0.44590703868E+02  0.00000000000E+00 0. -1.
</event>
<event>
 4    1  0.5465458E+003  0.5119654E+02  0.7546771E-02  0.1293066E+00
          2   -1    0    0  501    0  0.00000000000E+00  0.00000000000E+00  0.10095139094E+04  0.10095139094E+04  0.00000000000E+00 0.  1.
         -2   -1    0    0    0  501 -0.00000000000E+00 -0.00000000000E+00 -0.66824439851E+01  0.66824439851E+01  0.00000000000E+00 0.  1.
          2    1    1    2  502    0  0.50295128827E+02 -0.95648160595E+01  0.89872833973E+03  0.90018537775E+03  0.00000000000E+00 0.  1.
         -2    1    1    2    0  502 -0.50295128827E+02  0.95648160595E+01  0.10410312571E+03  0.11601097566E+03  0.00000000000E+00 0.  1.
</event>
<event>
 4    1  0.5465458E+003  0.2767459E+02  0.7546771E-02  0.1440947E+00
          2   -1    0    0  501    0  0.00000000000E+00  0.00000000000E+00  0.54681830252E+02  0.54681830252E+02  0.00000000000E+00 0.  1.
         -2   -1    0    0    0  501 -0.00000000000E+00 -0.00000000000E+00 -0.11512105313E+03  0.11512105313E+03  0.00000000000E+00 0.  1.
          2    1    1    2  502    0  0.23303964684E+02  0.14926759746E+02  0.49349632862E+02  0.56579759545E+02  0.00000000000E+00 0.  1.
         -2    1    1    2    0  502 -0.23303964684E+02 -0.14926759746E+02 -0.10978885574E+03  0.11322312384E+03  0.00000000000E+00 0.  1.
</event>
<event>
 4    1  0.5465458E+003  0.3074752E+02  0.7546771E-02  0.1413210E+00
          2   -1    0    0  501    0  0.00000000000E+00  0.00000000000E+00  0.39370427240E+02  0.39370427240E+02  0.00000000000E+00 0.  1.
         -2   -1    0    0    0  501 -0.00000000000E+00 -0.00000000000E+00 -0.18795822791E+03  0.18795822791E+03  0.00000000000E+00 0.  1.
          2    1    1    2  502    0 -0.19244990528E+02  0.23979999094E+02  0.31861633508E+02  0.44278366126E+02  0.00000000000E+00 0.  1.
         -2    1    1    2    0  502  0.19244990528E+02 -0.23979999094E+02 -0.18044943418E+03  0.18305028902E+03  0.00000000000E+00 0.  1.
</event>
<event>
 4    1  0.5465458E+003  0.3694175E+02  0.7546771E-02  0.1367403E+00
          2   -1    0    0  501    0  0.00000000000E+00  0.00000000000E+00  0.59462845355E+02  0.59462845355E+02  0.00000000000E+00 0.  1.
         -2   -1    0    0    0  501 -0.00000000000E+00 -0.00000000000E+00 -0.26522973473E+02  0.26522973473E+02  0.00000000000E+00 0.  1.
          2    1    1    2  502    0  0.29686410978E+02  0.21986580688E+02  0.32248945824E+02  0.49037610401E+02  0.00000000000E+00 0.  1.
         -2    1    1    2    0  502 -0.29686410978E+02 -0.21986580688E+02  0.69092605804E+00  0.36948208426E+02  0.00000000000E+00 0.  1.
</event>
<event>
 4    1  0.5465458E+003  0.2360039E+02  0.7546771E-02  0.1485094E+00
          2   -1    0    0  501    0  0.00000000000E+00  0.00000000000E+00  0.49448032191E+03  0.49448032191E+03  0.00000000000E+00 0. -1.
         -2   -1    0    0    0  501 -0.00000000000E+00 -0.00000000000E+00 -0.14243615357E+01  0.14243615357E+01  0.00000000000E+00 0. -1.
          2    1    1    2  502    0  0.23197643404E+02 -0.43413181261E+01  0.13311951671E+03  0.13519535285E+03  0.00000000000E+00 0. -1.
         -2    1    1    2    0  502 -0.23197643404E+02  0.43413181261E+01  0.35993644366E+03  0.36070933060E+03  0.00000000000E+00 0. -1.
</event>
<event>
 4    1  0.5465458E+003  0.2062728E+02  0.7546771E-02  0.1524653E+00
          2   -1    0    0  501    0  0.00000000000E+00  0.00000000000E+00  0.13065631177E+04  0.13065631177E+04  0.00000000000E+00 0. -1.
         -2   -1    0    0    0  501 -0.00000000000E+00 -0.00000000000E+00 -0.40283718554E+03  0.40283718554E+03  0.00000000000E+00 0. -1.
          2    1    1    2  502    0 -0.20610470157E+02 -0.83254541047E+00  0.13062175800E+04  0.13063804388E+04  0.00000000000E+00 0. -1.
         -2    1    1    2    0  502  0.20610470157E+02  0.83254541047E+00 -0.40249164780E+03  0.40301986447E+03  0.00000000000E+00 0. -1.
</event>
<event>
 4    1  0.5465458E+003  0.3077187E+02  0.7546771E-02  0.1413005E+00
          2   -1    0    0  501    0  0.00000000000E+00  0.00000000000E+00  0.50474995484E+03  0.50474995484E+03  0.00000000000E+00 0.  1.
         -2   -1    0    0    0  501 -0.00000000000E+00 -0.00000000000E+00 -0.13585842282E+03  0.13585842282E+03  0.00000000000E+00 0.  1.
          2    1    1    2  502    0  0.22992351252E+02  0.20451392704E+02  0.50253081608E+03  0.50347207349E+03  0.00000000000E+00 0.  1.
         -2    1    1    2    0  502 -0.22992351252E+02 -0.20451392704E+02 -0.13363928405E+03  0.13713630417E+03  0.00000000000E+00 0.  1.
</event>
<event>
 4    1  0.5465458E+003  0.2882054E+02  0.7546771E-02  0.1430130E+00
          2   -1    0    0  501    0  0.00000000000E+00  0.00000000000E+00  0.41138841780E+02  0.41138841780E+02  0.00000000000E+00 0.  1.
         -2   -1    0    0    0  501 -0.00000000000E+00 -0.00000000000E+00 -0.66803326294E+02  0.66803326294E+02  0.00000000000E+00 0. -1.
          2    1    1    2  502    0 -0.20346404705E+02  0.20411942049E+02  0.32250851215E+02  0.43252063150E+02  0.00000000000E+00 0.  1.
         -2    1    1    2    0  502  0.20346404705E+02 -0.20411942049E+02 -0.57915335729E+02  0.64690104925E+02  0.00000000000E+00 0. -1.
</event>
<event>
 4    1  0.5465458E+003  0.2022279E+02  0.7546771E-02  0.1530657E+00
          2   -1    0    0  501    0  0.00000000000E+00  0.00000000000E+00  0.55341259659E+01  0.55341259659E+01  0.00000000000E+00 0.  1.
         -2   -1    0    0    0  501 -0.00000000000E+00 -0.00000000000E+00 -0.85462831978E+03  0.85462831978E+03  0.00000000000E+00 0. -1.
          2    1    1    2  502    0 -0.18201926211E+02 -0.88119792351E+01 -0.13480344519E+02  0.24303925283E+02  0.00000000000E+00 0.  1.
         -2    1    1    2    0  502  0.18201926211E+02  0.88119792351E+01 -0.83561384929E+03  0.83585852046E+03  0.00000000000E+00 0. -1.
</event>
<event>
 4    1  0.5465458E+003  0.4155487E+02  0.7546771E-02  0.1339608E+00
          2   -1    0    0  501    0  0.00000000000E+00  0.00000000000E+00  0.16073927286E+03  0.16073927286E+03  0.00000000000E+00 0.  1.
         -2   -1    0    0    0  501 -0.00000000000E+00 -0.00000000000E+00 -0.25503946460E+02  0.25503946460E+02  0.00000000000E+00 0. -1.
          2    1    1    2  502    0  0.41014517128E+02  0.66795630322E+01  0.13846201650E+03  0.14456326363E+03  0.00000000000E+00 0.  1.
         -2    1    1    2    0  502 -0.41014517128E+02 -0.66795630322E+01 -0.32266900996E+01  0.41679955692E+02  0.00000000000E+00 0. -1.
</event>
<event>
 4    1  0.5465458E+003  0.2109129E+02  0.7546771E-02  0.1517965E+00
          2   -1    0    0  501    0  0.00000000000E+00  0.00000000000E+00  0.93538788186E+03  0.93538788186E+03  0.00000000000E+00 0. -1.
         -2   -1    0    0    0  501 -0.00000000000E+00 -0.00000000000E+00 -0.12576338350E+02  0.12576338350E+02  0.00000000000E+00 0.  1.
          2    1    1    2  502    0 -0.20944596146E+02 -0.24832175038E+01  0.92633978163E+03  0.92657985814E+03  0.00000000000E+00 0. -1.
         -2    1    1    2    0  502  0.20944596146E+02  0.24832175038E+01 -0.35282381218E+01  0.21384362070E+02  0.00000000000E+00 0.  1.
</event>
<event>
 4    1  0.5465458E+003  0.2119178E+02  0.7546771E-02  0.1516544E+00
          2   -1    0    0  501    0  0.00000000000E+00  0.00000000000E+00  0.12489814390E+04  0.12489814390E+04  0.00000000000E+00 0. -1.
         -2   -1    0    0    0  501 -0.00000000000E+00 -0.00000000000E+00 -0.31247235067E+01  0.31247235067E+01  0.00000000000E+00 0. -1.
          2    1    1    2  502    0  0.44517092505E+01  0.20718923481E+02  0.12118605329E+04  0.12120458088E+04  0.00000000000E+00 0. -1.
         -2    1    1    2    0  502 -0.44517092505E+01 -0.20718923481E+02  0.33996182578E+02  0.40060353660E+02  0.00000000000E+00 0. -1.
</event>
<event>
 4    1  0.5465458E+003  0.2500780E+02  0.7546771E-02  0.1468716E+00
          2   -1    0    0  501    0  0.00000000000E+00  0.00000000000E+00  0.71151439821E+03  0.71151439821E+03  0.00000000000E+00 0. -1.
         -2   -1    0    0    0  501 -0.00000000000E+00 -0.00000000000E+00 -0.29188910369E+01  0.29188910369E+01  0.00000000000E+00 0.  1.
          2    1    1    2  502    0 -0.15416974963E+02 -0.19690274312E+02  0.65292600305E+03  0.65340474094E+03  0.00000000000E+00 0. -1.
         -2    1    1    2    0  502  0.15416974963E+02  0.19690274312E+02  0.55669504119E+02  0.61028548306E+02  0.00000000000E+00 0.  1.
</event>
<event>
 4    1  0.5465458E+003  0.2618856E+02  0.7546771E-02  0.1455934E+00
          2   -1    0    0  501    0  0.00000000000E+00  0.00000000000E+00  0.17420109194E+02  0.17420109194E+02  0.00000000000E+00 0.  1.
         -2   -1    0    0    0  501 -0.00000000000E+00 -0.00000000000E+00 -0.74562196293E+02  0.74562196293E+02  0.00000000000E+00 0. -1.
          2    1    1    2  502    0  0.24592932695E+02 -0.90015710668E+01  0.30251136812E+01  0.26362699653E+02  0.00000000000E+00 0.  1.
         -2    1    1    2    0  502 -0.24592932695E+02  0.90015710668E+01 -0.60167200780E+02  0.65619605835E+02  0.00000000000E+00 0. -1.
</event>
<event>
 4    1  0.5465458E+003  0.2333802E+02  0.7546771E-02  0.1488297E+00
          2   -1    0    0  501    0  0.00000000000E+00  0.00000000000E+00  0.38889498205E+03  0.38889498205E+03  0.00000000000E+00 0.  1.
         -2   -1    0    0    0  501 -0.00000000000E+00 -0.00000000000E+00 -0.21952451989E+03  0.21952451989E+03  0.00000000000E+00 0. -1.
          2    1    1    2  502    0 -0.23081556393E+02  0.34503412667E+01  0.38792301831E+03  0.38862440896E+03  0.00000000000E+00 0.  1.
         -2    1    1    2    0  502  0.23081556393E+02 -0.34503412667E+01 -0.21855255615E+03  0.21979509299E+03  0.00000000000E+00 0. -1.
</event>
<event>
 4    1  0.5465458E+003  0.2645769E+02  0.7546771E-02  0.1453133E+00
          2   -1    0    0  501    0  0.00000000000E+00  0.00000000000E+00  0.12845286647E+04  0.12845286647E+04  0.00000000000E+00 0.  1.
         -2   -1    0    0    0  501 -0.00000000000E+00 -0.00000000000E+00 -0.12325094119E+01  0.12325094119E+01  0.00000000000E+00 0. -1.
          2    1    1    2  502    0  0.25779848137E+02  0.59505200225E+01  0.11218114040E+04  0.11221233602E+04  0.00000000000E+00 0.  1.
         -2    1    1    2    0  502 -0.25779848137E+02 -0.59505200225E+01  0.16148475132E+03  0.16363781399E+03  0.00000000000E+00 0. -1.
</event>
<event>
 4    1  0.5465458E+003  0.2068976E+02  0.7546771E-02  0.1523741E+00
          2   -1    0    0  501    0  0.00000000000E+00  0.00000000000E+00  0.85325541993E+03  0.85325541993E+03  0.00000000000E+00 0. -1.
         -2   -1    0    0    0  501 -0.00000000000E+00 -0.00000000000E+00 -0.59036811992E+01  0.59036811992E+01  0.00000000000E+00 0. -1.
          2    1    1    2  502    0 -0.11623085081E+02  0.17116364677E+02  0.83459774278E+03  0.83485415391E+03  0.00000000000E+00 0. -1.
         -2    1    1    2    0  502  0.11623085081E+02 -0.17116364677E+02  0.12753995947E+02  0.24304947216E+02  0.00000000000E+00 0. -1.
</event>
<event>
 4    1  0.5465458E+003  0.2388216E+02  0.7546771E-02  0.1481708E+00
          2   -1    0    0  501    0  0.00000000000E+00  0.00000000000E+00  0.97678680387E+03  0.97678680387E+03  0.00000000000E+00 0. -1.
         -2   -1    0    0    0  501 -0.00000000000E+00 -0.00000000000E+00 -0.23637797099E+02  0.23637797099E+02  0.00000000000E+00 0. -1.
          2    1    1    2  502    0 -0.22344770357E+02  0.84302358867E+01  0.97056992968E+03  0.97086371136E+03  0.00000000000E+00 0. -1.
         -2    1    1    2    0  502  0.22344770357E+02 -0.84302358867E+01 -0.17420922908E+02  0.29560889607E+02  0.00000000000E+00 0. -1.
</event>
<event>
 4    1  0.5465458E+003  0.2666626E+02  0.7546771E-02  0.1450990E+00
          2   -1    0    0  501    0  0.00000000000E+00  0.00000000000E+00  0.15749411776E+04  0.15749411776E+04  0.00000000000E+00 0. -1.
         -2   -1    0    0    0  501 -0.00000000000E+00 -0.00000000000E+00 -0.84772979293E+01  0.84772979293E+01  0.00000000000E+00 0.  1.
          2    1    1    2  502    0  0.13152681099E+02 -0.23196906085E+02  0.15535694384E+04  0.15537982783E+04  0.00000000000E+00 0. -1.
         -2    1    1    2    0  502 -0.13152681099E+02  0.23196906085E+02  0.12894441245E+02  0.29620197282E+02  0.00000000000E+00 0.  1.
</event>
<event>
 4    1  0.5465458E+003  0.2791182E+02  0.7546771E-02  0.1438658E+00
          2   -1    0    0  501    0  0.00000000000E+00  0.00000000000E+00  0.58212373459E+03  0.58212373459E+03  0.00000000000E+00 0. -1.
         -2   -1    0    0    0  501 -0.00000000000E+00 -0.00000000000E+00 -0.57586230787E+01  0.57586230787E+01  0.00000000000E+00 0. -1.
          2    1    1    2  502    0  0.13746798353E+02  0.24291870415E+02  0.54571206131E+03  0.54642540505E+03  0.00000000000E+00 0. -1.
         -2    1    1    2    0  502 -0.13746798353E+02 -0.24291870415E+02  0.30653050204E+02  0.41456952614E+02  0.00000000000E+00 0. -1.
</event>
<event>
 4    1  0.5465458E+003  0.2933613E+02  0.7546771E-02  0.1425455E+00
          2   -1    0    0  501    0  0.00000000000E+00  0.00000000000E+00  0.30744137564E+03  0.30744137564E+03  0.00000000000E+00 0.  1.
         -2   -1    0    0    0  501 -0.00000000000E+00 -0.00000000000E+00 -0.44083439774E+01  0.44083439774E+01  0.00000000000E+00 0.  1.
          2    1    1    2  502    0 -0.21010347939E+02  0.20473734684E+02  0.24571998529E+03  0.24746498683E+03  0.00000000000E+00 0.  1.
         -2    1    1    2    0  502  0.21010347939E+02 -0.20473734684E+02  0.57313046368E+02  0.64384732790E+02  0.00000000000E+00 0.  1.
</event>
<event>
 4    1  0.5465458E+003  0.2233004E+02  0.7546771E-02  0.1501087E+00
          2   -1    0    0  501    0  0.00000000000E+00  0.00000000000E+00  0.10744977910E+04  0.10744977910E+04  0.00000000000E+00 0. -1.
         -2   -1    0    0    0  501 -0.00000000000E+00 -0.00000000000E+00 -0.12414413991E+02  0.12414413991E+02  0.00000000000E+00 0. -1.
          2    1    1    2  502    0 -0.18964827263E+02  0.11788383791E+02  0.10642436716E+04  0.10644779111E+04  0.00000000000E+00 0. -1.
         -2    1    1    2    0  502  0.18964827263E+02 -0.11788383791E+02 -0.21602946811E+01  0.22434293807E+02  0.00000000000E+00 0. -1.
</event>
<event>
 4    1  0.5465458E+003  0.2339504E+02  0.7546771E-02  0.1487596E+00
          2   -1    0    0  501    0  0.00000000000E+00  0.00000000000E+00  0.13012460198E+03  0.13012460198E+03  0.00000000000E+00 0.  1.
         -2   -1    0    0    0  501 -0.00000000000E+00 -0.00000000000E+00 -0.77750824427E+01  0.77750824427E+01  0.00000000000E+00 0. -1.
          2    1    1    2  502    0 -0.99922205945E+01  0.21153803504E+02  0.10788885453E+03  0.11039625360E+03  0.00000000000E+00 0.  1.
         -2    1    1    2    0  502  0.99922205945E+01 -0.21153803504E+02  0.14460665007E+02  0.27503430832E+02  0.00000000000E+00 0. -1.
</event>
<event>
 4    1  0.5465458E+003  0.2183076E+02  0.7546771E-02  0.1507726E+00
          2   -1    0    0  501    0  0.00000000000E+00  0.00000000000E+00  0.21145118964E+01  0.21145118964E+01  0.00000000000E+00 0. -1.
         -2   -1    0    0    0  501 -0.00000000000E+00 -0.00000000000E+00 -0.69960983874E+03  0.69960983874E+03  0.00000000000E+00 0.  1.
          2    1    1    2  502    0  0.14821736559E+02 -0.16028044045E+02 -0.59879195278E+02  0.63734606751E+02  0.00000000000E+00 0. -1.
         -2    1    1    2    0  502 -0.14821736559E+02  0.16028044045E+02 -0.63761613157E+03  0.63798974389E+03  0.00000000000E+00 0.  1.
</event>
<event>
 4    1  0.5465458E+003  0.2085512E+02  0.7546771E-02  0.1521343E+00
          2   -1    0    0  501    0  0.00000000000E+00  0.00000000000E+00  0.82771265837E+03  0.82771265837E+03  0.00000000000E+00 0. -1.
         -2   -1    0    0    0  501 -0.00000000000E+00 -0.00000000000E+00 -0.59987912834E+00  0.59987912834E+00  0.00000000000E+00 0. -1.
          2    1    1    2  502    0 -0.16415268038E+02  0.12863711023E+02  0.55942196899E+03  0.55981057107E+03  0.00000000000E+00 0. -1.
         -2    1    1    2    0  502  0.16415268038E+02 -0.12863711023E+02  0.26769081025E+03  0.26850196643E+03  0.00000000000E+00 0. -1.
</event>
<event>
 4    1  0.5465458E+003  0.3382713E+02  0.7546771E-02  0.1389002E+00
          2   -1    0    0  501    0  0.00000000000E+00  0.00000000000E+00  0.39115125190E+03  0.39115125190E+03  0.00000000000E+00 0. -1.
         -2   -1    0    0    0  501 -0.00000000000E+00 -0.00000000000E+00 -0.32376417519E+01  0.32376417519E+01  0.00000000000E+00 0. -1.
          2    1    1    2  502    0  0.19463336202E+02  0.27666829183E+02  0.25519522227E+03  0.25742741960E+03  0.00000000000E+00 0. -1.
         -2    1    1    2    0  502 -0.19463336202E+02 -0.27666829183E+02  0.13271838788E+03  0.13696147405E+03  0.00000000000E+00 0. -1.
</event>
<event>
 4    1  0.5465458E+003  0.2272905E+02  0.7546771E-02  0.1495929E+00
          2   -1    0    0  501    0  0.00000000000E+00  0.00000000000E+00  0.40525237692E+02  0.40525237692E+02  0.00000000000E+00 0. -1.
         -2   -1    0    0    0  501 -0.00000000000E+00 -0.00000000000E+00 -0.15895867952E+03  0.15895867952E+03  0.00000000000E+00 0. -1.
          2    1    1    2  502    0  0.80911726336E+01  0.21240123155E+02  0.36442211586E+02  0.42949327020E+02  0.00000000000E+00 0. -1.
         -2    1    1    2    0  502 -0.80911726336E+01 -0.21240123155E+02 -0.15487565342E+03  0.15653459020E+03  0.00000000000E+00 0. -1.
</event>
<event>
 4    1  0.5465458E+003  0.2006463E+02  0.7546771E-02  0.1533050E+00
          2   -1    0    0  501    0  0.00000000000E+00  0.00000000000E+00  0.11668554321E+04  0.11668554321E+04  0.00000000000E+00 0.  1.
         -2   -1    0    0    0  501 -0.00000000000E+00 -0.00000000000E+00 -0.48186241633E+00  0.48186241633E+00  0.00000000000E+00 0.  1.
          2    1    1    2  502    0 -0.20046731147E+02 -0.84737489436E+00  0.89422505496E+03  0.89445013187E+03  0.00000000000E+00 0.  1.
         -2    1    1    2    0  502  0.20046731147E+02  0.84737489436E+00  0.27214851469E+03  0.27288716262E+03  0.00000000000E+00 0.  1.
</event>
<event>
 4    1  0.5465458E+003  0.2009838E+02  0.7546771E-02  0.1532537E+00
          2   -1    0    0  501    0  0.00000000000E+00  0.00000000000E+00  0.21466167594E+03  0.21466167594E+03  0.00000000000E+00 0. -1.
         -2   -1    0    0    0  501 -0.00000000000E+00 -0.00000000000E+00 -0.33542500073E+01  0.33542500073E+01  0.00000000000E+00 0.  1.
          2    1    1    2  502    0 -0.20084168339E+02  0.75561536674E+00  0.17787822474E+03  0.17901007684E+03  0.00000000000E+00 0. -1.
         -2    1    1    2    0  502  0.20084168339E+02 -0.75561536674E+00  0.33429201191E+02  0.39005849109E+02  0.00000000000E+00 0.  1.
</event>
<event>
 4    1  0.5465458E+003  0.2011688E+02  0.7546771E-02  0.1532257E+00
          2   -1    0    0  501    0  0.00000000000E+00  0.00000000000E+00  0.12921143005E+03  0.12921143005E+03  0.00000000000E+00 0.  1.
         -2   -1    0    0    0  501 -0.00000000000E+00 -0.00000000000E+00 -0.57976634435E+01  0.57976634435E+01  0.00000000000E+00 0.  1.
          2    1    1    2  502    0 -0.19832879285E+02 -0.33683228155E+01  0.10747996249E+03  0.10934638099E+03  0.00000000000E+00 0.  1.
         -2    1    1    2    0  502  0.19832879285E+02  0.33683228155E+01  0.15933804119E+02  0.25662712503E+02  0.00000000000E+00 0.  1.
</event>
<event>
 4    1  0.5465458E+003  0.2086143E+02  0.7546771E-02  0.1521252E+00
          2   -1    0    0  501    0  0.00000000000E+00  0.00000000000E+00  0.11942280675E+04  0.11942280675E+04  0.00000000000E+00 0.  1.
         -2   -1    0    0    0  501 -0.00000000000E+00 -0.00000000000E+00 -0.49209300815E+01  0.49209300815E+01  0.00000000000E+00 0.  1.
          2    1    1    2  502    0  0.97977701677E+01  0.18417466645E+02  0.11716003729E+04  0.11717860867E+04  0.00000000000E+00 0.  1.
         -2    1    1    2    0  502 -0.97977701677E+01 -0.18417466645E+02  0.17706764506E+02  0.27362910795E+02  0.00000000000E+00 0.  1.
</event>
<event>
 4    1  0.5465458E+003  0.2692199E+02  0.7546771E-02  0.1448393E+00
          2   -1    0    0  501    0  0.00000000000E+00  0.00000000000E+00  0.53449328830E+02  0.53449328830E+02  0.00000000000E+00 0.  1.
         -2   -1    0    0    0  501 -0.00000000000E+00 -0.00000000000E+00 -0.57621531096E+02  0.57621531096E+02  0.00000000000E+00 0. -1.
          2    1    1    2  502    0  0.22376317664E+02 -0.14969766563E+02  0.46476912995E+02  0.53711236671E+02  0.00000000000E+00 0.  1.
         -2    1    1    2    0  502 -0.22376317664E+02  0.14969766563E+02 -0.50649115262E+02  0.57359623255E+02  0.00000000000E+00 0. -1.
</event>
<event>
 4    1  0.5465458E+003  0.3066049E+02  0.7546771E-02  0.1413942E+00
          2   -1    0    0  501    0  0.00000000000E+00  0.00000000000E+00  0.14527005412E+03  0.14527005412E+03  0.00000000000E+00 0.  1.
         -2   -1    0    0    0  501 -0.00000000000E+00 -0.00000000000E+00 -0.16459341572E+03  0.16459341572E+03  0.00000000000E+00 0.  1.
          2    1    1    2  502    0  0.25647323362E+02 -0.16801206558E+02  0.14219386461E+03  0.14546188803E+03  0.00000000000E+00 0.  1.
         -2    1    1    2    0  502 -0.25647323362E+02  0.16801206558E+02 -0.16151722621E+03  0.16440158181E+03  0.00000000000E+00 0.  1.
</event>
<event>
 4    1  0.5465458E+003  0.2017750E+02  0.7546771E-02  0.1531339E+00
          2   -1    0    0  501    0  0.00000000000E+00  0.00000000000E+00  0.36976324770E+03  0.36976324770E+03  0.00000000000E+00 0.  1.
         -2   -1    0    0    0  501 -0.00000000000E+00 -0.00000000000E+00 -0.19506207522E+02  0.19506207522E+02  0.00000000000E+00 0.  1.
          2    1    1    2  502    0 -0.15808118954E+02  0.12539330130E+02  0.36419022328E+03  0.36474874935E+03  0.00000000000E+00 0.  1.
         -2    1    1    2    0  502  0.15808118954E+02 -0.12539330130E+02 -0.13933183099E+02  0.24520705867E+02  0.00000000000E+00 0.  1.
</event>
<event>
 4    1  0.5465458E+003  0.2223592E+02  0.7546771E-02  0.1502322E+00
          2   -1    0    0  501    0  0.00000000000E+00  0.00000000000E+00  0.13476447028E+03  0.13476447028E+03  0.00000000000E+00 0. -1.
         -2   -1    0    0    0  501 -0.00000000000E+00 -0.00000000000E+00 -0.16457378418E+02  0.16457378418E+02  0.00000000000E+00 0.  1.
          2    1    1    2  502    0 -0.22231874090E+02  0.42429566220E+00  0.12580563981E+03  0.12775560755E+03  0.00000000000E+00 0. -1.
         -2    1    1    2    0  502  0.22231874090E+02 -0.42429566220E+00 -0.74985479478E+01  0.23466241149E+02  0.00000000000E+00 0.  1.
</event>
<event>
 4    1  0.5465458E+003  0.2420404E+02  0.7546771E-02  0.1477908E+00
          2   -1    0    0  501    0  0.00000000000E+00  0.00000000000E+00  0.16631350435E+04  0.16631350435E+04  0.00000000000E+00 0. -1.
         -2   -1    0    0    0  501 -0.00000000000E+00 -0.00000000000E+00 -0.71694883057E+00  0.71694883057E+00  0.00000000000E+00 0. -1.
          2    1    1    2  502    0  0.79313581124E+00  0.24191039244E+02  0.14245566441E+04  0.14247622496E+04  0.00000000000E+00 0. -1.
         -2    1    1    2    0  502 -0.79313581124E+00 -0.24191039244E+02  0.23786145055E+03  0.23908974278E+03  0.00000000000E+00 0. -1.
</event>
<event>
 4    1  0.5465458E+003  0.2649932E+02  0.7546771E-02  0.1452703E+00
          2   -1    0    0  501    0  0.00000000000E+00  0.00000000000E+00  0.27845059437E+04  0.27845059437E+04  0.00000000000E+00 0. -1.
         -2   -1    0    0    0  501 -0.00000000000E+00 -0.00000000000E+00 -0.25689753972E+00  0.25689753972E+00  0.00000000000E+00 0.  1.
          2    1    1    2  502    0  0.26217048252E+02 -0.38574961069E+01  0.15806854662E+04  0.15809075738E+04  0.00000000000E+00 0. -1.
         -2    1    1    2    0  502 -0.26217048252E+02  0.38574961069E+01  0.12035635800E+04  0.12038552675E+04  0.00000000000E+00 0.  1.
</event>
<event>
 4    1  0.5465458E+003  0.2006230E+02  0.7546771E-02  0.1533085E+00
          2   -1    0    0  501    0  0.00000000000E+00  0.00000000000E+00  0.12057321335E+04  0.12057321335E+04  0.00000000000E+00 0.  1.
         -2   -1    0    0    0  501 -0.00000000000E+00 -0.00000000000E+00 -0.51877138161E+01  0.51877138161E+01  0.00000000000E+00 0.  1.
          2    1    1    2  502    0 -0.13266240780E+02 -0.15050003944E+02  0.11859282100E+04  0.11860978943E+04  0.00000000000E+00 0.  1.
         -2    1    1    2    0  502  0.13266240780E+02  0.15050003944E+02  0.14616209722E+02  0.24821952981E+02  0.00000000000E+00 0.  1.
</event>
<event>
 4    1  0.5465458E+003  0.2762396E+02  0.7546771E-02  0.1441439E+00
          2   -1    0    0  501    0  0.00000000000E+00  0.00000000000E+00  0.17917875596E+02  0.17917875596E+02  0.00000000000E+00 0.  1.
         -2   -1    0    0    0  501 -0.00000000000E+00 -0.00000000000E+00 -0.11747184119E+03  0.11747184119E+03  0.00000000000E+00 0.  1.
          2    1    1    2  502    0  0.19699638533E+02  0.19365102660E+02  0.42714896008E+01  0.27952255415E+02  0.00000000000E+00 0.  1.
         -2    1    1    2    0  502 -0.19699638533E+02 -0.19365102660E+02 -0.10382545519E+03  0.10743746137E+03  0.00000000000E+00 0.  1.
</event>
<event>
 4    1  0.5465458E+003  0.2727731E+02  0.7546771E-02  0.1444842E+00
          2   -1    0    0  501    0  0.00000000000E+00  0.00000000000E+00  0.43956471099E+03  0.43956471099E+03  0.00000000000E+00 0.  1.
         -2   -1    0    0    0  501 -0.00000000000E+00 -0.00000000000E+00 -0.27238347631E+01  0.27238347631E+01  0.00000000000E+00 0.  1.
          2    1    1    2  502    0  0.71856847885E+01 -0.26313828324E+02  0.35448430858E+03  0.35553224418E+03  0.00000000000E+00 0.  1.
         -2    1    1    2    0  502 -0.71856847885E+01  0.26313828324E+02  0.82356567653E+02  0.86756301573E+02  0.00000000000E+00 0.  1.
</event>
<event>
 4    1  0.5465458E+003  0.2481293E+02  0.7546771E-02  0.1470907E+00
          2   -1    0    0  501    0  0.00000000000E+00  0.00000000000E+00  0.34861790131E+03  0.34861790131E+03  0.00000000000E+00 0. -1.
         -2   -1    0    0    0  501 -0.00000000000E+00 -0.00000000000E+00 -0.10493432394E+02  0.10493432394E+02  0.00000000000E+00 0.  1.
          2    1    1    2  502    0  0.11509700507E+02  0.21981993801E+02  0.33281249707E+03  0.33373618243E+03  0.00000000000E+00 0. -1.
         -2    1    1    2    0  502 -0.11509700507E+02 -0.21981993801E+02  0.53119718460E+01  0.25375151273E+02  0.00000000000E+00 0.  1.
</event>
<event>
 4    1  0.5465458E+003  0.2685443E+02  0.7546771E-02  0.1449076E+00
          2   -1    0    0  501    0  0.00000000000E+00  0.00000000000E+00  0.34407515418E+03  0.34407515418E+03  0.00000000000E+00 0. -1.
         -2   -1    0    0    0  501 -0.00000000000E+00 -0.00000000000E+00 -0.27209449508E+02  0.27209449508E+02  0.00000000000E+00 0.  1.
          2    1    1    2  502    0 -0.57931320179E+00 -0.26848176229E+02  0.33678189758E+03  0.33785086459E+03  0.00000000000E+00 0. -1.
         -2    1    1    2    0  502  0.57931320179E+00  0.26848176229E+02 -0.19916192899E+02  0.33433739100E+02  0.00000000000E+00 0.  1.
</event>
<event>
 4    1  0.5465458E+003  0.2774211E+02  0.7546771E-02  0.1440293E+00
          2   -1    0    0  501    0  0.00000000000E+00  0.00000000000E+00  0.48569467821E+02  0.48569467821E+02  0.00000000000E+00 0.  1.
         -2   -1    0    0    0  501 -0.00000000000E+00 -0.00000000000E+00 -0.21926578733E+02  0.21926578733E+02  0.00000000000E+00 0.  1.
          2    1    1    2  502    0 -0.20170612085E+02 -0.19046554903E+02  0.31883535318E+02  0.42263278031E+02  0.00000000000E+00 0.  1.
         -2    1    1    2    0  502  0.20170612085E+02  0.19046554903E+02 -0.52406462301E+01  0.28232768523E+02  0.00000000000E+00 0.  1.
</event>
<event>
 4    1  0.5465458E+003  0.2581353E+02  0.7546771E-02  0.1459905E+00
          2   -1    0    0  501    0  0.00000000000E+00  0.00000000000E+00  0.11207682921E+03  0.11207682921E+03  0.00000000000E+00 0. -1.
         -2   -1    0    0    0  501 -0.00000000000E+00 -0.00000000000E+00 -0.59455098544E+01  0.59455098544E+01  0.00000000000E+00 0. -1.
          2    1    1    2  502    0 -0.17077561198E+02  0.19357033355E+02  0.52775993593E+02  0.58750687966E+02  0.00000000000E+00 0. -1.
         -2    1    1    2    0  502  0.17077561198E+02 -0.19357033355E+02  0.53355325767E+02  0.59271651102E+02  0.00000000000E+00 0. -1.
</event>
<event>
 4    1  0.5465458E+003  0.3900224E+02  0.7546771E-02  0.1354434E+00
          2   -1    0    0  501    0  0.00000000000E+00  0.00000000000E+00  0.18652863361E+04  0.18652863361E+04  0.00000000000E+00 0.  1.
         -2   -1    0    0    0  501 -0.00000000000E+00 -0.00000000000E+00 -0.20551554399E+01  0.20551554399E+01  0.00000000000E+00 0.  1.
          2    1    1    2  502    0 -0.95205377053E+01 -0.37822403595E+02  0.16567503620E+04  0.16572093823E+04  0.00000000000E+00 0.  1.
         -2    1    1    2    0  502  0.95205377053E+01  0.37822403595E+02  0.20648081865E+03  0.21013210921E+03  0.00000000000E+00 0.  1.
</event>
<event>
 4    1  0.5465458E+003  0.2137351E+02  0.7546771E-02  0.1513998E+00
          2   -1    0    0  501    0  0.00000000000E+00  0.00000000000E+00  0.15495609128E+04  0.15495609128E+04  0.00000000000E+00 0. -1.
         -2   -1    0    0    0  501 -0.00000000000E+00 -0.00000000000E+00 -0.59296990995E+01  0.59296990995E+01  0.00000000000E+00 0. -1.
          2    1    1    2  502    0 -0.21210497234E+02  0.26347392956E+01  0.15299806084E+04  0.15301298929E+04  0.00000000000E+00 0. -1.
         -2    1    1    2    0  502  0.21210497234E+02 -0.26347392956E+01  0.13650605326E+02  0.25360719033E+02  0.00000000000E+00 0. -1.
</event>
<event>
 4    1  0.5465458E+003  0.3022174E+02  0.7546771E-02  0.1417679E+00
          2   -1    0    0  501    0  0.00000000000E+00  0.00000000000E+00  0.23867119823E+04  0.23867119823E+04  0.00000000000E+00 0.  1.
         -2   -1    0    0    0  501 -0.00000000000E+00 -0.00000000000E+00 -0.13718769926E+01  0.13718769926E+01  0.00000000000E+00 0. -1.
          2    1    1    2  502    0  0.10227179924E+02 -0.28438681292E+02  0.22065878675E+04  0.22067948185E+04  0.00000000000E+00 0.  1.
         -2    1    1    2    0  502 -0.10227179924E+02  0.28438681292E+02  0.17875223771E+03  0.18128904074E+03  0.00000000000E+00 0. -1.
</event>
<event>
 4    1  0.5465458E+003  0.2944907E+02  0.7546771E-02  0.1424445E+00
          2   -1    0    0  501    0  0.00000000000E+00  0.00000000000E+00  0.10574545470E+04  0.10574545470E+04  0.00000000000E+00 0. -1.
         -2   -1    0    0    0  501 -0.00000000000E+00 -0.00000000000E+00 -0.56370101205E+02  0.56370101205E+02  0.00000000000E+00 0.  1.
          2    1    1    2  502    0  0.76962557072E+01 -0.28425608903E+02  0.10533884499E+04  0.10538000162E+04  0.00000000000E+00 0. -1.
         -2    1    1    2    0  502 -0.76962557072E+01  0.28425608903E+02 -0.52304004185E+02  0.60024632004E+02  0.00000000000E+00 0.  1.
</event>
<event>
 4    1  0.5465458E+003  0.3069192E+02  0.7546771E-02  0.1413677E+00
          2   -1    0    0  501    0  0.00000000000E+00  0.00000000000E+00  0.13552326311E+03  0.13552326311E+03  0.00000000000E+00 0. -1.
         -2   -1    0    0    0  501 -0.00000000000E+00 -0.00000000000E+00 -0.24896359405E+02  0.24896359405E+02  0.00000000000E+00 0.  1.
          2    1    1    2  502    0 -0.28780701602E+02 -0.10661387282E+02  0.12341205029E+03  0.12717125509E+03  0.00000000000E+00 0. -1.
         -2    1    1    2    0  502  0.28780701602E+02  0.10661387282E+02 -0.12785146585E+02  0.33248367429E+02  0.00000000000E+00 0.  1.
</event>
<event>
 4    1  0.5465458E+003  0.2318199E+02  0.7546771E-02  0.1490225E+00
          2   -1    0    0  501    0  0.00000000000E+00  0.00000000000E+00  0.10660553204E+02  0.10660553204E+02  0.00000000000E+00 0.  1.
         -2   -1    0    0    0  501 -0.00000000000E+00 -0.00000000000E+00 -0.69845313719E+02  0.69845313719E+02  0.00000000000E+00 0.  1.
          2    1    1    2  502    0  0.23032097619E+02  0.26319561032E+01 -0.83590482309E+01  0.24643019315E+02  0.00000000000E+00 0.  1.
         -2    1    1    2    0  502 -0.23032097619E+02 -0.26319561032E+01 -0.50825712284E+02  0.55862847608E+02  0.00000000000E+00 0.  1.
</event>
<event>
 4    1  0.5465458E+003  0.3818560E+02  0.7546771E-02  0.1359459E+00
          2   -1    0    0  501    0  0.00000000000E+00  0.00000000000E+00  0.10945477657E+03  0.10945477657E+03  0.00000000000E+00 0.  1.
         -2   -1    0    0    0  501 -0.00000000000E+00 -0.00000000000E+00 -0.22937363258E+02  0.22937363258E+02  0.00000000000E+00 0.  1.
          2    1    1    2  502    0 -0.12133828256E+02  0.36206499119E+02  0.86118161567E+02  0.94204448506E+02  0.00000000000E+00 0.  1.
         -2    1    1    2    0  502  0.12133828256E+02 -0.36206499119E+02  0.39925174539E+00  0.38187691323E+02  0.00000000000E+00 0.  1.
</event>
<event>
 4    1  0.5465458E+003  0.2184803E+02  0.7546771E-02  0.1507493E+00
          2   -1    0    0  501    0  0.00000000000E+00  0.00000000000E+00  0.24043558092E+01  0.24043558092E+01  0.00000000000E+00 0.  1.
         -2   -1    0    0    0  501 -0.00000000000E+00 -0.00000000000E+00 -0.19977212912E+03  0.19977212912E+03  0.00000000000E+00 0.  1.
          2    1    1    2  502    0 -0.14531495142E+02 -0.16314765928E+02 -0.10665605050E+03  0.10887079060E+03  0.00000000000E+00 0.  1.
         -2    1    1    2    0  502  0.14531495142E+02  0.16314765928E+02 -0.90711722812E+02  0.93305694327E+02  0.00000000000E+00 0.  1.
</event>
<event>
 4    1  0.5465458E+003  0.2991036E+02  0.7546771E-02  0.1420377E+00
          2   -1    0    0  501    0  0.00000000000E+00  0.00000000000E+00  0.31465595482E+04  0.31465595482E+04  0.00000000000E+00 0.  1.
         -2   -1    0    0    0  501 -0.00000000000E+00 -0.00000000000E+00 -0.29020136959E+00  0.29020136959E+00  0.00000000000E+00 0.  1.
          2    1    1    2  502    0  0.29854285188E+02  0.18306078829E+01  0.17971302928E+04  0.17973791806E+04  0.00000000000E+00 0.  1.
         -2    1    1    2    0  502 -0.29854285188E+02 -0.18306078829E+01  0.13491390540E+04  0.13494705690E+04  0.00000000000E+00 0.  1.
</event>
<event>
 4    1  0.5465458E+003  0.2010282E+02  0.7546771E-02  0.1532470E+00
          2   -1    0    0  501    0  0.00000000000E+00  0.00000000000E+00  0.33644501989E+01  0.33644501989E+01  0.00000000000E+00 0. -1.
         -2   -1    0    0    0  501 -0.00000000000E+00 -0.00000000000E+00 -0.12023747647E+03  0.12023747647E+03  0.00000000000E+00 0. -1.
          2    1    1    2  502    0  0.14664551737E+02 -0.13750429569E+02 -0.56469968173E+02  0.59941477263E+02  0.00000000000E+00 0. -1.
         -2    1    1    2    0  502 -0.14664551737E+02  0.13750429569E+02 -0.60403058099E+02  0.63660449407E+02  0.00000000000E+00 0. -1.
</event>
<event>
 4    1  0.5465458E+003  0.2389372E+02  0.7546771E-02  0.1481571E+00
          2   -1    0    0  501    0  0.00000000000E+00  0.00000000000E+00  0.90731821065E+03  0.90731821065E+03  0.00000000000E+00 0. -1.
         -2   -1    0    0    0  501 -0.00000000000E+00 -0.00000000000E+00 -0.57971876235E+01  0.57971876235E+01  0.00000000000E+00 0.  1.
          2    1    1    2  502    0 -0.18466291164E+02 -0.15162654818E+02  0.88182927054E+03  0.88215291894E+03  0.00000000000E+00 0. -1.
         -2    1    1    2    0  502  0.18466291164E+02  0.15162654818E+02  0.19691752483E+02  0.30962479332E+02  0.00000000000E+00 0.  1.
</event>
<event>
 4    1  0.5465458E+003  0.3802469E+02  0.7546771E-02  0.1360467E+00
          2   -1    0    0  501    0  0.00000000000E+00  0.00000000000E+00  0.71923736808E+03  0.71923736808E+03  0.00000000000E+00 0. -1.
         -2   -1    0    0    0  501 -0.00000000000E+00 -0.00000000000E+00 -0.28504955838E+01  0.28504955838E+01  0.00000000000E+00 0. -1.
          2    1    1    2  502    0  0.22081822858E+02 -0.30955936613E+02  0.55420974467E+03  0.55551266232E+03  0.00000000000E+00 0. -1.
         -2    1    1    2    0  502 -0.22081822858E+02  0.30955936613E+02  0.16217712783E+03  0.16657520135E+03  0.00000000000E+00 0. -1.
</event>
<event>
 4    1  0.5465458E+003  0.2237814E+02  0.7546771E-02  0.1500458E+00
          2   -1    0    0  501    0  0.00000000000E+00  0.00000000000E+00  0.15875735552E+04  0.15875735552E+04  0.00000000000E+00 0.  1.
         -2   -1    0    0    0  501 -0.00000000000E+00 -0.00000000000E+00 -0.43583538227E+00  0.43583538227E+00  0.00000000000E+00 0.  1.
          2    1    1    2  502    0  0.13224048193E+02  0.18052853782E+02  0.12108900178E+04  0.12110967824E+04  0.00000000000E+00 0.  1.
         -2    1    1    2    0  502 -0.13224048193E+02 -0.18052853782E+02  0.37624770198E+03  0.37691260821E+03  0.00000000000E+00 0.  1.
</event>
<event>
 4    1  0.5465458E+003  0.2721289E+02  0.7546771E-02  0.1445481E+00
          2   -1    0    0  501    0  0.00000000000E+00  0.00000000000E+00  0.10110891764E+04  0.10110891764E+04  0.00000000000E+00 0. -1.
         -2   -1    0    0    0  501 -0.00000000000E+00 -0.00000000000E+00 -0.74890503637E+01  0.74890503637E+01  0.00000000000E+00 0.  1.
          2    1    1    2  502    0 -0.88988658172E+00 -0.27198337087E+02  0.98554464417E+03  0.98592027421E+03  0.00000000000E+00 0. -1.
         -2    1    1    2    0  502  0.88988658172E+00  0.27198337087E+02  0.18055481818E+02  0.32657952509E+02  0.00000000000E+00 0.  1.
</event>
<event>
 4    1  0.5465458E+003  0.2575690E+02  0.7546771E-02  0.1460511E+00
          2   -1    0    0  501    0  0.00000000000E+00  0.00000000000E+00  0.35983079503E+03  0.35983079503E+03  0.00000000000E+00 0.  1.
         -2   -1    0    0    0  501 -0.00000000000E+00 -0.00000000000E+00 -0.33748432217E+02  0.33748432217E+02  0.00000000000E+00 0.  1.
          2    1    1    2  502    0  0.16006773655E+02 -0.20179229642E+02  0.35437994361E+03  0.35531473730E+03  0.00000000000E+00 0.  1.
         -2    1    1    2    0  502 -0.16006773655E+02  0.20179229642E+02 -0.28297580796E+02  0.38264489944E+02  0.00000000000E+00 0.  1.
</event>
<event>
 4    1  0.5465458E+003  0.2165226E+02  0.7546771E-02  0.1510153E+00
          2   -1    0    0  501    0  0.00000000000E+00  0.00000000000E+00  0.10311659716E+02  0.10311659716E+02  0.00000000000E+00 0.  1.
         -2   -1    0    0    0  501 -0.00000000000E+00 -0.00000000000E+00 -0.14292882088E+03  0.14292882088E+03  0.00000000000E+00 0. -1.
          2    1    1    2  502    0  0.21349400167E+02 -0.36087968978E+01 -0.30375117669E+01  0.21864280923E+02  0.00000000000E+00 0.  1.
         -2    1    1    2    0  502 -0.21349400167E+02  0.36087968978E+01 -0.12957964939E+03  0.13137619967E+03  0.00000000000E+00 0. -1.
</event>
<event>
 4    1  0.5465458E+003  0.2321243E+02  0.7546771E-02  0.1489848E+00
          2   -1    0    0  501    0  0.00000000000E+00  0.00000000000E+00  0.75236844230E+03  0.75236844230E+03  0.00000000000E+00 0.  1.
         -2   -1    0    0    0  501 -0.00000000000E+00 -0.00000000000E+00 -0.15248747416E+01  0.15248747416E+01  0.00000000000E+00 0. -1.
          2    1    1    2  502    0 -0.22416050728E+02 -0.60280602827E+01  0.64993310351E+03  0.65034748856E+03  0.00000000000E+00 0.  1.
         -2    1    1    2    0  502  0.22416050728E+02  0.60280602827E+01  0.10091046405E+03  0.10354582848E+03  0.00000000000E+00 0. -1.
</event>
<event>
 4    1  0.5465458E+003  0.2045071E+02  0.7546771E-02  0.1527254E+00
          2   -1    0    0  501    0  0.00000000000E+00  0.00000000000E+00  0.12333773999E+04  0.12333773999E+04  0.00000000000E+00 0.  1.
         -2   -1    0    0    0  501 -0.00000000000E+00 -0.00000000000E+00 -0.16906225142E+01  0.16906225142E+01  0.00000000000E+00 0.  1.
          2    1    1    2  502    0  0.40937460860E-01  0.20450670389E+02  0.11679844813E+04  0.11681635075E+04  0.00000000000E+00 0.  1.
         -2    1    1    2    0  502 -0.40937460860E-01 -0.20450670389E+02  0.63702296102E+02  0.66904514974E+02  0.00000000000E+00 0.  1.
</event>
<event>
 4    1  0.5465458E+003  0.2081913E+02  0.7546771E-02  0.1521863E+00
          2   -1    0    0  501    0  0.00000000000E+00  0.00000000000E+00  0.27800394816E+03  0.27800394816E+03  0.00000000000E+00 0. -1.
         -2   -1    0    0    0  501 -0.00000000000E+00 -0.00000000000E+00 -0.24166332493E+01  0.24166332493E+01  0.00000000000E+00 0. -1.
          2    1    1    2  502    0  0.15908182285E+02 -0.13430038301E+02  0.22131544582E+03  0.22229251618E+03  0.00000000000E+00 0. -1.
         -2    1    1    2    0  502 -0.15908182285E+02  0.13430038301E+02  0.54271869090E+02  0.58128065226E+02  0.00000000000E+00 0. -1.
</event>
<event>
 4    1  0.5465458E+003  0.2099166E+02  0.7546771E-02  0.1519384E+00
          2   -1    0    0  501    0  0.00000000000E+00  0.00000000000E+00  0.50971455119E+02  0.50971455119E+02  0.00000000000E+00 0.  1.
         -2   -1    0    0    0  501 -0.00000000000E+00 -0.00000000000E+00 -0.88377455421E+01  0.88377455421E+01  0.00000000000E+00 0.  1.
          2    1    1    2  502    0  0.16009993358E+02 -0.13576808730E+02  0.25482850406E+02  0.33015531003E+02  0.00000000000E+00 0.  1.
         -2    1    1    2    0  502 -0.16009993358E+02  0.13576808730E+02  0.16650859171E+02  0.26793669658E+02  0.00000000000E+00 0.  1.
</event>
<event>
 4    1  0.5465458E+003  0.2680327E+02  0.7546771E-02  0.1449594E+00
          2   -1    0    0  501    0  0.00000000000E+00  0.00000000000E+00  0.92716914394E+03  0.92716914394E+03  0.00000000000E+00 0. -1.
         -2   -1    0    0    0  501 -0.00000000000E+00 -0.00000000000E+00 -0.15769636910E+01  0.15769636910E+01  0.00000000000E+00 0. -1.
          2    1    1    2  502    0 -0.24246452934E+02  0.11424736046E+02  0.79398416777E+03  0.79443645041E+03  0.00000000000E+00 0. -1.
         -2    1    1    2    0  502  0.24246452934E+02 -0.11424736046E+02  0.13160801247E+03  0.13430965722E+03  0.00000000000E+00 0. -1.
</event>
<event>
 4    1  0.5465458E+003  0.3332625E+02  0.7546771E-02  0.1392728E+00
          2   -1    0    0  501    0  0.00000000000E+00  0.00000000000E+00  0.57328962352E+02  0.57328962352E+02  0.00000000000E+00 0.  1.
         -2   -1    0    0    0  501 -0.00000000000E+00 -0.00000000000E+00 -0.61498729639E+02  0.61498729639E+02  0.00000000000E+00 0. -1.
          2    1    1    2  502    0  0.26895652081E+02 -0.19678997582E+02  0.47088246788E+02  0.57688317988E+02  0.00000000000E+00 0.  1.
         -2    1    1    2    0  502 -0.26895652081E+02  0.19678997582E+02 -0.51258014074E+02  0.61139374004E+02  0.00000000000E+00 0. -1.
</event>
<event>
 4    1  0.5465458E+003  0.2281043E+02  0.7546771E-02  0.1494892E+00
          2   -1    0    0  501    0  0.00000000000E+00  0.00000000000E+00  0.32754012996E+03  0.32754012996E+03  0.00000000000E+00 0. -1.
         -2   -1    0    0    0  501 -0.00000000000E+00 -0.00000000000E+00 -0.49251168123E+03  0.49251168123E+03  0.00000000000E+00 0.  1.
          2    1    1    2  502    0  0.15174602501E+02  0.17030770822E+02  0.32687834360E+03  0.32767326292E+03  0.00000000000E+00 0. -1.
         -2    1    1    2    0  502 -0.15174602501E+02 -0.17030770822E+02 -0.49184989487E+03  0.49237854827E+03  0.00000000000E+00 0.  1.
</event>
<event>
 4    1  0.5465458E+003  0.2004036E+02  0.7546771E-02  0.1533420E+00
          2   -1    0    0  501    0  0.00000000000E+00  0.00000000000E+00  0.10826546023E+04  0.10826546023E+04  0.00000000000E+00 0.  1.
         -2   -1    0    0    0  501 -0.00000000000E+00 -0.00000000000E+00 -0.38103386815E+00  0.38103386815E+00  0.00000000000E+00 0.  1.
          2    1    1    2  502    0 -0.19767859770E+02 -0.32935647225E+01  0.62920974669E+03  0.62952880886E+03  0.00000000000E+00 0.  1.
         -2    1    1    2    0  502  0.19767859770E+02  0.32935647225E+01  0.45306382174E+03  0.45350682731E+03  0.00000000000E+00 0.  1.
</event>
<event>
 4    1  0.5465458E+003  0.5594572E+02  0.7546771E-02  0.1274267E+00
          2   -1    0    0  501    0  0.00000000000E+00  0.00000000000E+00  0.51681675971E+03  0.51681675971E+03  0.00000000000E+00 0.  1.
         -2   -1    0    0    0  501 -0.00000000000E+00 -0.00000000000E+00 -0.35518552926E+02  0.35518552926E+02  0.00000000000E+00 0.  1.
          2    1    1    2  502    0 -0.33272037809E+02 -0.44976601581E+02  0.49217297927E+03  0.49534247215E+03  0.00000000000E+00 0.  1.
         -2    1    1    2    0  502  0.33272037809E+02  0.44976601581E+02 -0.10874772490E+02  0.56992840485E+02  0.00000000000E+00 0.  1.
</event>
<event>
 4    1  0.5465458E+003  0.2173536E+02  0.7546771E-02  0.1509020E+00
          2   -1    0    0  501    0  0.00000000000E+00  0.00000000000E+00  0.55402806519E+02  0.55402806519E+02  0.00000000000E+00 0.  1.
         -2   -1    0    0    0  501 -0.00000000000E+00 -0.00000000000E+00 -0.19649236382E+03  0.19649236382E+03  0.00000000000E+00 0. -1.
          2    1    1    2  502    0 -0.93946096776E+01 -0.19600186041E+02  0.52639643572E+02  0.56950487788E+02  0.00000000000E+00 0.  1.
         -2    1    1    2    0  502  0.93946096776E+01  0.19600186041E+02 -0.19372920088E+03  0.19494468256E+03  0.00000000000E+00 0. -1.
</event>
<event>
 4    1  0.5465458E+003  0.2001733E+02  0.7546771E-02  0.1533771E+00
          2   -1    0    0  501    0  0.00000000000E+00  0.00000000000E+00  0.14546451308E+04  0.14546451308E+04  0.00000000000E+00 0.  1.
         -2   -1    0    0    0  501 -0.00000000000E+00 -0.00000000000E+00 -0.11276535178E+03  0.11276535178E+03  0.00000000000E+00 0. -1.
          2    1    1    2  502    0 -0.19213007257E+02 -0.56172907518E+01  0.14536873461E+04  0.14538251593E+04  0.00000000000E+00 0.  1.
         -2    1    1    2    0  502  0.19213007257E+02  0.56172907518E+01 -0.11180756709E+03  0.11358532327E+03  0.00000000000E+00 0. -1.
</event>
<event>
 4    1  0.5465458E+003  0.3833125E+02  0.7546771E-02  0.1358552E+00
          2   -1    0    0  501    0  0.00000000000E+00  0.00000000000E+00  0.67034595245E+03  0.67034595245E+03  0.00000000000E+00 0.  1.
         -2   -1    0    0    0  501 -0.00000000000E+00 -0.00000000000E+00 -0.27039383377E+01  0.27039383377E+01  0.00000000000E+00 0.  1.
          2    1    1    2  502    0  0.36489140257E+02  0.11739991991E+02  0.48027443495E+03  0.48180163723E+03  0.00000000000E+00 0.  1.
         -2    1    1    2    0  502 -0.36489140257E+02 -0.11739991991E+02  0.18736757916E+03  0.19124825356E+03  0.00000000000E+00 0.  1.
</event>
<event>
 4    1  0.5465458E+003  0.3530548E+02  0.7546771E-02  0.1378428E+00
          2   -1    0    0  501    0  0.00000000000E+00  0.00000000000E+00  0.39839576276E+02  0.39839576276E+02  0.00000000000E+00 0. -1.
         -2   -1    0    0    0  501 -0.00000000000E+00 -0.00000000000E+00 -0.31493182758E+02  0.31493182758E+02  0.00000000000E+00 0.  1.
          2    1    1    2  502    0  0.22294176695E+02 -0.27376023739E+02  0.70562264160E+01  0.36003712607E+02  0.00000000000E+00 0. -1.
         -2    1    1    2    0  502 -0.22294176695E+02  0.27376023739E+02  0.12901671017E+01  0.35329046427E+02  0.00000000000E+00 0.  1.
</event>
<event>
 4    1  0.5465458E+003  0.2113145E+02  0.7546771E-02  0.1517396E+00
          2   -1    0    0  501    0  0.00000000000E+00  0.00000000000E+00  0.27042819062E+03  0.27042819062E+03  0.00000000000E+00 0. -1.
         -2   -1    0    0    0  501 -0.00000000000E+00 -0.00000000000E+00 -0.36295542084E+02  0.36295542084E+02  0.00000000000E+00 0. -1.
          2    1    1    2  502    0 -0.16689236448E+02  0.12961770876E+02  0.26689906938E+03  0.26773429245E+03  0.00000000000E+00 0. -1.
         -2    1    1    2    0  502  0.16689236448E+02 -0.12961770876E+02 -0.32766420837E+02  0.38989440261E+02  0.00000000000E+00 0. -1.
</event>
<event>
 4    1  0.5465458E+003  0.2130543E+02  0.7546771E-02  0.1514949E+00
          2   -1    0    0  501    0  0.00000000000E+00  0.00000000000E+00  0.11401264809E+03  0.11401264809E+03  0.00000000000E+00 0. -1.
         -2   -1    0    0    0  501 -0.00000000000E+00 -0.00000000000E+00 -0.77221706924E+01  0.77221706924E+01  0.00000000000E+00 0. -1.
          2    1    1    2  502    0  0.21228587843E+02 -0.18078421455E+01  0.95509545412E+02  0.97857010479E+02  0.00000000000E+00 0. -1.
         -2    1    1    2    0  502 -0.21228587843E+02  0.18078421455E+01  0.10780931989E+02  0.23877808307E+02  0.00000000000E+00 0. -1.
</event>
<event>
 4    1  0.5465458E+003  0.2990692E+02  0.7546771E-02  0.1420407E+00
          2   -1    0    0  501    0  0.00000000000E+00  0.00000000000E+00  0.76901986710E+02  0.76901986710E+02  0.00000000000E+00 0. -1.
         -2   -1    0    0    0  501 -0.00000000000E+00 -0.00000000000E+00 -0.16318143805E+02  0.16318143805E+02  0.00000000000E+00 0. -1.
          2    1    1    2  502    0 -0.12308118576E+01 -0.29881579552E+02  0.55273076575E+02  0.62845339432E+02  0.00000000000E+00 0. -1.
         -2    1    1    2    0  502  0.12308118576E+01  0.29881579552E+02  0.53107663303E+01  0.30374791083E+02  0.00000000000E+00 0. -1.
</event>
<event>
 4    1  0.5465458E+003  0.2840198E+02  0.7546771E-02  0.1434011E+00
          2   -1    0    0  501    0  0.00000000000E+00  0.00000000000E+00  0.22210348580E+02  0.22210348580E+02  0.00000000000E+00 0.  1.
         -2   -1    0    0    0  501 -0.00000000000E+00 -0.00000000000E+00 -0.50258407302E+03  0.50258407302E+03  0.00000000000E+00 0.  1.
          2    1    1    2  502    0 -0.26755061653E+02 -0.95309566089E+01  0.12551394325E+02  0.31051730345E+02  0.00000000000E+00 0.  1.
         -2    1    1    2    0  502  0.26755061653E+02  0.95309566089E+01 -0.49292511877E+03  0.49374269126E+03  0.00000000000E+00 0.  1.
</event>
<event>
 4    1  0.5465458E+003  0.2059595E+02  0.7546771E-02  0.1525113E+00
          2   -1    0    0  501    0  0.00000000000E+00  0.00000000000E+00  0.20879486419E+03  0.20879486419E+03  0.00000000000E+00 0.  1.
         -2   -1    0    0    0  501 -0.00000000000E+00 -0.00000000000E+00 -0.15513940855E+02  0.15513940855E+02  0.00000000000E+00 0. -1.
          2    1    1    2  502    0  0.18841993031E+02  0.83169945717E+01  0.20119370053E+03  0.20224514390E+03  0.00000000000E+00 0.  1.
         -2    1    1    2    0  502 -0.18841993031E+02 -0.83169945717E+01 -0.79127771934E+01  0.22063661142E+02  0.00000000000E+00 0. -1.
</event>
<event>
 4    1  0.5465458E+003  0.2191937E+02  0.7546771E-02  0.1506533E+00
          2   -1    0    0  501    0  0.00000000000E+00  0.00000000000E+00  0.30138810307E+02  0.30138810307E+02  0.00000000000E+00 0.  1.
         -2   -1    0    0    0  501 -0.00000000000E+00 -0.00000000000E+00 -0.42576107807E+02  0.42576107807E+02  0.00000000000E+00 0.  1.
          2    1    1    2  502    0  0.21865687893E+02 -0.15330619752E+01  0.22537683831E+02  0.31438921395E+02  0.00000000000E+00 0.  1.
         -2    1    1    2    0  502 -0.21865687893E+02  0.15330619752E+01 -0.34974981330E+02  0.41275996718E+02  0.00000000000E+00 0.  1.
</event>
<event>
 4    1  0.5465458E+003  0.2822147E+02  0.7546771E-02  0.1435709E+00
          2   -1    0    0  501    0  0.00000000000E+00  0.00000000000E+00  0.10410375200E+04  0.10410375200E+04  0.00000000000E+00 0.  1.
         -2   -1    0    0    0  501 -0.00000000000E+00 -0.00000000000E+00 -0.79074220649E+00  0.79074220649E+00  0.00000000000E+00 0. -1.
          2    1    1    2  502    0  0.27630267410E+02  0.57462893871E+01  0.61400976535E+03  0.61465798902E+03  0.00000000000E+00 0.  1.
         -2    1    1    2    0  502 -0.27630267410E+02 -0.57462893871E+01  0.42623701241E+03  0.42717027315E+03  0.00000000000E+00 0. -1.
</event>
<event>
 4    1  0.5465458E+003  0.2112436E+02  0.7546771E-02  0.1517497E+00
          2   -1    0    0  501    0  0.00000000000E+00  0.00000000000E+00  0.97117058227E+03  0.97117058227E+03  0.00000000000E+00 0. -1.
         -2   -1    0    0    0  501 -0.00000000000E+00 -0.00000000000E+00 -0.88566828516E+02  0.88566828516E+02  0.00000000000E+00 0.  1.
          2    1    1    2  502    0 -0.21083928588E+02  0.13064069211E+01  0.96979431331E+03  0.97002435478E+03  0.00000000000E+00 0. -1.
         -2    1    1    2    0  502  0.21083928588E+02 -0.13064069211E+01 -0.87190559550E+02  0.89713056008E+02  0.00000000000E+00 0.  1.
</event>
<event>
 4    1  0.5465458E+003  0.2642390E+02  0.7546771E-02  0.1453483E+00
          2   -1    0    0  501    0  0.00000000000E+00  0.00000000000E+00  0.29294426654E+03  0.29294426654E+03  0.00000000000E+00 0. -1.
         -2   -1    0    0    0  501 -0.00000000000E+00 -0.00000000000E+00 -0.37674543166E+02  0.37674543166E+02  0.00000000000E+00 0.  1.
          2    1    1    2  502    0 -0.14301953212E+02  0.22218837139E+02  0.28762971934E+03  0.28884092168E+03  0.00000000000E+00 0. -1.
         -2    1    1    2    0  502  0.14301953212E+02 -0.22218837139E+02 -0.32359995963E+02  0.41777888030E+02  0.00000000000E+00 0.  1.
</event>
<event>
 4    1  0.5465458E+003  0.2332740E+02  0.7546771E-02  0.1488427E+00
          2   -1    0    0  501    0  0.00000000000E+00  0.00000000000E+00  0.86179240904E+01  0.86179240904E+01  0.00000000000E+00 0. -1.
         -2   -1    0    0    0  501 -0.00000000000E+00 -0.00000000000E+00 -0.80517749002E+02  0.80517749002E+02  0.00000000000E+00 0. -1.
          2    1    1    2  502    0 -0.41823566451E+01 -0.22949413115E+02 -0.15247251018E+02  0.27868375142E+02  0.00000000000E+00 0. -1.
         -2    1    1    2    0  502  0.41823566451E+01  0.22949413115E+02 -0.56652573894E+02  0.61267297951E+02  0.00000000000E+00 0. -1.
</event>
<event>
 4    1  0.5465458E+003  0.2164217E+02  0.7546771E-02  0.1510291E+00
          2   -1    0    0  501    0  0.00000000000E+00  0.00000000000E+00  0.19663878041E+03  0.19663878041E+03  0.00000000000E+00 0.  1.
         -2   -1    0    0    0  501 -0.00000000000E+00 -0.00000000000E+00 -0.29069505251E+01  0.29069505251E+01  0.00000000000E+00 0.  1.
          2    1    1    2  502    0  0.20524484869E+02 -0.68650562562E+01  0.13926671530E+03  0.14093828957E+03  0.00000000000E+00 0.  1.
         -2    1    1    2    0  502 -0.20524484869E+02  0.68650562562E+01  0.54465114583E+02  0.58607441362E+02  0.00000000000E+00 0.  1.
</event>
<event>
 4    1  0.5465458E+003  0.2147398E+02  0.7546771E-02  0.1512604E+00
          2   -1    0    0  501    0  0.00000000000E+00  0.00000000000E+00  0.14475840283E+03  0.14475840283E+03  0.00000000000E+00 0. -1.
         -2   -1    0    0    0  501 -0.00000000000E+00 -0.00000000000E+00 -0.35500041205E+01  0.35500041205E+01  0.00000000000E+00 0. -1.
          2    1    1    2  502    0  0.36413058017E+01 -0.21163000838E+02  0.94364768797E+02  0.96777276788E+02  0.00000000000E+00 0. -1.
         -2    1    1    2    0  502 -0.36413058017E+01  0.21163000838E+02  0.46843629911E+02  0.51531130161E+02  0.00000000000E+00 0. -1.
</event>
<event>
 4    1  0.5465458E+003  0.2114171E+02  0.7546771E-02  0.1517251E+00
          2   -1    0    0  501    0  0.00000000000E+00  0.00000000000E+00  0.24478671342E+03  0.24478671342E+03  0.00000000000E+00 0.  1.
         -2   -1    0    0    0  501 -0.00000000000E+00 -0.00000000000E+00 -0.13820207701E+02  0.13820207701E+02  0.00000000000E+00 0. -1.
          2    1    1    2  502    0  0.15762093226E+02 -0.14090010598E+02  0.23594225980E+03  0.23688757236E+03  0.00000000000E+00 0.  1.
         -2    1    1    2    0  502 -0.15762093226E+02  0.14090010598E+02 -0.49757540838E+01  0.21719348752E+02  0.00000000000E+00 0. -1.
</event>
<event>
 4    1  0.5465458E+003  0.2615672E+02  0.7546771E-02  0.1456268E+00
          2   -1    0    0  501    0  0.00000000000E+00  0.00000000000E+00  0.14484644156E+04  0.14484644156E+04  0.00000000000E+00 0.  1.
         -2   -1    0    0    0  501 -0.00000000000E+00 -0.00000000000E+00 -0.63484278728E+02  0.63484278728E+02  0.00000000000E+00 0.  1.
          2    1    1    2  502    0 -0.91742388843E+01 -0.24495051798E+02  0.14456468123E+04  0.14458834255E+04  0.00000000000E+00 0.  1.
         -2    1    1    2    0  502  0.91742388843E+01  0.24495051798E+02 -0.60666675492E+02  0.66065268765E+02  0.00000000000E+00 0.  1.
</event>
<event>
 4    1  0.5465458E+003  0.2039408E+02  0.7546771E-02  0.1528094E+00
          2   -1    0    0  501    0  0.00000000000E+00  0.00000000000E+00  0.17774705540E+02  0.17774705540E+02  0.00000000000E+00 0.  1.
         -2   -1    0    0    0  501 -0.00000000000E+00 -0.00000000000E+00 -0.35967392829E+02  0.35967392829E+02  0.00000000000E+00 0. -1.
          2    1    1    2  502    0  0.14112755079E+02  0.14722379537E+02  0.67877434922E+01  0.21493993972E+02  0.00000000000E+00 0.  1.
         -2    1    1    2    0  502 -0.14112755079E+02 -0.14722379537E+02 -0.24980430782E+02  0.32248104397E+02  0.00000000000E+00 0. -1.
</event>
<event>
 4    1  0.5465458E+003  0.2501338E+02  0.7546771E-02  0.1468654E+00
          2   -1    0    0  501    0  0.00000000000E+00  0.00000000000E+00  0.33379576766E+02  0.33379576766E+02  0.00000000000E+00 0. -1.
         -2   -1    0    0    0  501 -0.00000000000E+00 -0.00000000000E+00 -0.84440002950E+02  0.84440002950E+02  0.00000000000E+00 0. -1.
          2    1    1    2  502    0 -0.20958379795E+02 -0.13653405856E+02  0.26431395923E+02  0.36390766212E+02  0.00000000000E+00 0. -1.
         -2    1    1    2    0  502  0.20958379795E+02  0.13653405856E+02 -0.77491822107E+02  0.81428813504E+02  0.00000000000E+00 0. -1.
</event>
<event>
 4    1  0.5465458E+003  0.2563750E+02  0.7546771E-02  0.1461797E+00
          2   -1    0    0  501    0  0.00000000000E+00  0.00000000000E+00  0.30057452631E+02  0.30057452631E+02  0.00000000000E+00 0.  1.
         -2   -1    0    0    0  501 -0.00000000000E+00 -0.00000000000E+00 -0.10875004903E+03  0.10875004903E+03  0.00000000000E+00 0. -1.
          2    1    1    2  502    0  0.25583511819E+02  0.16628827871E+01  0.22688374573E+02  0.34235122271E+02  0.00000000000E+00 0.  1.
         -2    1    1    2    0  502 -0.25583511819E+02 -0.16628827871E+01 -0.10138097097E+03  0.10457237939E+03  0.00000000000E+00 0. -1.
</event>
<event>
 4    1  0.5465458E+003  0.3000106E+02  0.7546771E-02  0.1419587E+00
          2   -1    0    0  501    0  0.00000000000E+00  0.00000000000E+00  0.14482697945E+04  0.14482697945E+04  0.00000000000E+00 0. -1.
         -2   -1    0    0    0  501 -0.00000000000E+00 -0.00000000000E+00 -0.12225274899E+01  0.12225274899E+01  0.00000000000E+00 0.  1.
          2    1    1    2  502    0  0.25153945119E+02  0.16350622078E+02  0.12316979662E+04  0.12320632873E+04  0.00000000000E+00 0. -1.
         -2    1    1    2    0  502 -0.25153945119E+02 -0.16350622078E+02  0.21534930079E+03  0.21742903474E+03  0.00000000000E+00 0.  1.
</event>
<event>
 4    1  0.5465458E+003  0.2751750E+02  0.7546771E-02  0.1442478E+00
          2   -1    0    0  501    0  0.00000000000E+00  0.00000000000E+00  0.29402801769E+03  0.29402801769E+03  0.00000000000E+00 0.  1.
         -2   -1    0    0    0  501 -0.00000000000E+00 -0.00000000000E+00 -0.67188957941E+01  0.67188957941E+01  0.00000000000E+00 0. -1.
          2    1    1    2  502    0 -0.11186549604E+02 -0.25141079822E+02  0.26174384477E+03  0.26318634664E+03  0.00000000000E+00 0.  1.
         -2    1    1    2    0  502  0.11186549604E+02  0.25141079822E+02  0.25565277130E+02  0.37560566841E+02  0.00000000000E+00 0. -1.
</event>
<event>
 4    1  0.5465458E+003  0.4325944E+02  0.7546771E-02  0.1330376E+00
          2   -1    0    0  501    0  0.00000000000E+00  0.00000000000E+00  0.19559744749E+04  0.19559744749E+04  0.00000000000E+00 0. -1.
         -2   -1    0    0    0  501 -0.00000000000E+00 -0.00000000000E+00 -0.14409752434E+02  0.14409752434E+02  0.00000000000E+00 0. -1.
          2    1    1    2  502    0  0.26838695423E+02  0.33927326850E+02  0.19227063542E+04  0.19231929450E+04  0.00000000000E+00 0. -1.
         -2    1    1    2    0  502 -0.26838695423E+02 -0.33927326850E+02  0.18858368286E+02  0.47191282390E+02  0.00000000000E+00 0. -1.
</event>
<event>
 4    1  0.5465458E+003  0.2893744E+02  0.7546771E-02  0.1429060E+00
          2   -1    0    0  501    0  0.00000000000E+00  0.00000000000E+00  0.78305998120E+01  0.78305998120E+01  0.00000000000E+00 0. -1.
         -2   -1    0    0    0  501 -0.00000000000E+00 -0.00000000000E+00 -0.14014834802E+04  0.14014834802E+04  0.00000000000E+00 0. -1.
          2    1    1    2  502    0 -0.20858215425E+02 -0.20057670246E+02 -0.19586212501E+02  0.34942738968E+02  0.00000000000E+00 0. -1.
         -2    1    1    2    0  502  0.20858215425E+02  0.20057670246E+02 -0.13740666679E+04  0.13743713411E+04  0.00000000000E+00 0. -1.
</event>
<event>
 4    1  0.5465458E+003  0.2341807E+02  0.7546771E-02  0.1487314E+00
          2   -1    0    0  501    0  0.00000000000E+00  0.00000000000E+00  0.28946854773E+02  0.28946854773E+02  0.00000000000E+00 0.  1.
         -2   -1    0    0    0  501 -0.00000000000E+00 -0.00000000000E+00 -0.30500828803E+03  0.30500828803E+03  0.00000000000E+00 0. -1.
          2    1    1    2  502    0  0.18546632992E+02  0.14297840621E+02  0.23677907344E+02  0.33302389373E+02  0.00000000000E+00 0.  1.
         -2    1    1    2    0  502 -0.18546632992E+02 -0.14297840621E+02 -0.29973934060E+03  0.30065275343E+03  0.00000000000E+00 0. -1.
</event>
<event>
 4    1  0.5465458E+003  0.2182637E+02  0.7546771E-02  0.1507786E+00
          2   -1    0    0  501    0  0.00000000000E+00  0.00000000000E+00  0.46371984221E+03  0.46371984221E+03  0.00000000000E+00 0.  1.
         -2   -1    0    0    0  501 -0.00000000000E+00 -0.00000000000E+00 -0.24288831532E+02  0.24288831532E+02  0.00000000000E+00 0.  1.
          2    1    1    2  502    0 -0.21761141241E+02 -0.16861826092E+01  0.45850387124E+03  0.45902308267E+03  0.00000000000E+00 0.  1.
         -2    1    1    2    0  502  0.21761141241E+02  0.16861826092E+01 -0.19072860563E+02  0.28985591074E+02  0.00000000000E+00 0.  1.
</event>
<event>
 4    1  0.5465458E+003  0.4016249E+02  0.7546771E-02  0.1347536E+00
          2   -1    0    0  501    0  0.00000000000E+00  0.00000000000E+00  0.11775696382E+04  0.11775696382E+04  0.00000000000E+00 0.  1.
         -2   -1    0    0    0  501 -0.00000000000E+00 -0.00000000000E+00 -0.14227220212E+01  0.14227220212E+01  0.00000000000E+00 0.  1.
          2    1    1    2  502    0 -0.37005913047E+02 -0.15607305511E+02  0.70177637301E+03  0.70292467825E+03  0.00000000000E+00 0.  1.
         -2    1    1    2    0  502  0.37005913047E+02  0.15607305511E+02  0.47437054319E+03  0.47606768199E+03  0.00000000000E+00 0.  1.
</event>
<event>
 4    1  0.5465458E+003  0.2315187E+02  0.7546771E-02  0.1490600E+00
          2   -1    0    0  501    0  0.00000000000E+00  0.00000000000E+00  0.14179836390E+04  0.14179836390E+04  0.00000000000E+00 0. -1.
         -2   -1    0    0    0  501 -0.00000000000E+00 -0.00000000000E+00 -0.41805460298E+02  0.41805460298E+02  0.00000000000E+00 0. -1.
          2    1    1    2  502    0 -0.15030475298E+01  0.23103032114E+02  0.14146762654E+04  0.14148656986E+04  0.00000000000E+00 0. -1.
         -2    1    1    2    0  502  0.15030475298E+01 -0.23103032114E+02 -0.38498086724E+02  0.44923400652E+02  0.00000000000E+00 0. -1.
</event>
<event>
 4    1  0.5465458E+003  0.2390326E+02  0.7546771E-02  0.1481457E+00
          2   -1    0    0  501    0  0.00000000000E+00  0.00000000000E+00  0.96554512955E+02  0.96554512955E+02  0.00000000000E+00 0.  1.
         -2   -1    0    0    0  501 -0.00000000000E+00 -0.00000000000E+00 -0.60487781170E+01  0.60487781170E+01  0.00000000000E+00 0.  1.
          2    1    1    2  502    0  0.23857182349E+02  0.14833949493E+01  0.52809360814E+02  0.57967182093E+02  0.00000000000E+00 0.  1.
         -2    1    1    2    0  502 -0.23857182349E+02 -0.14833949493E+01  0.37696374024E+02  0.44636108979E+02  0.00000000000E+00 0.  1.
</event>
<event>
 4    1  0.5465458E+003  0.2471657E+02  0.7546771E-02  0.1471999E+00
          2   -1    0    0  501    0  0.00000000000E+00  0.00000000000E+00  0.54043570623E+01  0.54043570623E+01  0.00000000000E+00 0. -1.
         -2   -1    0    0    0  501 -0.00000000000E+00 -0.00000000000E+00 -0.11310522546E+03  0.11310522546E+03  0.00000000000E+00 0. -1.
          2    1    1    2  502    0  0.24155303118E+02 -0.52373994761E+01 -0.52428489589E+02  0.57962535681E+02  0.00000000000E+00 0. -1.
         -2    1    1    2    0  502 -0.24155303118E+02  0.52373994761E+01 -0.55272378806E+02  0.60547046839E+02  0.00000000000E+00 0. -1.
</event>
<event>
 4    1  0.5465458E+003  0.2812196E+02  0.7546771E-02  0.1436652E+00
          2   -1    0    0  501    0  0.00000000000E+00  0.00000000000E+00  0.27051174852E+02  0.27051174852E+02  0.00000000000E+00 0.  1.
         -2   -1    0    0    0  501 -0.00000000000E+00 -0.00000000000E+00 -0.27549984641E+03  0.27549984641E+03  0.00000000000E+00 0.  1.
          2    1    1    2  502    0 -0.26824375108E+02  0.84437757655E+01  0.18799706646E+02  0.33827110711E+02  0.00000000000E+00 0.  1.
         -2    1    1    2    0  502  0.26824375108E+02 -0.84437757655E+01 -0.26724837821E+03  0.26872391055E+03  0.00000000000E+00 0.  1.
</event>
<event>
 4    1  0.5465458E+003  0.2311519E+02  0.7546771E-02  0.1491057E+00
          2   -1    0    0  501    0  0.00000000000E+00  0.00000000000E+00  0.28426262017E+03  0.28426262017E+03  0.00000000000E+00 0.  1.
         -2   -1    0    0    0  501 -0.00000000000E+00 -0.00000000000E+00 -0.28241453412E+01  0.28241453412E+01  0.00000000000E+00 0.  1.
          2    1    1    2  502    0  0.66278869289E+01  0.22144591593E+02  0.22373135944E+03  0.22492228217E+03  0.00000000000E+00 0.  1.
         -2    1    1    2    0  502 -0.66278869289E+01 -0.22144591593E+02  0.57707115390E+02  0.62164483338E+02  0.00000000000E+00 0.  1.
</event>
<event>
 4    1  0.5465458E+003  0.2305957E+02  0.7546771E-02  0.1491751E+00
          2   -1    0    0  501    0  0.00000000000E+00  0.00000000000E+00  0.83407416901E+03  0.83407416901E+03  0.00000000000E+00 0. -1.
         -2   -1    0    0    0  501 -0.00000000000E+00 -0.00000000000E+00 -0.44329639687E+01  0.44329639687E+01  0.00000000000E+00 0. -1.
          2    1    1    2  502    0 -0.22721318272E+02 -0.39351463933E+01  0.80275709402E+03  0.80308822409E+03  0.00000000000E+00 0. -1.
         -2    1    1    2    0  502  0.22721318272E+02  0.39351463933E+01  0.26884111027E+02  0.35418908889E+02  0.00000000000E+00 0. -1.
</event>
<event>
 4    1  0.5465458E+003  0.2415045E+02  0.7546771E-02  0.1478536E+00
          2   -1    0    0  501    0  0.00000000000E+00  0.00000000000E+00  0.83052918354E+03  0.83052918354E+03  0.00000000000E+00 0.  1.
         -2   -1    0    0    0  501 -0.00000000000E+00 -0.00000000000E+00 -0.91268947026E+01  0.91268947026E+01  0.00000000000E+00 0.  1.
          2    1    1    2  502    0 -0.24067635684E+02  0.19983183126E+01  0.81405438903E+03  0.81441254451E+03  0.00000000000E+00 0.  1.
         -2    1    1    2    0  502  0.24067635684E+02 -0.19983183126E+01  0.73478998067E+01  0.25243533727E+02  0.00000000000E+00 0.  1.
</event>
<event>
 4    1  0.5465458E+003  0.2015029E+02  0.7546771E-02  0.1531751E+00
          2   -1    0    0  501    0  0.00000000000E+00  0.00000000000E+00  0.22608464287E+02  0.22608464287E+02  0.00000000000E+00 0.  1.
         -2   -1    0    0    0  501 -0.00000000000E+00 -0.00000000000E+00 -0.78129617589E+02  0.78129617589E+02  0.00000000000E+00 0. -1.
          2    1    1    2  502    0  0.10343335921E+01 -0.20123724425E+02  0.16441907272E+02  0.26007122976E+02  0.00000000000E+00 0.  1.
         -2    1    1    2    0  502 -0.10343335921E+01  0.20123724425E+02 -0.71963060575E+02  0.74730958900E+02  0.00000000000E+00 0. -1.
</event>
<event>
 4    1  0.5465458E+003  0.2066147E+02  0.7546771E-02  0.1524154E+00
          2   -1    0    0  501    0  0.00000000000E+00  0.00000000000E+00  0.91103719652E+03  0.91103719652E+03  0.00000000000E+00 0.  1.
         -2   -1    0    0    0  501 -0.00000000000E+00 -0.00000000000E+00 -0.49715900811E+01  0.49715900811E+01  0.00000000000E+00 0. -1.
          2    1    1    2  502    0  0.75492317670E+01  0.19232922709E+02  0.88891920401E+03  0.88915929252E+03  0.00000000000E+00 0.  1.
         -2    1    1    2    0  502 -0.75492317670E+01 -0.19232922709E+02  0.17146402430E+02  0.26849494083E+02  0.00000000000E+00 0. -1.
</event>
<event>
 4    1  0.5465458E+003  0.2176954E+02  0.7546771E-02  0.1508555E+00
          2   -1    0    0  501    0  0.00000000000E+00  0.00000000000E+00  0.63143470618E+03  0.63143470618E+03  0.00000000000E+00 0.  1.
         -2   -1    0    0    0  501 -0.00000000000E+00 -0.00000000000E+00 -0.24396593628E+01  0.24396593628E+01  0.00000000000E+00 0. -1.
          2    1    1    2  502    0  0.15032497988E+02  0.15746004647E+02  0.57821544974E+03  0.57862511091E+03  0.00000000000E+00 0.  1.
         -2    1    1    2    0  502 -0.15032497988E+02 -0.15746004647E+02  0.50779597075E+02  0.55249254630E+02  0.00000000000E+00 0. -1.
</event>
<event>
 4    1  0.5465458E+003  0.2392240E+02  0.7546771E-02  0.1481229E+00
          2   -1    0    0  501    0  0.00000000000E+00  0.00000000000E+00  0.44198474326E+03  0.44198474326E+03  0.00000000000E+00 0. -1.
         -2   -1    0    0    0  501 -0.00000000000E+00 -0.00000000000E+00 -0.70995287668E+01  0.70995287668E+01  0.00000000000E+00 0. -1.
          2    1    1    2  502    0  0.23500718917E+02 -0.44718466003E+01  0.42047910258E+03  0.42115906366E+03  0.00000000000E+00 0. -1.
         -2    1    1    2    0  502 -0.23500718917E+02  0.44718466003E+01  0.14406111917E+02  0.27925208365E+02  0.00000000000E+00 0. -1.
</event>
<event>
 4    1  0.5465458E+003  0.2996881E+02  0.7546771E-02  0.1419868E+00
          2   -1    0    0  501    0  0.00000000000E+00  0.00000000000E+00  0.49048978855E+03  0.49048978855E+03  0.00000000000E+00 0.  1.
         -2   -1    0    0    0  501 -0.00000000000E+00 -0.00000000000E+00 -0.12156552492E+02  0.12156552492E+02  0.00000000000E+00 0. -1.
          2    1    1    2  502    0 -0.29667329753E+02  0.42401516740E+01  0.47078986242E+03  0.47174275182E+03  0.00000000000E+00 0.  1.
         -2    1    1    2    0  502  0.29667329753E+02 -0.42401516740E+01  0.75433736418E+01  0.30903589222E+02  0.00000000000E+00 0. -1.
</event>
<event>
 4    1  0.5465458E+003  0.2638174E+02  0.7546771E-02  0.1453919E+00
          2   -1    0    0  501    0  0.00000000000E+00  0.00000000000E+00  0.55942437314E+03  0.55942437314E+03  0.00000000000E+00 0. -1.
         -2   -1    0    0    0  501 -0.00000000000E+00 -0.00000000000E+00 -0.70804801329E+02  0.70804801329E+02  0.00000000000E+00 0.  1.
          2    1    1    2  502    0  0.24339131374E+02  0.10178541674E+02  0.55664362504E+03  0.55726844637E+03  0.00000000000E+00 0. -1.
         -2    1    1    2    0  502 -0.24339131374E+02 -0.10178541674E+02 -0.68024053228E+02  0.72960728095E+02  0.00000000000E+00 0.  1.
</event>
<event>
 4    1  0.5465458E+003  0.2180328E+02  0.7546771E-02  0.1508098E+00
          2   -1    0    0  501    0  0.00000000000E+00  0.00000000000E+00  0.23697296302E+03  0.23697296302E+03  0.00000000000E+00 0.  1.
         -2   -1    0    0    0  501 -0.00000000000E+00 -0.00000000000E+00 -0.22795353208E+02  0.22795353208E+02  0.00000000000E+00 0.  1.
          2    1    1    2  502    0 -0.21076168647E+02  0.55837436511E+01  0.23112625645E+03  0.23215238422E+03  0.00000000000E+00 0.  1.
         -2    1    1    2    0  502  0.21076168647E+02 -0.55837436511E+01 -0.16948646636E+02  0.27615932010E+02  0.00000000000E+00 0.  1.
</event>
<event>
 4    1  0.5465458E+003  0.4720127E+02  0.7546771E-02  0.1310785E+00
          2   -1    0    0  501    0  0.00000000000E+00  0.00000000000E+00  0.12791601167E+04  0.12791601167E+04  0.00000000000E+00 0.  1.
         -2   -1    0    0    0  501 -0.00000000000E+00 -0.00000000000E+00 -0.17477969668E+01  0.17477969668E+01  0.00000000000E+00 0. -1.
          2    1    1    2  502    0  0.44486125707E+02 -0.15777916119E+02  0.60098828693E+03  0.60283901586E+03  0.00000000000E+00 0.  1.
         -2    1    1    2    0  502 -0.44486125707E+02  0.15777916119E+02  0.67642403280E+03  0.67806889780E+03  0.00000000000E+00 0. -1.
</event>
<event>
 4    1  0.5465458E+003  0.2088818E+02  0.7546771E-02  0.1520867E+00
          2   -1    0    0  501    0  0.00000000000E+00  0.00000000000E+00  0.14941719870E+04  0.14941719870E+04  0.00000000000E+00 0. -1.
         -2   -1    0    0    0  501 -0.00000000000E+00 -0.00000000000E+00 -0.73063027948E+02  0.73063027948E+02  0.00000000000E+00 0. -1.
          2    1    1    2  502    0 -0.14969600677E+02 -0.14568013370E+02  0.14926044725E+04  0.14927506246E+04  0.00000000000E+00 0. -1.
         -2    1    1    2    0  502  0.14969600677E+02  0.14568013370E+02 -0.71495513456E+02  0.74484390326E+02  0.00000000000E+00 0. -1.
</event>
<event>
 4    1  0.5465458E+003  0.2468450E+02  0.7546771E-02  0.1472364E+00
          2   -1    0    0  501    0  0.00000000000E+00  0.00000000000E+00  0.12692459889E+04  0.12692459889E+04  0.00000000000E+00 0.  1.
         -2   -1    0    0    0  501 -0.00000000000E+00 -0.00000000000E+00 -0.15406820521E+01  0.15406820521E+01  0.00000000000E+00 0.  1.
          2    1    1    2  502    0 -0.17825025353E+02  0.17076088304E+02  0.11610398353E+04  0.11613022102E+04  0.00000000000E+00 0.  1.
         -2    1    1    2    0  502  0.17825025353E+02 -0.17076088304E+02  0.10666547163E+03  0.10948446081E+03  0.00000000000E+00 0.  1.
</event>
<event>
 4    1  0.5465458E+003  0.7162210E+02  0.7546771E-02  0.1224758E+00
          2   -1    0    0  501    0  0.00000000000E+00  0.00000000000E+00  0.33860343021E+03  0.33860343021E+03  0.00000000000E+00 0.  1.
         -2   -1    0    0    0  501 -0.00000000000E+00 -0.00000000000E+00 -0.93468170785E+03  0.93468170785E+03  0.00000000000E+00 0. -1.
          2    1    1    2  502    0 -0.71523509599E+02 -0.37567329195E+01  0.33342288702E+03  0.34102866017E+03  0.00000000000E+00 0.  1.
         -2    1    1    2    0  502  0.71523509599E+02  0.37567329195E+01 -0.92950116466E+03  0.93225647789E+03  0.00000000000E+00 0. -1.
</event>
<event>
 4    1  0.5465458E+003  0.3126178E+02  0.7546771E-02  0.1408939E+00
          2   -1    0    0  501    0  0.00000000000E+00  0.00000000000E+00  0.10139243432E+02  0.10139243432E+02  0.00000000000E+00 0. -1.
         -2   -1    0    0    0  501 -0.00000000000E+00 -0.00000000000E+00 -0.16762444499E+03  0.16762444499E+03  0.00000000000E+00 0. -1.
          2    1    1    2  502    0 -0.49640785430E+01  0.30865138788E+02 -0.20800230150E+02  0.37549280186E+02  0.00000000000E+00 0. -1.
         -2    1    1    2    0  502  0.49640785430E+01 -0.30865138788E+02 -0.13668497140E+03  0.14021440823E+03  0.00000000000E+00 0. -1.
</event>
<event>
 4    1  0.5465458E+003  0.2079189E+02  0.7546771E-02  0.1522257E+00
          2   -1    0    0  501    0  0.00000000000E+00  0.00000000000E+00  0.85491942953E+02  0.85491942953E+02  0.00000000000E+00 0.  1.
         -2   -1    0    0    0  501 -0.00000000000E+00 -0.00000000000E+00 -0.23545094016E+02  0.23545094016E+02  0.00000000000E+00 0. -1.
          2    1    1    2  502    0 -0.13595648995E+02 -0.15730891222E+02  0.79284203757E+02  0.81965160743E+02  0.00000000000E+00 0.  1.
         -2    1    1    2    0  502  0.13595648995E+02  0.15730891222E+02 -0.17337354821E+02  0.27071876226E+02  0.00000000000E+00 0. -1.
</event>
<event>
 4    1  0.5465458E+003  0.2223160E+02  0.7546771E-02  0.1502379E+00
          2   -1    0    0  501    0  0.00000000000E+00  0.00000000000E+00  0.19539461026E+02  0.19539461026E+02  0.00000000000E+00 0. -1.
         -2   -1    0    0    0  501 -0.00000000000E+00 -0.00000000000E+00 -0.24749120759E+03  0.24749120759E+03  0.00000000000E+00 0. -1.
          2    1    1    2  502    0  0.21085516019E+02  0.70459088933E+01  0.12532690052E+02  0.25520817735E+02  0.00000000000E+00 0. -1.
         -2    1    1    2    0  502 -0.21085516019E+02 -0.70459088933E+01 -0.24048443661E+03  0.24150985088E+03  0.00000000000E+00 0. -1.
</event>
<event>
 4    1  0.5465458E+003  0.4256943E+02  0.7546771E-02  0.1334053E+00
          2   -1    0    0  501    0  0.00000000000E+00  0.00000000000E+00  0.65128594317E+03  0.65128594317E+03  0.00000000000E+00 0.  1.
         -2   -1    0    0    0  501 -0.00000000000E+00 -0.00000000000E+00 -0.35822090728E+02  0.35822090728E+02  0.00000000000E+00 0. -1.
          2    1    1    2  502    0 -0.28344283899E+02 -0.31760946735E+02  0.63767374913E+03  0.63909308125E+03  0.00000000000E+00 0.  1.
         -2    1    1    2    0  502  0.28344283899E+02  0.31760946735E+02 -0.22209896688E+02  0.48014952651E+02  0.00000000000E+00 0. -1.
</event>
<event>
 4    1  0.5465458E+003  0.2053049E+02  0.7546771E-02  0.1526075E+00
          2   -1    0    0  501    0  0.00000000000E+00  0.00000000000E+00  0.56614214793E+02  0.56614214793E+02  0.00000000000E+00 0. -1.
         -2   -1    0    0    0  501 -0.00000000000E+00 -0.00000000000E+00 -0.79197419478E+01  0.79197419478E+01  0.00000000000E+00 0. -1.
          2    1    1    2  502    0  0.18191327056E+02 -0.95171459287E+01  0.16448274262E+02  0.26306770476E+02  0.00000000000E+00 0. -1.
         -2    1    1    2    0  502 -0.18191327056E+02  0.95171459287E+01  0.32246198584E+02  0.38227186265E+02  0.00000000000E+00 0. -1.
</event>
<event>
 4    1  0.5465458E+003  0.2707369E+02  0.7546771E-02  0.1446869E+00
          2   -1    0    0  501    0  0.00000000000E+00  0.00000000000E+00  0.10110782552E+04  0.10110782552E+04  0.00000000000E+00 0. -1.
         -2   -1    0    0    0  501 -0.00000000000E+00 -0.00000000000E+00 -0.16438868733E+01  0.16438868733E+01  0.00000000000E+00 0.  1.
          2    1    1    2  502    0 -0.23996649774E+02 -0.12535771874E+02  0.88330474888E+03  0.88371956195E+03  0.00000000000E+00 0. -1.
         -2    1    1    2    0  502  0.23996649774E+02  0.12535771874E+02  0.12612961942E+03  0.12900258009E+03  0.00000000000E+00 0.  1.
</event>
<event>
 4    1  0.5465458E+003  0.2802916E+02  0.7546771E-02  0.1437535E+00
          2   -1    0    0  501    0  0.00000000000E+00  0.00000000000E+00  0.60652392320E+02  0.60652392320E+02  0.00000000000E+00 0. -1.
         -2   -1    0    0    0  501 -0.00000000000E+00 -0.00000000000E+00 -0.58859236573E+02  0.58859236573E+02  0.00000000000E+00 0.  1.
          2    1    1    2  502    0 -0.27988295742E+02  0.15129440132E+01  0.53669172653E+02  0.60547615902E+02  0.00000000000E+00 0. -1.
         -2    1    1    2    0  502  0.27988295742E+02 -0.15129440132E+01 -0.51876016905E+02  0.58964012992E+02  0.00000000000E+00 0.  1.
</event>
<event>
 4    1  0.5465458E+003  0.2021809E+02  0.7546771E-02  0.1530728E+00
          2   -1    0    0  501    0  0.00000000000E+00  0.00000000000E+00  0.67772383904E+03  0.67772383904E+03  0.00000000000E+00 0. -1.
         -2   -1    0    0    0  501 -0.00000000000E+00 -0.00000000000E+00 -0.74967234118E+01  0.74967234118E+01  0.00000000000E+00 0.  1.
          2    1    1    2  502    0 -0.13495776487E+02  0.15054400997E+02  0.66365243178E+03  0.66396033103E+03  0.00000000000E+00 0. -1.
         -2    1    1    2    0  502  0.13495776487E+02 -0.15054400997E+02  0.65746838451E+01  0.21260231420E+02  0.00000000000E+00 0.  1.
</event>
<event>
 4    1  0.5465458E+003  0.2237024E+02  0.7546771E-02  0.1500561E+00
          2   -1    0    0  501    0  0.00000000000E+00  0.00000000000E+00  0.56790604022E+03  0.56790604022E+03  0.00000000000E+00 0.  1.
         -2   -1    0    0    0  501 -0.00000000000E+00 -0.00000000000E+00 -0.31528187232E+01  0.31528187232E+01  0.00000000000E+00 0.  1.
          2    1    1    2  502    0 -0.20501230661E+02  0.89513779865E+01  0.52474221046E+03  0.52521882589E+03  0.00000000000E+00 0.  1.
         -2    1    1    2    0  502  0.20501230661E+02 -0.89513779865E+01  0.40011011032E+02  0.45840033052E+02  0.00000000000E+00 0.  1.
</event>
<event>
 4    1  0.5465458E+003  0.2013322E+02  0.7546771E-02  0.1532009E+00
          2   -1    0    0  501    0  0.00000000000E+00  0.00000000000E+00  0.30362873439E+03  0.30362873439E+03  0.00000000000E+00 0.  1.
         -2   -1    0    0    0  501 -0.00000000000E+00 -0.00000000000E+00 -0.62352547176E+01  0.62352547176E+01  0.00000000000E+00 0.  1.
          2    1    1    2  502    0 -0.69790257762E+00 -0.20121121728E+02  0.28604495237E+03  0.28675261356E+03  0.00000000000E+00 0.  1.
         -2    1    1    2    0  502  0.69790257762E+00  0.20121121728E+02  0.11348527297E+02  0.23111375541E+02  0.00000000000E+00 0.  1.
</event>
<event>
 4    1  0.5465458E+003  0.2057672E+02  0.7546771E-02  0.1525395E+00
          2   -1    0    0  501    0  0.00000000000E+00  0.00000000000E+00  0.92683110521E+03  0.92683110521E+03  0.00000000000E+00 0.  1.
         -2   -1    0    0    0  501 -0.00000000000E+00 -0.00000000000E+00 -0.32339315715E+01  0.32339315715E+01  0.00000000000E+00 0.  1.
          2    1    1    2  502    0  0.17881454833E+02 -0.10181111445E+02  0.89273582883E+03  0.89297293438E+03  0.00000000000E+00 0.  1.
         -2    1    1    2    0  502 -0.17881454833E+02  0.10181111445E+02  0.30861344806E+02  0.37092102400E+02  0.00000000000E+00 0.  1.
</event>
<event>
 4    1  0.5465458E+003  0.2338215E+02  0.7546771E-02  0.1487754E+00
          2   -1    0    0  501    0  0.00000000000E+00  0.00000000000E+00  0.19579606177E+04  0.19579606177E+04  0.00000000000E+00 0. -1.
         -2   -1    0    0    0  501 -0.00000000000E+00 -0.00000000000E+00 -0.31172727702E+00  0.31172727702E+00  0.00000000000E+00 0.  1.
          2    1    1    2  502    0 -0.19847561135E+02 -0.12361193947E+02  0.12949556637E+04  0.12951667444E+04  0.00000000000E+00 0. -1.
         -2    1    1    2    0  502  0.19847561135E+02  0.12361193947E+02  0.66269322671E+03  0.66310560058E+03  0.00000000000E+00 0.  1.
</event>
<event>
 4    1  0.5465458E+003  0.3307449E+02  0.7546771E-02  0.1394630E+00
          2   -1    0    0  501    0  0.00000000000E+00  0.00000000000E+00  0.66831578305E+03  0.66831578305E+03  0.00000000000E+00 0. -1.
         -2   -1    0    0    0  501 -0.00000000000E+00 -0.00000000000E+00 -0.43620663677E+01  0.43620663677E+01  0.00000000000E+00 0. -1.
          2    1    1    2  502    0  0.32616355553E+02 -0.54859305064E+01  0.59782446557E+03  0.59873868567E+03  0.00000000000E+00 0. -1.
         -2    1    1    2    0  502 -0.32616355553E+02  0.54859305064E+01  0.66129251112E+02  0.73939163748E+02  0.00000000000E+00 0. -1.
</event>
<event>
 4    1  0.5465458E+003  0.3345088E+02  0.7546771E-02  0.1391794E+00
          2   -1    0    0  501    0  0.00000000000E+00  0.00000000000E+00  0.29850900232E+02  0.29850900232E+02  0.00000000000E+00 0.  1.
         -2   -1    0    0    0  501 -0.00000000000E+00 -0.00000000000E+00 -0.91863154155E+02  0.91863154155E+02  0.00000000000E+00 0. -1.
          2    1    1    2  502    0 -0.25721555183E+02  0.21386044382E+02  0.15816119622E+02  0.37001499095E+02  0.00000000000E+00 0.  1.
         -2    1    1    2    0  502  0.25721555183E+02 -0.21386044382E+02 -0.77828373545E+02  0.84712555292E+02  0.00000000000E+00 0. -1.
</event>
<event>
 4    1  0.5465458E+003  0.5074577E+02  0.7546771E-02  0.1294971E+00
          2   -1    0    0  501    0  0.00000000000E+00  0.00000000000E+00  0.43684438220E+02  0.43684438220E+02  0.00000000000E+00 0.  1.
         -2   -1    0    0    0  501 -0.00000000000E+00 -0.00000000000E+00 -0.11991258604E+03  0.11991258604E+03  0.00000000000E+00 0. -1.
          2    1    1    2  502    0 -0.50042999357E+02  0.84161227420E+01  0.20210286912E+02  0.54622235433E+02  0.00000000000E+00 0.  1.
         -2    1    1    2    0  502  0.50042999357E+02 -0.84161227420E+01 -0.96438434730E+02  0.10897478883E+03  0.00000000000E+00 0. -1.
</event>
<event>
 4    1  0.5465458E+003  0.4567621E+02  0.7546771E-02  0.1318092E+00
          2   -1    0    0  501    0  0.00000000000E+00  0.00000000000E+00  0.81843045276E+03  0.81843045276E+03  0.00000000000E+00 0. -1.
         -2   -1    0    0    0  501 -0.00000000000E+00 -0.00000000000E+00 -0.14894421459E+02  0.14894421459E+02  0.00000000000E+00 0. -1.
          2    1    1    2  502    0  0.35755254000E+02  0.28423187511E+02  0.78110270177E+03  0.78243705593E+03  0.00000000000E+00 0. -1.
         -2    1    1    2    0  502 -0.35755254000E+02 -0.28423187511E+02  0.22433329537E+02  0.50887818296E+02  0.00000000000E+00 0. -1.
</event>
<event>
 4    1  0.5465458E+003  0.2409132E+02  0.7546771E-02  0.1479231E+00
          2   -1    0    0  501    0  0.00000000000E+00  0.00000000000E+00  0.80765947691E+03  0.80765947691E+03  0.00000000000E+00 0.  1.
         -2   -1    0    0    0  501 -0.00000000000E+00 -0.00000000000E+00 -0.75977027933E+00  0.75977027933E+00  0.00000000000E+00 0.  1.
          2    1    1    2  502    0 -0.21007203753E+02 -0.11793612871E+02  0.49753181647E+03  0.49811474613E+03  0.00000000000E+00 0.  1.
         -2    1    1    2    0  502  0.21007203753E+02  0.11793612871E+02  0.30936789016E+03  0.31030450106E+03  0.00000000000E+00 0.  1.
</event>
<event>
 4    1  0.5465458E+003  0.2212569E+02  0.7546771E-02  0.1503779E+00
          2   -1    0    0  501    0  0.00000000000E+00  0.00000000000E+00  0.62245778618E+03  0.62245778618E+03  0.00000000000E+00 0. -1.
         -2   -1    0    0    0  501 -0.00000000000E+00 -0.00000000000E+00 -0.43199403069E+02  0.43199403069E+02  0.00000000000E+00 0.  1.
          2    1    1    2  502    0  0.13828840536E+02 -0.17271639082E+02  0.61941418961E+03  0.61980923246E+03  0.00000000000E+00 0. -1.
         -2    1    1    2    0  502 -0.13828840536E+02  0.17271639082E+02 -0.40155806495E+02  0.45847956797E+02  0.00000000000E+00 0.  1.
</event>
<event>
 4    1  0.5465458E+003  0.5395015E+02  0.7546771E-02  0.1281898E+00
          2   -1    0    0  501    0  0.00000000000E+00  0.00000000000E+00  0.55347673362E+03  0.55347673362E+03  0.00000000000E+00 0. -1.
         -2   -1    0    0    0  501 -0.00000000000E+00 -0.00000000000E+00 -0.62742868084E+01  0.62742868084E+01  0.00000000000E+00 0.  1.
          2    1    1    2  502    0 -0.51588306141E+02 -0.15788053761E+02  0.16100527960E+03  0.16980375741E+03  0.00000000000E+00 0.  1.
         -2    1    1    2    0  502  0.51588306141E+02  0.15788053761E+02  0.38619716720E+03  0.38994726301E+03  0.00000000000E+00 0. -1.
</event>
<event>
 4    1  0.5465458E+003  0.2238623E+02  0.7546771E-02  0.1500353E+00
          2   -1    0    0  501    0  0.00000000000E+00  0.00000000000E+00  0.74142853700E+01  0.74142853700E+01  0.00000000000E+00 0. -1.
         -2   -1    0    0    0  501 -0.00000000000E+00 -0.00000000000E+00 -0.77825699815E+02  0.77825699815E+02  0.00000000000E+00 0.  1.
          2    1    1    2  502    0  0.85968425319E+01  0.20669722267E+02 -0.19750404738E+02  0.29853334947E+02  0.00000000000E+00 0. -1.
         -2    1    1    2    0  502 -0.85968425319E+01 -0.20669722267E+02 -0.50661009706E+02  0.55386650238E+02  0.00000000000E+00 0.  1.
</event>
<event>
 4    1  0.5465458E+003  0.2471744E+02  0.7546771E-02  0.1471989E+00
          2   -1    0    0  501    0  0.00000000000E+00  0.00000000000E+00  0.52427393832E+03  0.52427393832E+03  0.00000000000E+00 0. -1.
         -2   -1    0    0    0  501 -0.00000000000E+00 -0.00000000000E+00 -0.22849792110E+03  0.22849792110E+03  0.00000000000E+00 0.  1.
          2    1    1    2  502    0 -0.19266304588E+02 -0.15484222165E+02  0.52331293592E+03  0.52389634522E+03  0.00000000000E+00 0. -1.
         -2    1    1    2    0  502  0.19266304588E+02  0.15484222165E+02 -0.22753691870E+03  0.22887551420E+03  0.00000000000E+00 0.  1.
</event>
<event>
 4    1  0.5465458E+003  0.2428052E+02  0.7546771E-02  0.1477015E+00
          2   -1    0    0  501    0  0.00000000000E+00  0.00000000000E+00  0.23366834898E+02  0.23366834898E+02  0.00000000000E+00 0. -1.
         -2   -1    0    0    0  501 -0.00000000000E+00 -0.00000000000E+00 -0.28866619467E+02  0.28866619467E+02  0.00000000000E+00 0. -1.
          2    1    1    2  502    0  0.10856007741E+02 -0.21718446892E+02  0.65199705660E+01  0.25140681289E+02  0.00000000000E+00 0. -1.
         -2    1    1    2    0  502 -0.10856007741E+02  0.21718446892E+02 -0.12019755134E+02  0.27092773076E+02  0.00000000000E+00 0. -1.
</event>
<event>
 4    1  0.5465458E+003  0.2277466E+02  0.7546771E-02  0.1495347E+00
          2   -1    0    0  501    0  0.00000000000E+00  0.00000000000E+00  0.33589752040E+02  0.33589752040E+02  0.00000000000E+00 0.  1.
         -2   -1    0    0    0  501 -0.00000000000E+00 -0.00000000000E+00 -0.13312577812E+03  0.13312577812E+03  0.00000000000E+00 0.  1.
          2    1    1    2  502    0 -0.18805343721E+02 -0.12846952775E+02  0.28606293726E+02  0.36565081550E+02  0.00000000000E+00 0.  1.
         -2    1    1    2    0  502  0.18805343721E+02  0.12846952775E+02 -0.12814231981E+03  0.13015044861E+03  0.00000000000E+00 0.  1.
</event>
<event>
 4    1  0.5465458E+003  0.2160843E+02  0.7546771E-02  0.1510753E+00
          2   -1    0    0  501    0  0.00000000000E+00  0.00000000000E+00  0.18832062425E+03  0.18832062425E+03  0.00000000000E+00 0.  1.
         -2   -1    0    0    0  501 -0.00000000000E+00 -0.00000000000E+00 -0.59538052828E+02  0.59538052828E+02  0.00000000000E+00 0.  1.
          2    1    1    2  502    0 -0.22162628906E+01 -0.21494475000E+02  0.18571271891E+03  0.18696560711E+03  0.00000000000E+00 0.  1.
         -2    1    1    2    0  502  0.22162628906E+01  0.21494475000E+02 -0.56930147490E+02  0.60893069966E+02  0.00000000000E+00 0.  1.
</event>
<event>
 4    1  0.5465458E+003  0.2702970E+02  0.7546771E-02  0.1447310E+00
          2   -1    0    0  501    0  0.00000000000E+00  0.00000000000E+00  0.24461969505E+03  0.24461969505E+03  0.00000000000E+00 0. -1.
         -2   -1    0    0    0  501 -0.00000000000E+00 -0.00000000000E+00 -0.40727180920E+01  0.40727180920E+01  0.00000000000E+00 0.  1.
          2    1    1    2  502    0 -0.95418533021E+00  0.27012849659E+02  0.18448454519E+03  0.18645415504E+03  0.00000000000E+00 0. -1.
         -2    1    1    2    0  502  0.95418533021E+00 -0.27012849659E+02  0.56062431772E+02  0.62238258110E+02  0.00000000000E+00 0.  1.
</event>
<event>
 4    1  0.5465458E+003  0.2047503E+02  0.7546771E-02  0.1526894E+00
          2   -1    0    0  501    0  0.00000000000E+00  0.00000000000E+00  0.51346565772E+03  0.51346565772E+03  0.00000000000E+00 0. -1.
         -2   -1    0    0    0  501 -0.00000000000E+00 -0.00000000000E+00 -0.63861848313E+01  0.63861848313E+01  0.00000000000E+00 0. -1.
          2    1    1    2  502    0 -0.18421588108E+02  0.89371013399E+01  0.49628207336E+03  0.49670426114E+03  0.00000000000E+00 0. -1.
         -2    1    1    2    0  502  0.18421588108E+02 -0.89371013399E+01  0.10797399522E+02  0.23147581412E+02  0.00000000000E+00 0. -1.
</event>
<event>
 4    1  0.5465458E+003  0.3152267E+02  0.7546771E-02  0.1406810E+00
          2   -1    0    0  501    0  0.00000000000E+00  0.00000000000E+00  0.71892644654E+03  0.71892644654E+03  0.00000000000E+00 0. -1.
         -2   -1    0    0    0  501 -0.00000000000E+00 -0.00000000000E+00 -0.79968008801E+01  0.79968008801E+01  0.00000000000E+00 0.  1.
          2    1    1    2  502    0 -0.26228345677E+02 -0.17485785085E+02  0.68602704380E+03  0.68675088906E+03  0.00000000000E+00 0. -1.
         -2    1    1    2    0  502  0.26228345677E+02  0.17485785085E+02  0.24902601860E+02  0.40172358362E+02  0.00000000000E+00 0.  1.
</event>
<event>
 4    1  0.5465458E+003  0.1375859E+03  0.7546771E-02  0.1111069E+00
          2   -1    0    0  501    0  0.00000000000E+00  0.00000000000E+00  0.21338157717E+04  0.21338157717E+04  0.00000000000E+00 0. -1.
         -2   -1    0    0    0  501 -0.00000000000E+00 -0.00000000000E+00 -0.10347429132E+03  0.10347429132E+03  0.00000000000E+00 0.  1.
          2    1    1    2  502    0  0.13717875355E+03  0.10576327161E+02  0.20847878506E+04  0.20893229169E+04  0.00000000000E+00 0. -1.
         -2    1    1    2    0  502 -0.13717875355E+03 -0.10576327161E+02 -0.54446370159E+02  0.14796714617E+03  0.00000000000E+00 0.  1.
</event>
<event>
 4    1  0.5465458E+003  0.2117925E+02  0.7546771E-02  0.1516721E+00
          2   -1    0    0  501    0  0.00000000000E+00  0.00000000000E+00  0.97806995347E+03  0.97806995347E+03  0.00000000000E+00 0. -1.
         -2   -1    0    0    0  501 -0.00000000000E+00 -0.00000000000E+00 -0.47929974337E+00  0.47929974337E+00  0.00000000000E+00 0.  1.
          2    1    1    2  502    0 -0.10126485867E+02 -0.18601471080E+02  0.59043029045E+03  0.59081002728E+03  0.00000000000E+00 0. -1.
         -2    1    1    2    0  502  0.10126485867E+02  0.18601471080E+02  0.38716036327E+03  0.38773922594E+03  0.00000000000E+00 0.  1.
</event>
<event>
 4    1  0.5465458E+003  0.2394616E+02  0.7546771E-02  0.1480947E+00
          2   -1    0    0  501    0  0.00000000000E+00  0.00000000000E+00  0.13875913735E+03  0.13875913735E+03  0.00000000000E+00 0.  1.
         -2   -1    0    0    0  501 -0.00000000000E+00 -0.00000000000E+00 -0.72040034256E+02  0.72040034256E+02  0.00000000000E+00 0.  1.
          2    1    1    2  502    0  0.18133058602E+02 -0.15640031590E+02  0.13569144632E+03  0.13778819618E+03  0.00000000000E+00 0.  1.
         -2    1    1    2    0  502 -0.18133058602E+02  0.15640031590E+02 -0.68972343226E+02  0.73010975425E+02  0.00000000000E+00 0.  1.
</event>
<event>
 4    1  0.5465458E+003  0.3005932E+02  0.7546771E-02  0.1419082E+00
          2   -1    0    0  501    0  0.00000000000E+00  0.00000000000E+00  0.30320836259E+03  0.30320836259E+03  0.00000000000E+00 0. -1.
         -2   -1    0    0    0  501 -0.00000000000E+00 -0.00000000000E+00 -0.20923152297E+02  0.20923152297E+02  0.00000000000E+00 0. -1.
          2    1    1    2  502    0  0.25374729898E+02 -0.16114767397E+02  0.29122405205E+03  0.29277126078E+03  0.00000000000E+00 0. -1.
         -2    1    1    2    0  502 -0.25374729898E+02  0.16114767397E+02 -0.89388417585E+01  0.31360254107E+02  0.00000000000E+00 0. -1.
</event>
<event>
 4    1  0.5465458E+003  0.2131310E+02  0.7546771E-02  0.1514841E+00
          2   -1    0    0  501    0  0.00000000000E+00  0.00000000000E+00  0.88065362220E+01  0.88065362220E+01  0.00000000000E+00 0. -1.
         -2   -1    0    0    0  501 -0.00000000000E+00 -0.00000000000E+00 -0.55130481824E+03  0.55130481824E+03  0.00000000000E+00 0.  1.
          2    1    1    2  502    0  0.11494000779E+02 -0.17948156323E+02 -0.46163310881E+01  0.21807312581E+02  0.00000000000E+00 0. -1.
         -2    1    1    2    0  502 -0.11494000779E+02  0.17948156323E+02 -0.53788195093E+03  0.53830404188E+03  0.00000000000E+00 0.  1.
</event>
<event>
 4    1  0.5465458E+003  0.2149500E+02  0.7546771E-02  0.1512314E+00
          2   -1    0    0  501    0  0.00000000000E+00  0.00000000000E+00  0.26924469517E+03  0.26924469517E+03  0.00000000000E+00 0. -1.
         -2   -1    0    0    0  501 -0.00000000000E+00 -0.00000000000E+00 -0.12684172153E+02  0.12684172153E+02  0.00000000000E+00 0.  1.
          2    1    1    2  502    0 -0.49559946621E+01 -0.20915859156E+02  0.25936278584E+03  0.26025197353E+03  0.00000000000E+00 0. -1.
         -2    1    1    2    0  502  0.49559946621E+01  0.20915859156E+02 -0.28022628286E+01  0.21676893788E+02  0.00000000000E+00 0.  1.
</event>
<event>
 4    1  0.5465458E+003  0.2377129E+02  0.7546771E-02  0.1483034E+00
          2   -1    0    0  501    0  0.00000000000E+00  0.00000000000E+00  0.19983574314E+02  0.19983574314E+02  0.00000000000E+00 0. -1.
         -2   -1    0    0    0  501 -0.00000000000E+00 -0.00000000000E+00 -0.28364119295E+02  0.28364119295E+02  0.00000000000E+00 0.  1.
          2    1    1    2  502    0  0.10882207622E+02 -0.21134143414E+02 -0.28501276229E+01  0.23941547319E+02  0.00000000000E+00 0. -1.
         -2    1    1    2    0  502 -0.10882207622E+02  0.21134143414E+02 -0.55304173581E+01  0.24406146290E+02  0.00000000000E+00 0.  1.
</event>
<event>
 4    1  0.5465458E+003  0.7400344E+02  0.7546771E-02  0.1218498E+00
          2   -1    0    0  501    0  0.00000000000E+00  0.00000000000E+00  0.75666919545E+02  0.75666919545E+02  0.00000000000E+00 0.  1.
         -2   -1    0    0    0  501 -0.00000000000E+00 -0.00000000000E+00 -0.12525956891E+04  0.12525956891E+04  0.00000000000E+00 0. -1.
          2    1    1    2  502    0 -0.16879036173E+02  0.72052806050E+02  0.56194282843E+02  0.92920967204E+02  0.00000000000E+00 0.  1.
         -2    1    1    2    0  502  0.16879036173E+02 -0.72052806050E+02 -0.12331230524E+04  0.12353416414E+04  0.00000000000E+00 0. -1.
</event>
<event>
 4    1  0.5465458E+003  0.8222563E+02  0.7546771E-02  0.1198773E+00
          2   -1    0    0  501    0  0.00000000000E+00  0.00000000000E+00  0.30696619104E+02  0.30696619104E+02  0.00000000000E+00 0.  1.
         -2   -1    0    0    0  501 -0.00000000000E+00 -0.00000000000E+00 -0.12601028480E+04  0.12601028480E+04  0.00000000000E+00 0. -1.
          2    1    1    2  502    0  0.18834968851E+02  0.80039357960E+02 -0.28415282243E+02  0.86997029485E+02  0.00000000000E+00 0.  1.
         -2    1    1    2    0  502 -0.18834968851E+02 -0.80039357960E+02 -0.12009909467E+04  0.12038024377E+04  0.00000000000E+00 0. -1.
</event>
<event>
 4    1  0.5465458E+003  0.2224704E+02  0.7546771E-02  0.1502176E+00
          2   -1    0    0  501    0  0.00000000000E+00  0.00000000000E+00  0.46033405646E+01  0.46033405646E+01  0.00000000000E+00 0.  1.
         -2   -1    0    0    0  501 -0.00000000000E+00 -0.00000000000E+00 -0.16925935451E+03  0.16925935451E+03  0.00000000000E+00 0.  1.
          2    1    1    2  502    0  0.35515134379E+01 -0.21961725470E+02 -0.29823472763E+02  0.37207125136E+02  0.00000000000E+00 0.  1.
         -2    1    1    2    0  502 -0.35515134379E+01  0.21961725470E+02 -0.13483254118E+03  0.13665556994E+03  0.00000000000E+00 0.  1.
</event>
<event>
 4    1  0.5465458E+003  0.2068207E+02  0.7546771E-02  0.1523853E+00
          2   -1    0    0  501    0  0.00000000000E+00  0.00000000000E+00  0.36038627459E+03  0.36038627459E+03  0.00000000000E+00 0. -1.
         -2   -1    0    0    0  501 -0.00000000000E+00 -0.00000000000E+00 -0.11900453305E+01  0.11900453305E+01  0.00000000000E+00 0. -1.
          2    1    1    2  502    0 -0.79030502656E+01 -0.19112540785E+02  0.17032402806E+03  0.17157512043E+03  0.00000000000E+00 0. -1.
         -2    1    1    2    0  502  0.79030502656E+01  0.19112540785E+02  0.18887220121E+03  0.19000119949E+03  0.00000000000E+00 0. -1.
</event>
<event>
 4    1  0.5465458E+003  0.2901974E+02  0.7546771E-02  0.1428310E+00
          2   -1    0    0  501    0  0.00000000000E+00  0.00000000000E+00  0.68293537312E+03  0.68293537312E+03  0.00000000000E+00 0. -1.
         -2   -1    0    0    0  501 -0.00000000000E+00 -0.00000000000E+00 -0.17457429026E+03  0.17457429026E+03  0.00000000000E+00 0. -1.
          2    1    1    2  502    0  0.19121264865E+02  0.21829392899E+02  0.68141840987E+03  0.68203606538E+03  0.00000000000E+00 0. -1.
         -2    1    1    2    0  502 -0.19121264865E+02 -0.21829392899E+02 -0.17305732701E+03  0.17547359800E+03  0.00000000000E+00 0. -1.
</event>
<event>
 4    1  0.5465458E+003  0.2825942E+02  0.7546771E-02  0.1435351E+00
          2   -1    0    0  501    0  0.00000000000E+00  0.00000000000E+00  0.19230254589E+03  0.19230254589E+03  0.00000000000E+00 0. -1.
         -2   -1    0    0    0  501 -0.00000000000E+00 -0.00000000000E+00 -0.25198209382E+02  0.25198209382E+02  0.00000000000E+00 0.  1.
          2    1    1    2  502    0  0.26785285656E+02  0.90079646848E+01  0.18293802184E+03  0.18510784637E+03  0.00000000000E+00 0. -1.
         -2    1    1    2    0  502 -0.26785285656E+02 -0.90079646848E+01 -0.15833685332E+02  0.32392908895E+02  0.00000000000E+00 0.  1.
</event>
<event>
 4    1  0.5465458E+003  0.3402273E+02  0.7546771E-02  0.1387567E+00
          2   -1    0    0  501    0  0.00000000000E+00  0.00000000000E+00  0.13484374076E+04  0.13484374076E+04  0.00000000000E+00 0.  1.
         -2   -1    0    0    0  501 -0.00000000000E+00 -0.00000000000E+00 -0.86254105340E+00  0.86254105340E+00  0.00000000000E+00 0.  1.
          2    1    1    2  502    0  0.34022457208E+02 -0.13537080503E+00  0.72033519562E+03  0.72113822529E+03  0.00000000000E+00 0.  1.
         -2    1    1    2    0  502 -0.34022457208E+02  0.13537080503E+00  0.62723967088E+03  0.62816172332E+03  0.00000000000E+00 0.  1.
</event>
<event>
 4    1  0.5465458E+003  0.2211544E+02  0.7546771E-02  0.1503915E+00
          2   -1    0    0  501    0  0.00000000000E+00  0.00000000000E+00  0.14022512561E+03  0.14022512561E+03  0.00000000000E+00 0. -1.
         -2   -1    0    0    0  501 -0.00000000000E+00 -0.00000000000E+00 -0.19148722912E+02  0.19148722912E+02  0.00000000000E+00 0. -1.
          2    1    1    2  502    0  0.21589213482E+02 -0.47957023425E+01  0.13260318290E+03  0.13443473143E+03  0.00000000000E+00 0. -1.
         -2    1    1    2    0  502 -0.21589213482E+02  0.47957023425E+01 -0.11526780198E+02  0.24939117094E+02  0.00000000000E+00 0. -1.
</event>
<event>
 4    1  0.5465458E+003  0.2019586E+02  0.7546771E-02  0.1531062E+00
          2   -1    0    0  501    0  0.00000000000E+00  0.00000000000E+00  0.22469422722E+03  0.22469422722E+03  0.00000000000E+00 0.  1.
         -2   -1    0    0    0  501 -0.00000000000E+00 -0.00000000000E+00 -0.77410642236E+02  0.77410642236E+02  0.00000000000E+00 0.  1.
          2    1    1    2  502    0 -0.16608622184E+02 -0.11490271400E+02  0.22291267554E+03  0.22382567678E+03  0.00000000000E+00 0.  1.
         -2    1    1    2    0  502  0.16608622184E+02  0.11490271400E+02 -0.75629090558E+02  0.78279192678E+02  0.00000000000E+00 0.  1.
</event>
<event>
 4    1  0.5465458E+003  0.2228302E+02  0.7546771E-02  0.1501703E+00
          2   -1    0    0  501    0  0.00000000000E+00  0.00000000000E+00  0.27633220276E+02  0.27633220276E+02  0.00000000000E+00 0.  1.
         -2   -1    0    0    0  501 -0.00000000000E+00 -0.00000000000E+00 -0.26395119843E+02  0.26395119843E+02  0.00000000000E+00 0.  1.
          2    1    1    2  502    0 -0.14817964453E+02  0.16642139831E+02  0.15882457864E+02  0.27363942634E+02  0.00000000000E+00 0.  1.
         -2    1    1    2    0  502  0.14817964453E+02 -0.16642139831E+02 -0.14644357431E+02  0.26664397485E+02  0.00000000000E+00 0.  1.
</event>
<event>
 4    1  0.5465458E+003  0.2112724E+02  0.7546771E-02  0.1517456E+00
          2   -1    0    0  501    0  0.00000000000E+00  0.00000000000E+00  0.70717818606E+01  0.70717818606E+01  0.00000000000E+00 0. -1.
         -2   -1    0    0    0  501 -0.00000000000E+00 -0.00000000000E+00 -0.10453363997E+03  0.10453363997E+03  0.00000000000E+00 0.  1.
          2    1    1    2  502    0 -0.13093886948E+02  0.16580421491E+02 -0.13606697140E+02  0.25129712678E+02  0.00000000000E+00 0. -1.
         -2    1    1    2    0  502  0.13093886948E+02 -0.16580421491E+02 -0.83855160969E+02  0.86475709152E+02  0.00000000000E+00 0.  1.
</event>
<event>
 4    1  0.5465458E+003  0.2692704E+02  0.7546771E-02  0.1448342E+00
          2   -1    0    0  501    0  0.00000000000E+00  0.00000000000E+00  0.78964635950E+03  0.78964635950E+03  0.00000000000E+00 0. -1.
         -2   -1    0    0    0  501 -0.00000000000E+00 -0.00000000000E+00 -0.25606649280E+01  0.25606649280E+01  0.00000000000E+00 0.  1.
          2    1    1    2  502    0  0.72595363958E+01  0.25929989884E+02  0.71077585376E+03  0.71128572285E+03  0.00000000000E+00 0. -1.
         -2    1    1    2    0  502 -0.72595363958E+01 -0.25929989884E+02  0.76309840813E+02  0.80921301577E+02  0.00000000000E+00 0.  1.
</event>
<event>
 4    1  0.5465458E+003  0.3021306E+02  0.7546771E-02  0.1417754E+00
          2   -1    0    0  501    0  0.00000000000E+00  0.00000000000E+00  0.22895195131E+04  0.22895195131E+04  0.00000000000E+00 0.  1.
         -2   -1    0    0    0  501 -0.00000000000E+00 -0.00000000000E+00 -0.55509438436E+00  0.55509438436E+00  0.00000000000E+00 0. -1.
          2    1    1    2  502    0  0.17354923192E+02 -0.24731262986E+02  0.17522650503E+04  0.17525255020E+04  0.00000000000E+00 0.  1.
         -2    1    1    2    0  502 -0.17354923192E+02  0.24731262986E+02  0.53669936851E+03  0.53754910556E+03  0.00000000000E+00 0. -1.
</event>
<event>
 4    1  0.5743808E+003  0.2095027E+02  0.7546771E-02  0.1519976E+00
          2   -1    0    0  501    0  0.00000000000E+00  0.00000000000E+00  0.99742858717E+03  0.99742858717E+03  0.00000000000E+00 0. -1.
         -2   -1    0    0    0  501 -0.00000000000E+00 -0.00000000000E+00 -0.50510960238E+03  0.50510960238E+03  0.00000000000E+00 0.  1.
          2    1    1    2  502    0 -0.18427328294E+02 -0.99673191650E+01  0.99710126756E+03  0.99732133821E+03  0.00000000000E+00 0. -1.
         -2    1    1    2    0  502  0.18427328294E+02  0.99673191650E+01 -0.50478228277E+03  0.50521685134E+03  0.00000000000E+00 0.  1.
</event>
<event>
 4    1  0.5465458E+003  0.2896753E+02  0.7546771E-02  0.1428786E+00
          2   -1    0    0  501    0  0.00000000000E+00  0.00000000000E+00  0.20775759497E+04  0.20775759497E+04  0.00000000000E+00 0. -1.
         -2   -1    0    0    0  501 -0.00000000000E+00 -0.00000000000E+00 -0.23373680632E+01  0.23373680632E+01  0.00000000000E+00 0. -1.
          2    1    1    2  502    0  0.11297279313E+02 -0.26673754486E+02  0.19834665546E+04  0.19836780714E+04  0.00000000000E+00 0. -1.
         -2    1    1    2    0  502 -0.11297279313E+02  0.26673754486E+02  0.91772027067E+02  0.96235246403E+02  0.00000000000E+00 0. -1.
</event>
<event>
 4    1  0.5465458E+003  0.2312343E+02  0.7546771E-02  0.1490954E+00
          2   -1    0    0  501    0  0.00000000000E+00  0.00000000000E+00  0.18584647607E+04  0.18584647607E+04  0.00000000000E+00 0.  1.
         -2   -1    0    0    0  501 -0.00000000000E+00 -0.00000000000E+00 -0.54944234192E+00  0.54944234192E+00  0.00000000000E+00 0. -1.
          2    1    1    2  502    0  0.10312234523E+02  0.20696634926E+02  0.15704966137E+04  0.15706668349E+04  0.00000000000E+00 0.  1.
         -2    1    1    2    0  502 -0.10312234523E+02 -0.20696634926E+02  0.28741870466E+03  0.28834736806E+03  0.00000000000E+00 0. -1.
</event>
<event>
 4    1  0.5465458E+003  0.3549996E+02  0.7546771E-02  0.1377082E+00
          2   -1    0    0  501    0  0.00000000000E+00  0.00000000000E+00  0.30993287618E+03  0.30993287618E+03  0.00000000000E+00 0. -1.
         -2   -1    0    0    0  501 -0.00000000000E+00 -0.00000000000E+00 -0.11983451347E+02  0.11983451347E+02  0.00000000000E+00 0.  1.
          2    1    1    2  502    0  0.35193370560E+02 -0.46554931735E+01  0.27980534874E+03  0.28204836488E+03  0.00000000000E+00 0. -1.
         -2    1    1    2    0  502 -0.35193370560E+02  0.46554931735E+01  0.18144076085E+02  0.39867962640E+02  0.00000000000E+00 0.  1.
</event>
<event>
 4    1  0.5465458E+003  0.2419547E+02  0.7546771E-02  0.1478008E+00
          2   -1    0    0  501    0  0.00000000000E+00  0.00000000000E+00  0.14009184862E+04  0.14009184862E+04  0.00000000000E+00 0.  1.
         -2   -1    0    0    0  501 -0.00000000000E+00 -0.00000000000E+00 -0.23853211007E+01  0.23853211007E+01  0.00000000000E+00 0. -1.
          2    1    1    2  502    0  0.23048470208E+02 -0.73612985764E+01  0.13365003310E+04  0.13367193256E+04  0.00000000000E+00 0.  1.
         -2    1    1    2    0  502 -0.23048470208E+02  0.73612985764E+01  0.62032834099E+02  0.66584481690E+02  0.00000000000E+00 0. -1.
</event>
<event>
 4    1  0.5465458E+003  0.2111763E+02  0.7546771E-02  0.1517592E+00
          2   -1    0    0  501    0  0.00000000000E+00  0.00000000000E+00  0.34851121643E+03  0.34851121643E+03  0.00000000000E+00 0. -1.
         -2   -1    0    0    0  501 -0.00000000000E+00 -0.00000000000E+00 -0.43045682288E+01  0.43045682288E+01  0.00000000000E+00 0.  1.
          2    1    1    2  502    0 -0.79027393223E+00 -0.21102835348E+02  0.31998480076E+03  0.32068088018E+03  0.00000000000E+00 0. -1.
         -2    1    1    2    0  502  0.79027393223E+00  0.21102835348E+02  0.24221847436E+02  0.32134904478E+02  0.00000000000E+00 0.  1.
</event>
<event>
 4    1  0.5465458E+003  0.2041192E+02  0.7546771E-02  0.1527829E+00
          2   -1    0    0  501    0  0.00000000000E+00  0.00000000000E+00  0.10603815295E+04  0.10603815295E+04  0.00000000000E+00 0.  1.
         -2   -1    0    0    0  501 -0.00000000000E+00 -0.00000000000E+00 -0.67458934145E+01  0.67458934145E+01  0.00000000000E+00 0.  1.
          2    1    1    2  502    0  0.17988045393E+02 -0.96476276984E+01  0.10446094430E+04  0.10448088509E+04  0.00000000000E+00 0.  1.
         -2    1    1    2    0  502 -0.17988045393E+02  0.96476276984E+01  0.90261931521E+01  0.22318572089E+02  0.00000000000E+00 0.  1.
</event>
<event>
 4    1  0.5465458E+003  0.3414973E+02  0.7546771E-02  0.1386641E+00
          2   -1    0    0  501    0  0.00000000000E+00  0.00000000000E+00  0.14004202184E+02  0.14004202184E+02  0.00000000000E+00 0.  1.
         -2   -1    0    0    0  501 -0.00000000000E+00 -0.00000000000E+00 -0.20723870237E+03  0.20723870237E+03  0.00000000000E+00 0.  1.
          2    1    1    2  502    0 -0.35708129095E+01 -0.33962525850E+02 -0.11061204876E+02  0.35896436038E+02  0.00000000000E+00 0.  1.
         -2    1    1    2    0  502  0.35708129095E+01  0.33962525850E+02 -0.18217329531E+03  0.18534646852E+03  0.00000000000E+00 0.  1.
</event>
<event>
 4    1  0.5465458E+003  0.2624542E+02  0.7546771E-02  0.1455339E+00
          2   -1    0    0  501    0  0.00000000000E+00  0.00000000000E+00  0.65289339301E+03  0.65289339301E+03  0.00000000000E+00 0.  1.
         -2   -1    0    0    0  501 -0.00000000000E+00 -0.00000000000E+00 -0.13154400770E+01  0.13154400770E+01  0.00000000000E+00 0. -1.
          2    1    1    2  502    0  0.22573315505E+02 -0.13389078790E+02  0.47132815198E+03  0.47205831086E+03  0.00000000000E+00 0.  1.
         -2    1    1    2    0  502 -0.22573315505E+02  0.13389078790E+02  0.18024980095E+03  0.18215052222E+03  0.00000000000E+00 0. -1.
</event>
<event>
 4    1  0.5465458E+003  0.2834899E+02  0.7546771E-02  0.1434508E+00
          2   -1    0    0  501    0  0.00000000000E+00  0.00000000000E+00  0.51783567541E+03  0.51783567541E+03  0.00000000000E+00 0.  1.
         -2   -1    0    0    0  501 -0.00000000000E+00 -0.00000000000E+00 -0.64306991657E+01  0.64306991657E+01  0.00000000000E+00 0.  1.
          2    1    1    2  502    0  0.25071021503E+01  0.28237914954E+02  0.48402370424E+03  0.48485318568E+03  0.00000000000E+00 0.  1.
         -2    1    1    2    0  502 -0.25071021503E+01 -0.28237914954E+02  0.27381272012E+02  0.39413188898E+02  0.00000000000E+00 0.  1.
</event>
<event>
 4    1  0.5465458E+003  0.2814233E+02  0.7546771E-02  0.1436459E+00
          2   -1    0    0  501    0  0.00000000000E+00  0.00000000000E+00  0.32040340958E+02  0.32040340958E+02  0.00000000000E+00 0.  1.
         -2   -1    0    0    0  501 -0.00000000000E+00 -0.00000000000E+00 -0.79208061216E+02  0.79208061216E+02  0.00000000000E+00 0.  1.
          2    1    1    2  502    0  0.43899198947E+01 -0.27797827713E+02  0.22551675735E+02  0.36063398352E+02  0.00000000000E+00 0.  1.
         -2    1    1    2    0  502 -0.43899198947E+01  0.27797827713E+02 -0.69719395993E+02  0.75185003823E+02  0.00000000000E+00 0.  1.
</event>
<event>
 4    1  0.5465458E+003  0.2512012E+02  0.7546771E-02  0.1467464E+00
          2   -1    0    0  501    0  0.00000000000E+00  0.00000000000E+00  0.50504392334E+03  0.50504392334E+03  0.00000000000E+00 0.  1.
         -2   -1    0    0    0  501 -0.00000000000E+00 -0.00000000000E+00 -0.52004671344E+01  0.52004671344E+01  0.00000000000E+00 0. -1.
          2    1    1    2  502    0  0.17680065947E+02 -0.17844764845E+02  0.47229483197E+03  0.47296239667E+03  0.00000000000E+00 0.  1.
         -2    1    1    2    0  502 -0.17680065947E+02  0.17844764845E+02  0.27548624234E+02  0.37281993797E+02  0.00000000000E+00 0. -1.
</event>
<event>
 4    1  0.5465458E+003  0.2991383E+02  0.7546771E-02  0.1420347E+00
          2   -1    0    0  501    0  0.00000000000E+00  0.00000000000E+00  0.16934532365E+04  0.16934532365E+04  0.00000000000E+00 0.  1.
         -2   -1    0    0    0  501 -0.00000000000E+00 -0.00000000000E+00 -0.61236379970E+01  0.61236379970E+01  0.00000000000E+00 0. -1.
          2    1    1    2  502    0 -0.29235628247E+02 -0.63336829709E+01  0.16559620060E+04  0.16562321706E+04  0.00000000000E+00 0.  1.
         -2    1    1    2    0  502  0.29235628247E+02  0.63336829709E+01  0.31367592481E+02  0.43344703910E+02  0.00000000000E+00 0. -1.
</event>
<event>
 4    1  0.5465458E+003  0.3191801E+02  0.7546771E-02  0.1403630E+00
          2   -1    0    0  501    0  0.00000000000E+00  0.00000000000E+00  0.45885506285E+03  0.45885506285E+03  0.00000000000E+00 0. -1.
         -2   -1    0    0    0  501 -0.00000000000E+00 -0.00000000000E+00 -0.15460345054E+03  0.15460345054E+03  0.00000000000E+00 0.  1.
          2    1    1    2  502    0  0.31687304101E+02  0.38307088947E+01  0.45664466800E+03  0.45775879280E+03  0.00000000000E+00 0. -1.
         -2    1    1    2    0  502 -0.31687304101E+02 -0.38307088947E+01 -0.15239305569E+03  0.15569972060E+03  0.00000000000E+00 0.  1.
</event>
<event>
 4    1  0.5465458E+003  0.7613641E+02  0.7546771E-02  0.1213113E+00
          2   -1    0    0  501    0  0.00000000000E+00  0.00000000000E+00  0.10011076508E+04  0.10011076508E+04  0.00000000000E+00 0. -1.
         -2   -1    0    0    0  501 -0.00000000000E+00 -0.00000000000E+00 -0.14026290103E+02  0.14026290103E+02  0.00000000000E+00 0. -1.
          2    1    1    2  502    0 -0.74935068447E+02  0.13471774425E+02  0.88247727789E+03  0.88575555272E+03  0.00000000000E+00 0. -1.
         -2    1    1    2    0  502  0.74935068447E+02 -0.13471774425E+02  0.10460408284E+03  0.12937838821E+03  0.00000000000E+00 0. -1.
</event>
<event>
 4    1  0.5465458E+003  0.3959177E+02  0.7546771E-02  0.1350895E+00
          2   -1    0    0  501    0  0.00000000000E+00  0.00000000000E+00  0.71671650605E+03  0.71671650605E+03  0.00000000000E+00 0. -1.
         -2   -1    0    0    0  501 -0.00000000000E+00 -0.00000000000E+00 -0.21088224599E+02  0.21088224599E+02  0.00000000000E+00 0.  1.
          2    1    1    2  502    0  0.37958890994E+02 -0.11253039982E+02  0.69706349477E+03  0.69818695495E+03  0.00000000000E+00 0. -1.
         -2    1    1    2    0  502 -0.37958890994E+02  0.11253039982E+02 -0.14352133209E+01  0.39617775702E+02  0.00000000000E+00 0.  1.
</event>
<event>
 4    1  0.5465458E+003  0.2838115E+02  0.7546771E-02  0.1434207E+00
          2   -1    0    0  501    0  0.00000000000E+00  0.00000000000E+00  0.62343969081E+02  0.62343969081E+02  0.00000000000E+00 0. -1.
         -2   -1    0    0    0  501 -0.00000000000E+00 -0.00000000000E+00 -0.12980877640E+02  0.12980877640E+02  0.00000000000E+00 0. -1.
          2    1    1    2  502    0 -0.27388019921E+02 -0.74421672199E+01  0.27258908336E+02  0.39351462130E+02  0.00000000000E+00 0. -1.
         -2    1    1    2    0  502  0.27388019921E+02  0.74421672199E+01  0.22104183106E+02  0.35973384591E+02  0.00000000000E+00 0. -1.
</event>
<event>
 4    1  0.5465458E+003  0.2204434E+02  0.7546771E-02  0.1504860E+00
          2   -1    0    0  501    0  0.00000000000E+00  0.00000000000E+00  0.25274464854E+03  0.25274464854E+03  0.00000000000E+00 0.  1.
         -2   -1    0    0    0  501 -0.00000000000E+00 -0.00000000000E+00 -0.27733051003E+02  0.27733051003E+02  0.00000000000E+00 0.  1.
          2    1    1    2  502    0 -0.19338906859E+02 -0.10581093671E+02  0.24779603249E+03  0.24877465020E+03  0.00000000000E+00 0.  1.
         -2    1    1    2    0  502  0.19338906859E+02  0.10581093671E+02 -0.22784434954E+02  0.31703049348E+02  0.00000000000E+00 0.  1.
</event>
<event>
 4    1  0.5465458E+003  0.2361088E+02  0.7546771E-02  0.1484966E+00
          2   -1    0    0  501    0  0.00000000000E+00  0.00000000000E+00  0.11947245822E+02  0.11947245822E+02  0.00000000000E+00 0.  1.
         -2   -1    0    0    0  501 -0.00000000000E+00 -0.00000000000E+00 -0.18164718795E+03  0.18164718795E+03  0.00000000000E+00 0.  1.
          2    1    1    2  502    0  0.26538619378E+01 -0.23461261368E+02 -0.14064255232E+01  0.23652733476E+02  0.00000000000E+00 0.  1.
         -2    1    1    2    0  502 -0.26538619378E+01  0.23461261368E+02 -0.16829351660E+03  0.16994170029E+03  0.00000000000E+00 0.  1.
</event>
<event>
 4    1  0.5465458E+003  0.2215781E+02  0.7546771E-02  0.1503353E+00
          2   -1    0    0  501    0  0.00000000000E+00  0.00000000000E+00  0.11553605219E+03  0.11553605219E+03  0.00000000000E+00 0. -1.
         -2   -1    0    0    0  501 -0.00000000000E+00 -0.00000000000E+00 -0.72754556201E+02  0.72754556201E+02  0.00000000000E+00 0. -1.
          2    1    1    2  502    0 -0.10435463161E+02  0.19546601205E+02  0.11274524525E+03  0.11490195314E+03  0.00000000000E+00 0. -1.
         -2    1    1    2    0  502  0.10435463161E+02 -0.19546601205E+02 -0.69963749254E+02  0.73388655252E+02  0.00000000000E+00 0. -1.
</event>
<event>
 4    1  0.5465458E+003  0.4301466E+02  0.7546771E-02  0.1331671E+00
          2   -1    0    0  501    0  0.00000000000E+00  0.00000000000E+00  0.16310960645E+04  0.16310960645E+04  0.00000000000E+00 0.  1.
         -2   -1    0    0    0  501 -0.00000000000E+00 -0.00000000000E+00 -0.12176397301E+01  0.12176397301E+01  0.00000000000E+00 0. -1.
          2    1    1    2  502    0  0.37300099098E+02  0.21423439986E+02  0.10283745024E+04  0.10292737141E+04  0.00000000000E+00 0.  1.
         -2    1    1    2    0  502 -0.37300099098E+02 -0.21423439986E+02  0.60150392233E+03  0.60303999018E+03  0.00000000000E+00 0. -1.
</event>
<event>
 4    1  0.5465458E+003  0.2074586E+02  0.7546771E-02  0.1522924E+00
          2   -1    0    0  501    0  0.00000000000E+00  0.00000000000E+00  0.89449211160E+02  0.89449211160E+02  0.00000000000E+00 0.  1.
         -2   -1    0    0    0  501 -0.00000000000E+00 -0.00000000000E+00 -0.12629341438E+02  0.12629341438E+02  0.00000000000E+00 0.  1.
          2    1    1    2  502    0  0.16852851925E+02 -0.12098436246E+02  0.78566425588E+02  0.81259301051E+02  0.00000000000E+00 0.  1.
         -2    1    1    2    0  502 -0.16852851925E+02  0.12098436246E+02 -0.17465558662E+01  0.20819251548E+02  0.00000000000E+00 0.  1.
</event>
<event>
 4    1  0.5465458E+003  0.2336868E+02  0.7546771E-02  0.1487920E+00
          2   -1    0    0  501    0  0.00000000000E+00  0.00000000000E+00  0.16783776520E+04  0.16783776520E+04  0.00000000000E+00 0. -1.
         -2   -1    0    0    0  501 -0.00000000000E+00 -0.00000000000E+00 -0.25355818534E+01  0.25355818534E+01  0.00000000000E+00 0. -1.
          2    1    1    2  502    0  0.27669322872E+01  0.23204295994E+02  0.16226024121E+04  0.16227706810E+04  0.00000000000E+00 0. -1.
         -2    1    1    2    0  502 -0.27669322872E+01 -0.23204295994E+02  0.53239658057E+02  0.58142552893E+02  0.00000000000E+00 0. -1.
</event>
<event>
 4    1  0.5465458E+003  0.2068684E+02  0.7546771E-02  0.1523783E+00
          2   -1    0    0  501    0  0.00000000000E+00  0.00000000000E+00  0.20784392944E+04  0.20784392944E+04  0.00000000000E+00 0.  1.
         -2   -1    0    0    0  501 -0.00000000000E+00 -0.00000000000E+00 -0.24442202783E+00  0.24442202783E+00  0.00000000000E+00 0.  1.
          2    1    1    2  502    0 -0.13518134959E+02 -0.15659041048E+02  0.14517235214E+04  0.14518709062E+04  0.00000000000E+00 0.  1.
         -2    1    1    2    0  502  0.13518134959E+02  0.15659041048E+02  0.62647135100E+03  0.62681281031E+03  0.00000000000E+00 0.  1.
</event>
<event>
 4    1  0.5465458E+003  0.2809661E+02  0.7546771E-02  0.1436893E+00
          2   -1    0    0  501    0  0.00000000000E+00  0.00000000000E+00  0.10936688970E+04  0.10936688970E+04  0.00000000000E+00 0. -1.
         -2   -1    0    0    0  501 -0.00000000000E+00 -0.00000000000E+00 -0.36228727119E+02  0.36228727119E+02  0.00000000000E+00 0. -1.
          2    1    1    2  502    0  0.28096580372E+02  0.38635752268E-01  0.10880126620E+04  0.10883753820E+04  0.00000000000E+00 0. -1.
         -2    1    1    2    0  502 -0.28096580372E+02 -0.38635752268E-01 -0.30572492123E+02  0.41522242183E+02  0.00000000000E+00 0. -1.
</event>
<event>
 4    1  0.5465458E+003  0.2141128E+02  0.7546771E-02  0.1513473E+00
          2   -1    0    0  501    0  0.00000000000E+00  0.00000000000E+00  0.24028237760E+01  0.24028237760E+01  0.00000000000E+00 0.  1.
         -2   -1    0    0    0  501 -0.00000000000E+00 -0.00000000000E+00 -0.19400603103E+03  0.19400603103E+03  0.00000000000E+00 0. -1.
          2    1    1    2  502    0  0.93829010189E+01 -0.19245887139E+02 -0.83164385772E+02  0.85876411570E+02  0.00000000000E+00 0.  1.
         -2    1    1    2    0  502 -0.93829010189E+01  0.19245887139E+02 -0.10843882148E+03  0.11053244324E+03  0.00000000000E+00 0. -1.
</event>
<event>
 4    1  0.5465458E+003  0.2062522E+02  0.7546771E-02  0.1524684E+00
          2   -1    0    0  501    0  0.00000000000E+00  0.00000000000E+00  0.65208408445E+02  0.65208408445E+02  0.00000000000E+00 0. -1.
         -2   -1    0    0    0  501 -0.00000000000E+00 -0.00000000000E+00 -0.65580529346E+01  0.65580529346E+01  0.00000000000E+00 0. -1.
          2    1    1    2  502    0  0.18863251500E+02  0.83413150497E+01  0.31922435823E+02  0.38005811434E+02  0.00000000000E+00 0. -1.
         -2    1    1    2    0  502 -0.18863251500E+02 -0.83413150497E+01  0.26727919687E+02  0.33760649945E+02  0.00000000000E+00 0. -1.
</event>
<event>
 4    1  0.5465458E+003  0.4871442E+02  0.7546771E-02  0.1303845E+00
          2   -1    0    0  501    0  0.00000000000E+00  0.00000000000E+00  0.17410565663E+04  0.17410565663E+04  0.00000000000E+00 0. -1.
         -2   -1    0    0    0  501 -0.00000000000E+00 -0.00000000000E+00 -0.20549276187E+02  0.20549276187E+02  0.00000000000E+00 0. -1.
          2    1    1    2  502    0 -0.48586271845E+02 -0.35310802764E+01  0.17113438750E+04  0.17120370769E+04  0.00000000000E+00 0. -1.
         -2    1    1    2    0  502  0.48586271845E+02  0.35310802764E+01  0.91634151011E+01  0.49568765528E+02  0.00000000000E+00 0. -1.
</event>
<event>
 4    1  0.5465458E+003  0.3240112E+02  0.7546771E-02  0.1399817E+00
          2   -1    0    0  501    0  0.00000000000E+00  0.00000000000E+00  0.33318854677E+02  0.33318854677E+02  0.00000000000E+00 0.  1.
         -2   -1    0    0    0  501 -0.00000000000E+00 -0.00000000000E+00 -0.50291641572E+03  0.50291641572E+03  0.00000000000E+00 0.  1.
          2    1    1    2  502    0  0.32238392670E+02 -0.32432089113E+01  0.24783974527E+02  0.40793109213E+02  0.00000000000E+00 0.  1.
         -2    1    1    2    0  502 -0.32238392670E+02  0.32432089113E+01 -0.49438153557E+03  0.49544216118E+03  0.00000000000E+00 0.  1.
</event>
<event>
 4    1  0.5465458E+003  0.4463036E+02  0.7546771E-02  0.1323298E+00
          2   -1    0    0  501    0  0.00000000000E+00  0.00000000000E+00  0.49177615006E+03  0.49177615006E+03  0.00000000000E+00 0.  1.
         -2   -1    0    0    0  501 -0.00000000000E+00 -0.00000000000E+00 -0.14686919393E+02  0.14686919393E+02  0.00000000000E+00 0. -1.
          2    1    1    2  502    0 -0.24861515531E+02  0.37064455462E+02  0.45404749806E+03  0.45623568395E+03  0.00000000000E+00 0.  1.
         -2    1    1    2    0  502  0.24861515531E+02 -0.37064455462E+02  0.23041732606E+02  0.50227385505E+02  0.00000000000E+00 0. -1.
</event>
<event>
 4    1  0.5465458E+003  0.2194450E+02  0.7546771E-02  0.1506195E+00
          2   -1    0    0  501    0  0.00000000000E+00  0.00000000000E+00  0.76777158629E+01  0.76777158629E+01  0.00000000000E+00 0.  1.
         -2   -1    0    0    0  501 -0.00000000000E+00 -0.00000000000E+00 -0.66002479874E+02  0.66002479874E+02  0.00000000000E+00 0.  1.
          2    1    1    2  502    0  0.21774408329E+02 -0.27269277640E+01 -0.20949125557E+02  0.30338537452E+02  0.00000000000E+00 0.  1.
         -2    1    1    2    0  502 -0.21774408329E+02  0.27269277640E+01 -0.37375638453E+02  0.43341658285E+02  0.00000000000E+00 0.  1.
</event>
<event>
 4    1  0.5465458E+003  0.3323332E+02  0.7546771E-02  0.1393428E+00
          2   -1    0    0  501    0  0.00000000000E+00  0.00000000000E+00  0.10021941872E+04  0.10021941872E+04  0.00000000000E+00 0. -1.
         -2   -1    0    0    0  501 -0.00000000000E+00 -0.00000000000E+00 -0.99239693142E+01  0.99239693142E+01  0.00000000000E+00 0. -1.
          2    1    1    2  502    0  0.26155168773E+02  0.20502694986E+02  0.97326916572E+03  0.97383639401E+03  0.00000000000E+00 0. -1.
         -2    1    1    2    0  502 -0.26155168773E+02 -0.20502694986E+02  0.19001052117E+02  0.38281762457E+02  0.00000000000E+00 0. -1.
</event>
<event>
 4    1  0.5465458E+003  0.2775546E+02  0.7546771E-02  0.1440163E+00
          2   -1    0    0  501    0  0.00000000000E+00  0.00000000000E+00  0.49080315725E+01  0.49080315725E+01  0.00000000000E+00 0.  1.
         -2   -1    0    0    0  501 -0.00000000000E+00 -0.00000000000E+00 -0.19067815083E+03  0.19067815083E+03  0.00000000000E+00 0. -1.
          2    1    1    2  502    0  0.71861840340E+01  0.26809035869E+02 -0.51761731200E+02  0.58733656978E+02  0.00000000000E+00 0.  1.
         -2    1    1    2    0  502 -0.71861840340E+01 -0.26809035869E+02 -0.13400838806E+03  0.13685252542E+03  0.00000000000E+00 0. -1.
</event>
<event>
 4    1  0.5465458E+003  0.3711629E+02  0.7546771E-02  0.1366266E+00
          2   -1    0    0  501    0  0.00000000000E+00  0.00000000000E+00  0.10118391787E+04  0.10118391787E+04  0.00000000000E+00 0.  1.
         -2   -1    0    0    0  501 -0.00000000000E+00 -0.00000000000E+00 -0.14708713689E+01  0.14708713689E+01  0.00000000000E+00 0.  1.
          2    1    1    2  502    0  0.20249668012E+01  0.37061005503E+02  0.64334266966E+03  0.64441245273E+03  0.00000000000E+00 0.  1.
         -2    1    1    2    0  502 -0.20249668012E+01 -0.37061005503E+02  0.36702563766E+03  0.36889759734E+03  0.00000000000E+00 0.  1.
</event>
<event>
 4    1  0.5465458E+003  0.2277304E+02  0.7546771E-02  0.1495368E+00
          2   -1    0    0  501    0  0.00000000000E+00  0.00000000000E+00  0.69800316153E+01  0.69800316153E+01  0.00000000000E+00 0.  1.
         -2   -1    0    0    0  501 -0.00000000000E+00 -0.00000000000E+00 -0.12199987857E+03  0.12199987857E+03  0.00000000000E+00 0. -1.
          2    1    1    2  502    0 -0.16363902801E+02  0.15837735924E+02 -0.17184923664E+02  0.28529507451E+02  0.00000000000E+00 0.  1.
         -2    1    1    2    0  502  0.16363902801E+02 -0.15837735924E+02 -0.97834923287E+02  0.10045040273E+03  0.00000000000E+00 0. -1.
</event>
<event>
 4    1  0.5465458E+003  0.2237854E+02  0.7546771E-02  0.1500453E+00
          2   -1    0    0  501    0  0.00000000000E+00  0.00000000000E+00  0.15834336210E+03  0.15834336210E+03  0.00000000000E+00 0.  1.
         -2   -1    0    0    0  501 -0.00000000000E+00 -0.00000000000E+00 -0.31782626637E+01  0.31782626637E+01  0.00000000000E+00 0.  1.
          2    1    1    2  502    0 -0.26806477955E+01 -0.22217392699E+02  0.71937980661E+02  0.75338379811E+02  0.00000000000E+00 0.  1.
         -2    1    1    2    0  502  0.26806477955E+01  0.22217392699E+02  0.83227118780E+02  0.86183244957E+02  0.00000000000E+00 0.  1.
</event>
<event>
 4    1  0.5465458E+003  0.2897516E+02  0.7546771E-02  0.1428716E+00
          2   -1    0    0  501    0  0.00000000000E+00  0.00000000000E+00  0.16528317835E+04  0.16528317835E+04  0.00000000000E+00 0. -1.
         -2   -1    0    0    0  501 -0.00000000000E+00 -0.00000000000E+00 -0.77907280822E+01  0.77907280822E+01  0.00000000000E+00 0.  1.
          2    1    1    2  502    0 -0.20576027293E+02 -0.20400665921E+02  0.16253075907E+04  0.16255658475E+04  0.00000000000E+00 0. -1.
         -2    1    1    2    0  502  0.20576027293E+02  0.20400665921E+02  0.19733464723E+02  0.35056664119E+02  0.00000000000E+00 0.  1.
</event>
<event>
 4    1  0.5465458E+003  0.2183437E+02  0.7546771E-02  0.1507678E+00
          2   -1    0    0  501    0  0.00000000000E+00  0.00000000000E+00  0.22258272499E+01  0.22258272499E+01  0.00000000000E+00 0.  1.
         -2   -1    0    0    0  501 -0.00000000000E+00 -0.00000000000E+00 -0.40548397527E+03  0.40548397527E+03  0.00000000000E+00 0. -1.
          2    1    1    2  502    0 -0.98662958621E+01 -0.19478091778E+02 -0.61609065630E+02  0.65363727106E+02  0.00000000000E+00 0.  1.
         -2    1    1    2    0  502  0.98662958621E+01  0.19478091778E+02 -0.34164908239E+03  0.34234607542E+03  0.00000000000E+00 0. -1.
</event>
<event>
 4    1  0.5465458E+003  0.3196268E+02  0.7546771E-02  0.1403274E+00
          2   -1    0    0  501    0  0.00000000000E+00  0.00000000000E+00  0.77716015824E+02  0.77716015824E+02  0.00000000000E+00 0.  1.
         -2   -1    0    0    0  501 -0.00000000000E+00 -0.00000000000E+00 -0.37677871640E+03  0.37677871640E+03  0.00000000000E+00 0. -1.
          2    1    1    2  502    0 -0.91190463497E+01  0.30634225134E+02  0.73716597283E+02  0.80347678690E+02  0.00000000000E+00 0.  1.
         -2    1    1    2    0  502  0.91190463497E+01 -0.30634225134E+02 -0.37277929786E+03  0.37414705354E+03  0.00000000000E+00 0. -1.
</event>
<event>
 4    1  0.5465458E+003  0.3215673E+02  0.7546771E-02  0.1401736E+00
          2   -1    0    0  501    0  0.00000000000E+00  0.00000000000E+00  0.34448641502E+02  0.34448641502E+02  0.00000000000E+00 0. -1.
         -2   -1    0    0    0  501 -0.00000000000E+00 -0.00000000000E+00 -0.57827640852E+02  0.57827640852E+02  0.00000000000E+00 0. -1.
          2    1    1    2  502    0  0.14072859302E+02 -0.28913832044E+02  0.20306489918E+02  0.38031678705E+02  0.00000000000E+00 0. -1.
         -2    1    1    2    0  502 -0.14072859302E+02  0.28913832044E+02 -0.43685489268E+02  0.54244603648E+02  0.00000000000E+00 0. -1.
</event>
<event>
 4    1  0.5465458E+003  0.2929284E+02  0.7546771E-02  0.1425843E+00
          2   -1    0    0  501    0  0.00000000000E+00  0.00000000000E+00  0.17275565723E+03  0.17275565723E+03  0.00000000000E+00 0. -1.
         -2   -1    0    0    0  501 -0.00000000000E+00 -0.00000000000E+00 -0.60728742794E+01  0.60728742794E+01  0.00000000000E+00 0. -1.
          2    1    1    2  502    0  0.35064566204E+01  0.29082211888E+02  0.12149807114E+03  0.12497940461E+03  0.00000000000E+00 0. -1.
         -2    1    1    2    0  502 -0.35064566204E+01 -0.29082211888E+02  0.45184711814E+02  0.53849126901E+02  0.00000000000E+00 0. -1.
</event>
<event>
 4    1  0.5465458E+003  0.2306647E+03  0.7546771E-02  0.1035296E+00
          2   -1    0    0  501    0  0.00000000000E+00  0.00000000000E+00  0.25033305787E+04  0.25033305787E+04  0.00000000000E+00 0. -1.
         -2   -1    0    0    0  501 -0.00000000000E+00 -0.00000000000E+00 -0.43501312282E+02  0.43501312282E+02  0.00000000000E+00 0.  1.
          2    1    1    2  502    0  0.15876009658E+01  0.23065924099E+03  0.21405746123E+04  0.21529667617E+04  0.00000000000E+00 0. -1.
         -2    1    1    2    0  502 -0.15876009658E+01 -0.23065924099E+03  0.31925465411E+03  0.39386512933E+03  0.00000000000E+00 0.  1.
</event>
<event>
 4    1  0.5465458E+003  0.2397998E+02  0.7546771E-02  0.1480546E+00
          2   -1    0    0  501    0  0.00000000000E+00  0.00000000000E+00  0.11290014152E+04  0.11290014152E+04  0.00000000000E+00 0.  1.
         -2   -1    0    0    0  501 -0.00000000000E+00 -0.00000000000E+00 -0.21784617007E+01  0.21784617007E+01  0.00000000000E+00 0. -1.
          2    1    1    2  502    0  0.23966091268E+02  0.81588931370E+00  0.10584869905E+04  0.10587585883E+04  0.00000000000E+00 0.  1.
         -2    1    1    2    0  502 -0.23966091268E+02 -0.81588931370E+00  0.68335963008E+02  0.72421288626E+02  0.00000000000E+00 0. -1.
</event>
<event>
 4    1  0.5465458E+003  0.3338026E+02  0.7546771E-02  0.1392322E+00
          2   -1    0    0  501    0  0.00000000000E+00  0.00000000000E+00  0.97367304527E+03  0.97367304527E+03  0.00000000000E+00 0. -1.
         -2   -1    0    0    0  501 -0.00000000000E+00 -0.00000000000E+00 -0.28047818268E+01  0.28047818268E+01  0.00000000000E+00 0.  1.
          2    1    1    2  502    0  0.24799229789E+02 -0.22343678790E+02  0.86109055284E+03  0.86173730451E+03  0.00000000000E+00 0. -1.
         -2    1    1    2    0  502 -0.24799229789E+02  0.22343678790E+02  0.10977771060E+03  0.11474052259E+03  0.00000000000E+00 0.  1.
</event>
<event>
 4    1  0.5465458E+003  0.2126620E+02  0.7546771E-02  0.1515498E+00
          2   -1    0    0  501    0  0.00000000000E+00  0.00000000000E+00  0.98491644890E+03  0.98491644890E+03  0.00000000000E+00 0. -1.
         -2   -1    0    0    0  501 -0.00000000000E+00 -0.00000000000E+00 -0.58691779425E+00  0.58691779425E+00  0.00000000000E+00 0. -1.
          2    1    1    2  502    0  0.20872054198E+02  0.40753411347E+01  0.72204633890E+03  0.72235944416E+03  0.00000000000E+00 0. -1.
         -2    1    1    2    0  502 -0.20872054198E+02 -0.40753411347E+01  0.26228319221E+03  0.26314392253E+03  0.00000000000E+00 0. -1.
</event>
<event>
 4    1  0.5465458E+003  0.3400483E+02  0.7546771E-02  0.1387698E+00
          2   -1    0    0  501    0  0.00000000000E+00  0.00000000000E+00  0.16794529943E+04  0.16794529943E+04  0.00000000000E+00 0.  1.
         -2   -1    0    0    0  501 -0.00000000000E+00 -0.00000000000E+00 -0.78604222655E+00  0.78604222655E+00  0.00000000000E+00 0.  1.
          2    1    1    2  502    0  0.12662816920E+02  0.31559179230E+02  0.11352579453E+04  0.11357671113E+04  0.00000000000E+00 0.  1.
         -2    1    1    2    0  502 -0.12662816920E+02 -0.31559179230E+02  0.54340900679E+03  0.54447192525E+03  0.00000000000E+00 0.  1.
</event>
<event>
 4    1  0.5465458E+003  0.2147344E+02  0.7546771E-02  0.1512612E+00
          2   -1    0    0  501    0  0.00000000000E+00  0.00000000000E+00  0.52894036273E+03  0.52894036273E+03  0.00000000000E+00 0.  1.
         -2   -1    0    0    0  501 -0.00000000000E+00 -0.00000000000E+00 -0.80311975756E+01  0.80311975756E+01  0.00000000000E+00 0.  1.
          2    1    1    2  502    0  0.14905707762E+02 -0.15457315863E+02  0.51395028751E+03  0.51439868465E+03  0.00000000000E+00 0.  1.
         -2    1    1    2    0  502 -0.14905707762E+02  0.15457315863E+02  0.69588776534E+01  0.22572875665E+02  0.00000000000E+00 0.  1.
</event>
<event>
 4    1  0.5465458E+003  0.2402035E+02  0.7546771E-02  0.1480068E+00
          2   -1    0    0  501    0  0.00000000000E+00  0.00000000000E+00  0.17824289087E+04  0.17824289087E+04  0.00000000000E+00 0.  1.
         -2   -1    0    0    0  501 -0.00000000000E+00 -0.00000000000E+00 -0.18135479698E+01  0.18135479698E+01  0.00000000000E+00 0.  1.
          2    1    1    2  502    0  0.21801789795E+02 -0.10082625236E+02  0.16989005494E+04  0.16990703500E+04  0.00000000000E+00 0.  1.
         -2    1    1    2    0  502 -0.21801789795E+02  0.10082625236E+02  0.81714811285E+02  0.85172106662E+02  0.00000000000E+00 0.  1.
</event>
<event>
 4    1  0.5465458E+003  0.2272290E+02  0.7546771E-02  0.1496007E+00
          2   -1    0    0  501    0  0.00000000000E+00  0.00000000000E+00  0.12788594196E+04  0.12788594196E+04  0.00000000000E+00 0.  1.
         -2   -1    0    0    0  501 -0.00000000000E+00 -0.00000000000E+00 -0.28730286386E+01  0.28730286386E+01  0.00000000000E+00 0. -1.
          2    1    1    2  502    0  0.20985357972E+02  0.87146308815E+01  0.12321254160E+04  0.12323349264E+04  0.00000000000E+00 0.  1.
         -2    1    1    2    0  502 -0.20985357972E+02 -0.87146308815E+01  0.43860974972E+02  0.49397521862E+02  0.00000000000E+00 0. -1.
</event>
<event>
 4    1  0.5465458E+003  0.3400374E+02  0.7546771E-02  0.1387706E+00
          2   -1    0    0  501    0  0.00000000000E+00  0.00000000000E+00  0.10276635161E+03  0.10276635161E+03  0.00000000000E+00 0. -1.
         -2   -1    0    0    0  501 -0.00000000000E+00 -0.00000000000E+00 -0.12720663936E+02  0.12720663936E+02  0.00000000000E+00 0.  1.
          2    1    1    2  502    0  0.33991577322E+02 -0.90928257544E+00  0.64648053086E+02  0.73045361875E+02  0.00000000000E+00 0. -1.
         -2    1    1    2    0  502 -0.33991577322E+02  0.90928257544E+00  0.25397634589E+02  0.42441653672E+02  0.00000000000E+00 0.  1.
</event>
<event>
 4    1  0.5465458E+003  0.3306370E+02  0.7546771E-02  0.1394712E+00
          2   -1    0    0  501    0  0.00000000000E+00  0.00000000000E+00  0.32253829993E+02  0.32253829993E+02  0.00000000000E+00 0.  1.
         -2   -1    0    0    0  501 -0.00000000000E+00 -0.00000000000E+00 -0.36807559221E+02  0.36807559221E+02  0.00000000000E+00 0.  1.
          2    1    1    2  502    0 -0.33045427261E+02  0.10986638590E+01 -0.11992203325E+02  0.35171298892E+02  0.00000000000E+00 0.  1.
         -2    1    1    2    0  502  0.33045427261E+02 -0.10986638590E+01  0.74384740966E+01  0.33890090322E+02  0.00000000000E+00 0.  1.
</event>
<event>
 4    1  0.5465458E+003  0.3506679E+02  0.7546771E-02  0.1380094E+00
          2   -1    0    0  501    0  0.00000000000E+00  0.00000000000E+00  0.20143157846E+02  0.20143157846E+02  0.00000000000E+00 0. -1.
         -2   -1    0    0    0  501 -0.00000000000E+00 -0.00000000000E+00 -0.71660496382E+03  0.71660496382E+03  0.00000000000E+00 0.  1.
          2    1    1    2  502    0 -0.40289804451E+01 -0.34834568467E+02  0.41031960202E+01  0.35306034347E+02  0.00000000000E+00 0. -1.
         -2    1    1    2    0  502  0.40289804451E+01  0.34834568467E+02 -0.70056500199E+03  0.70144208732E+03  0.00000000000E+00 0.  1.
</event>
<event>
 4    1  0.5465458E+003  0.3366316E+02  0.7546771E-02  0.1390213E+00
          2   -1    0    0  501    0  0.00000000000E+00  0.00000000000E+00  0.49522278366E+01  0.49522278366E+01  0.00000000000E+00 0.  1.
         -2   -1    0    0    0  501 -0.00000000000E+00 -0.00000000000E+00 -0.10111495042E+04  0.10111495042E+04  0.00000000000E+00 0.  1.
          2    1    1    2  502    0  0.33374066737E+02 -0.44023058090E+01 -0.56217391171E+02  0.65525595740E+02  0.00000000000E+00 0.  1.
         -2    1    1    2    0  502 -0.33374066737E+02  0.44023058090E+01 -0.94997988519E+03  0.95057613629E+03  0.00000000000E+00 0.  1.
</event>
<event>
 4    1  0.5465458E+003  0.2078014E+02  0.7546771E-02  0.1522427E+00
          2   -1    0    0  501    0  0.00000000000E+00  0.00000000000E+00  0.61107769158E+01  0.61107769158E+01  0.00000000000E+00 0.  1.
         -2   -1    0    0    0  501 -0.00000000000E+00 -0.00000000000E+00 -0.58653842217E+03  0.58653842217E+03  0.00000000000E+00 0. -1.
          2    1    1    2  502    0  0.20674853958E+02  0.20891712639E+01 -0.12312052322E+02  0.24153692370E+02  0.00000000000E+00 0.  1.
         -2    1    1    2    0  502 -0.20674853958E+02 -0.20891712639E+01 -0.56811559293E+03  0.56849550671E+03  0.00000000000E+00 0. -1.
</event>
<event>
 4    1  0.5465458E+003  0.3468275E+02  0.7546771E-02  0.1382807E+00
          2   -1    0    0  501    0  0.00000000000E+00  0.00000000000E+00  0.57499871084E+03  0.57499871084E+03  0.00000000000E+00 0.  1.
         -2   -1    0    0    0  501 -0.00000000000E+00 -0.00000000000E+00 -0.23178613533E+01  0.23178613533E+01  0.00000000000E+00 0. -1.
          2    1    1    2  502    0 -0.12180175986E+02  0.32473625059E+02  0.37644948076E+03  0.37804378658E+03  0.00000000000E+00 0.  1.
         -2    1    1    2    0  502  0.12180175986E+02 -0.32473625059E+02  0.19623136873E+03  0.19927278561E+03  0.00000000000E+00 0. -1.
</event>
<event>
 4    1  0.5465458E+003  0.3618327E+02  0.7546771E-02  0.1372430E+00
          2   -1    0    0  501    0  0.00000000000E+00  0.00000000000E+00  0.16599061823E+04  0.16599061823E+04  0.00000000000E+00 0.  1.
         -2   -1    0    0    0  501 -0.00000000000E+00 -0.00000000000E+00 -0.32698251883E+01  0.32698251883E+01  0.00000000000E+00 0.  1.
          2    1    1    2  502    0  0.34281142413E+02  0.11577218308E+02  0.15526992384E+04  0.15531207789E+04  0.00000000000E+00 0.  1.
         -2    1    1    2    0  502 -0.34281142413E+02 -0.11577218308E+02  0.10393711873E+03  0.11005522867E+03  0.00000000000E+00 0.  1.
</event>
<event>
 4    1  0.5465458E+003  0.2303677E+02  0.7546771E-02  0.1492037E+00
          2   -1    0    0  501    0  0.00000000000E+00  0.00000000000E+00  0.20743598024E+03  0.20743598024E+03  0.00000000000E+00 0.  1.
         -2   -1    0    0    0  501 -0.00000000000E+00 -0.00000000000E+00 -0.86419888730E+02  0.86419888730E+02  0.00000000000E+00 0.  1.
          2    1    1    2  502    0 -0.40947043631E+01 -0.22669943042E+02  0.20524483917E+03  0.20653362179E+03  0.00000000000E+00 0.  1.
         -2    1    1    2    0  502  0.40947043631E+01  0.22669943042E+02 -0.84228747660E+02  0.87322247186E+02  0.00000000000E+00 0.  1.
</event>
<event>
 4    1  0.5465458E+003  0.2173712E+02  0.7546771E-02  0.1508996E+00
          2   -1    0    0  501    0  0.00000000000E+00  0.00000000000E+00  0.19746630643E+03  0.19746630643E+03  0.00000000000E+00 0. -1.
         -2   -1    0    0    0  501 -0.00000000000E+00 -0.00000000000E+00 -0.85679810438E+01  0.85679810438E+01  0.00000000000E+00 0. -1.
          2    1    1    2  502    0  0.28838622330E+01  0.21544967923E+02  0.18190609226E+03  0.18320024210E+03  0.00000000000E+00 0. -1.
         -2    1    1    2    0  502 -0.28838622330E+01 -0.21544967923E+02  0.69922331310E+01  0.22834045379E+02  0.00000000000E+00 0. -1.
</event>
<event>
 4    1  0.5465458E+003  0.2184532E+02  0.7546771E-02  0.1507530E+00
          2   -1    0    0  501    0  0.00000000000E+00  0.00000000000E+00  0.93394306607E+02  0.93394306607E+02  0.00000000000E+00 0.  1.
         -2   -1    0    0    0  501 -0.00000000000E+00 -0.00000000000E+00 -0.70965334713E+01  0.70965334713E+01  0.00000000000E+00 0.  1.
          2    1    1    2  502    0  0.21641688471E+02  0.29757659396E+01  0.69734883303E+02  0.73076479199E+02  0.00000000000E+00 0.  1.
         -2    1    1    2    0  502 -0.21641688471E+02 -0.29757659396E+01  0.16562889833E+02  0.27414360879E+02  0.00000000000E+00 0.  1.
</event>
<event>
 4    1  0.5465458E+003  0.2271354E+02  0.7546771E-02  0.1496127E+00
          2   -1    0    0  501    0  0.00000000000E+00  0.00000000000E+00  0.14186295202E+04  0.14186295202E+04  0.00000000000E+00 0.  1.
         -2   -1    0    0    0  501 -0.00000000000E+00 -0.00000000000E+00 -0.10389029522E+01  0.10389029522E+01  0.00000000000E+00 0. -1.
          2    1    1    2  502    0  0.74175480245E+01 -0.21468229147E+02  0.12810615021E+04  0.12812628446E+04  0.00000000000E+00 0.  1.
         -2    1    1    2    0  502 -0.74175480245E+01  0.21468229147E+02  0.13652911514E+03  0.13840557851E+03  0.00000000000E+00 0. -1.
</event>
<event>
 4    1  0.5465458E+003  0.2013848E+02  0.7546771E-02  0.1531929E+00
          2   -1    0    0  501    0  0.00000000000E+00  0.00000000000E+00  0.32237048191E+02  0.32237048191E+02  0.00000000000E+00 0.  1.
         -2   -1    0    0    0  501 -0.00000000000E+00 -0.00000000000E+00 -0.23883290403E+03  0.23883290403E+03  0.00000000000E+00 0.  1.
          2    1    1    2  502    0 -0.20012559822E+02  0.22485341562E+01  0.28619111815E+02  0.34994456955E+02  0.00000000000E+00 0.  1.
         -2    1    1    2    0  502  0.20012559822E+02 -0.22485341562E+01 -0.23521496765E+03  0.23607549526E+03  0.00000000000E+00 0.  1.
</event>
<event>
 4    1  0.5465458E+003  0.2013874E+02  0.7546771E-02  0.1531925E+00
          2   -1    0    0  501    0  0.00000000000E+00  0.00000000000E+00  0.14066811009E+04  0.14066811009E+04  0.00000000000E+00 0.  1.
         -2   -1    0    0    0  501 -0.00000000000E+00 -0.00000000000E+00 -0.88255396473E+01  0.88255396473E+01  0.00000000000E+00 0. -1.
          2    1    1    2  502    0 -0.16315307638E+02 -0.11805917933E+02  0.13950245278E+04  0.13951698829E+04  0.00000000000E+00 0.  1.
         -2    1    1    2    0  502  0.16315307638E+02  0.11805917933E+02  0.28310334522E+01  0.20336757656E+02  0.00000000000E+00 0. -1.
</event>
<event>
 4    1  0.5465458E+003  0.4629025E+02  0.7546771E-02  0.1315111E+00
          2   -1    0    0  501    0  0.00000000000E+00  0.00000000000E+00  0.15979065251E+03  0.15979065251E+03  0.00000000000E+00 0.  1.
         -2   -1    0    0    0  501 -0.00000000000E+00 -0.00000000000E+00 -0.18966969320E+02  0.18966969320E+02  0.00000000000E+00 0.  1.
          2    1    1    2  502    0  0.20706035759E+01  0.46243917038E+02  0.11879073373E+03  0.12749127689E+03  0.00000000000E+00 0.  1.
         -2    1    1    2    0  502 -0.20706035759E+01 -0.46243917038E+02  0.22032949465E+02  0.51266344947E+02  0.00000000000E+00 0.  1.
</event>
<event>
 4    1  0.5465458E+003  0.4960897E+02  0.7546771E-02  0.1299877E+00
          2   -1    0    0  501    0  0.00000000000E+00  0.00000000000E+00  0.77462282404E+02  0.77462282404E+02  0.00000000000E+00 0.  1.
         -2   -1    0    0    0  501 -0.00000000000E+00 -0.00000000000E+00 -0.10558453137E+03  0.10558453137E+03  0.00000000000E+00 0.  1.
          2    1    1    2  502    0  0.42665172914E+02  0.25312706570E+02  0.62463318359E+02  0.79766636096E+02  0.00000000000E+00 0.  1.
         -2    1    1    2    0  502 -0.42665172914E+02 -0.25312706570E+02 -0.90585567328E+02  0.10328017768E+03  0.00000000000E+00 0.  1.
</event>
<event>
 4    1  0.5465458E+003  0.2731858E+02  0.7546771E-02  0.1444434E+00
          2   -1    0    0  501    0  0.00000000000E+00  0.00000000000E+00  0.57008206328E+03  0.57008206328E+03  0.00000000000E+00 0. -1.
         -2   -1    0    0    0  501 -0.00000000000E+00 -0.00000000000E+00 -0.30014371593E+01  0.30014371593E+01  0.00000000000E+00 0.  1.
          2    1    1    2  502    0 -0.23609922493E+02 -0.13743220488E+02  0.49870175649E+03  0.49944944336E+03  0.00000000000E+00 0. -1.
         -2    1    1    2    0  502  0.23609922493E+02  0.13743220488E+02  0.68378869628E+02  0.73634057074E+02  0.00000000000E+00 0.  1.
</event>
<event>
 4    1  0.5465458E+003  0.2047473E+02  0.7546771E-02  0.1526898E+00
          2   -1    0    0  501    0  0.00000000000E+00  0.00000000000E+00  0.11389083785E+03  0.11389083785E+03  0.00000000000E+00 0.  1.
         -2   -1    0    0    0  501 -0.00000000000E+00 -0.00000000000E+00 -0.12500988016E+02  0.12500988016E+02  0.00000000000E+00 0. -1.
          2    1    1    2  502    0 -0.12621441999E+02 -0.16121844560E+02  0.10377782039E+03  0.10577830910E+03  0.00000000000E+00 0.  1.
         -2    1    1    2    0  502  0.12621441999E+02  0.16121844560E+02 -0.23879705589E+01  0.20613516768E+02  0.00000000000E+00 0. -1.
</event>
<event>
 4    1  0.5465458E+003  0.2017766E+02  0.7546771E-02  0.1531337E+00
          2   -1    0    0  501    0  0.00000000000E+00  0.00000000000E+00  0.18512574014E+03  0.18512574014E+03  0.00000000000E+00 0.  1.
         -2   -1    0    0    0  501 -0.00000000000E+00 -0.00000000000E+00 -0.29467363088E+01  0.29467363088E+01  0.00000000000E+00 0.  1.
          2    1    1    2  502    0 -0.17987908769E+02  0.91418198682E+01  0.43727907701E+02  0.48158775361E+02  0.00000000000E+00 0.  1.
         -2    1    1    2    0  502  0.17987908769E+02 -0.91418198682E+01  0.13845109613E+03  0.13991370108E+03  0.00000000000E+00 0.  1.
</event>
<event>
 4    1  0.5465458E+003  0.2833740E+02  0.7546771E-02  0.1434617E+00
          2   -1    0    0  501    0  0.00000000000E+00  0.00000000000E+00  0.13951386725E+03  0.13951386725E+03  0.00000000000E+00 0.  1.
         -2   -1    0    0    0  501 -0.00000000000E+00 -0.00000000000E+00 -0.86595434960E+02  0.86595434960E+02  0.00000000000E+00 0.  1.
          2    1    1    2  502    0  0.15121341647E+01  0.28297030277E+02  0.13569205276E+03  0.13861941298E+03  0.00000000000E+00 0.  1.
         -2    1    1    2    0  502 -0.15121341647E+01 -0.28297030277E+02 -0.82773620470E+02  0.87489889233E+02  0.00000000000E+00 0.  1.
</event>
<event>
 4    1  0.5465458E+003  0.2096677E+02  0.7546771E-02  0.1519740E+00
          2   -1    0    0  501    0  0.00000000000E+00  0.00000000000E+00  0.86248654743E+02  0.86248654743E+02  0.00000000000E+00 0.  1.
         -2   -1    0    0    0  501 -0.00000000000E+00 -0.00000000000E+00 -0.70316154996E+01  0.70316154996E+01  0.00000000000E+00 0.  1.
          2    1    1    2  502    0  0.19736558990E+02 -0.70762543482E+01  0.15144088933E+02  0.25864040017E+02  0.00000000000E+00 0.  1.
         -2    1    1    2    0  502 -0.19736558990E+02  0.70762543482E+01  0.64072950311E+02  0.67416230226E+02  0.00000000000E+00 0.  1.
</event>
<event>
 4    1  0.5465458E+003  0.6203146E+02  0.7546771E-02  0.1253082E+00
          2   -1    0    0  501    0  0.00000000000E+00  0.00000000000E+00  0.47647883819E+03  0.47647883819E+03  0.00000000000E+00 0.  1.
         -2   -1    0    0    0  501 -0.00000000000E+00 -0.00000000000E+00 -0.32428500081E+03  0.32428500081E+03  0.00000000000E+00 0. -1.
          2    1    1    2  502    0  0.41918222510E+02 -0.45724873672E+02  0.47146203171E+03  0.47552533980E+03  0.00000000000E+00 0.  1.
         -2    1    1    2    0  502 -0.41918222510E+02  0.45724873672E+02 -0.31926819432E+03  0.32523849919E+03  0.00000000000E+00 0. -1.
</event>
<event>
 4    1  0.5465458E+003  0.2246901E+02  0.7546771E-02  0.1499276E+00
          2   -1    0    0  501    0  0.00000000000E+00  0.00000000000E+00  0.17737653519E+01  0.17737653519E+01  0.00000000000E+00 0.  1.
         -2   -1    0    0    0  501 -0.00000000000E+00 -0.00000000000E+00 -0.11228503546E+04  0.11228503546E+04  0.00000000000E+00 0.  1.
          2    1    1    2  502    0 -0.69374460979E+01  0.21371200527E+02 -0.74694022475E+02  0.78000342075E+02  0.00000000000E+00 0.  1.
         -2    1    1    2    0  502  0.69374460979E+01 -0.21371200527E+02 -0.10463825667E+04  0.10466237779E+04  0.00000000000E+00 0.  1.
</event>
<event>
 4    1  0.5465458E+003  0.3196689E+02  0.7546771E-02  0.1403241E+00
          2   -1    0    0  501    0  0.00000000000E+00  0.00000000000E+00  0.17627908393E+04  0.17627908393E+04  0.00000000000E+00 0. -1.
         -2   -1    0    0    0  501 -0.00000000000E+00 -0.00000000000E+00 -0.64155380641E+00  0.64155380641E+00  0.00000000000E+00 0. -1.
          2    1    1    2  502    0 -0.31932234142E+02 -0.14880772292E+01  0.11548606324E+04  0.11553029742E+04  0.00000000000E+00 0. -1.
         -2    1    1    2    0  502  0.31932234142E+02  0.14880772292E+01  0.60728865312E+03  0.60812941892E+03  0.00000000000E+00 0. -1.
</event>
<event>
 4    1  0.5465458E+003  0.2113191E+02  0.7546771E-02  0.1517390E+00
          2   -1    0    0  501    0  0.00000000000E+00  0.00000000000E+00  0.15349439942E+02  0.15349439942E+02  0.00000000000E+00 0.  1.
         -2   -1    0    0    0  501 -0.00000000000E+00 -0.00000000000E+00 -0.27976369534E+03  0.27976369534E+03  0.00000000000E+00 0.  1.
          2    1    1    2  502    0 -0.17435433286E+02  0.11939991005E+02  0.74666401870E+01  0.22412238504E+02  0.00000000000E+00 0.  1.
         -2    1    1    2    0  502  0.17435433286E+02 -0.11939991005E+02 -0.27188089558E+03  0.27270089677E+03  0.00000000000E+00 0.  1.
</event>
<event>
 4    1  0.5465458E+003  0.2157297E+02  0.7546771E-02  0.1511239E+00
          2   -1    0    0  501    0  0.00000000000E+00  0.00000000000E+00  0.10072774282E+04  0.10072774282E+04  0.00000000000E+00 0.  1.
         -2   -1    0    0    0  501 -0.00000000000E+00 -0.00000000000E+00 -0.12616948804E+01  0.12616948804E+01  0.00000000000E+00 0. -1.
          2    1    1    2  502    0  0.47516062044E+01  0.21043179803E+02  0.90446518856E+03  0.90472242732E+03  0.00000000000E+00 0.  1.
         -2    1    1    2    0  502 -0.47516062044E+01 -0.21043179803E+02  0.10155054475E+03  0.10381669575E+03  0.00000000000E+00 0. -1.
</event>
<event>
 4    1  0.5465458E+003  0.2358528E+02  0.7546771E-02  0.1485277E+00
          2   -1    0    0  501    0  0.00000000000E+00  0.00000000000E+00  0.60326036997E+03  0.60326036997E+03  0.00000000000E+00 0. -1.
         -2   -1    0    0    0  501 -0.00000000000E+00 -0.00000000000E+00 -0.55736633277E+02  0.55736633277E+02  0.00000000000E+00 0.  1.
          2    1    1    2  502    0  0.23304764420E+02 -0.36267380267E+01  0.60052341696E+03  0.60098638886E+03  0.00000000000E+00 0. -1.
         -2    1    1    2    0  502 -0.23304764420E+02  0.36267380267E+01 -0.52999680267E+02  0.58010614390E+02  0.00000000000E+00 0.  1.
</event>
<event>
 4    1  0.5465458E+003  0.5549887E+02  0.7546771E-02  0.1275944E+00
          2   -1    0    0  501    0  0.00000000000E+00  0.00000000000E+00  0.25016529265E+04  0.25016529265E+04  0.00000000000E+00 0. -1.
         -2   -1    0    0    0  501 -0.00000000000E+00 -0.00000000000E+00 -0.12685869814E+01  0.12685869814E+01  0.00000000000E+00 0.  1.
          2    1    1    2  502    0 -0.40641915695E+02  0.37793634196E+02  0.14649309831E+04  0.14659818926E+04  0.00000000000E+00 0. -1.
         -2    1    1    2    0  502  0.40641915695E+02 -0.37793634196E+02  0.10354533563E+04  0.10369396208E+04  0.00000000000E+00 0.  1.
</event>
<event>
 4    1  0.5465458E+003  0.3180961E+02  0.7546771E-02  0.1404497E+00
          2   -1    0    0  501    0  0.00000000000E+00  0.00000000000E+00  0.17333519537E+02  0.17333519537E+02  0.00000000000E+00 0.  1.
         -2   -1    0    0    0  501 -0.00000000000E+00 -0.00000000000E+00 -0.93214708340E+02  0.93214708340E+02  0.00000000000E+00 0.  1.
          2    1    1    2  502    0  0.31592890292E+02  0.37068573965E+01 -0.41485711593E+01  0.32078998604E+02  0.00000000000E+00 0.  1.
         -2    1    1    2    0  502 -0.31592890292E+02 -0.37068573965E+01 -0.71732617643E+02  0.78469229273E+02  0.00000000000E+00 0.  1.
</event>
<event>
 4    1  0.5465458E+003  0.2117655E+02  0.7546771E-02  0.1516759E+00
          2   -1    0    0  501    0  0.00000000000E+00  0.00000000000E+00  0.16232333415E+04  0.16232333415E+04  0.00000000000E+00 0. -1.
         -2   -1    0    0    0  501 -0.00000000000E+00 -0.00000000000E+00 -0.87370310363E+00  0.87370310363E+00  0.00000000000E+00 0.  1.
          2    1    1    2  502    0  0.61451550285E+01 -0.20265327235E+02  0.14826833646E+04  0.14828345848E+04  0.00000000000E+00 0. -1.
         -2    1    1    2    0  502 -0.61451550285E+01  0.20265327235E+02  0.13967627381E+03  0.14127245975E+03  0.00000000000E+00 0.  1.
</event>
<event>
 4    1  0.5465458E+003  0.3960754E+02  0.7546771E-02  0.1350801E+00
          2   -1    0    0  501    0  0.00000000000E+00  0.00000000000E+00  0.15151309900E+04  0.15151309900E+04  0.00000000000E+00 0.  1.
         -2   -1    0    0    0  501 -0.00000000000E+00 -0.00000000000E+00 -0.11614044460E+01  0.11614044460E+01  0.00000000000E+00 0.  1.
          2    1    1    2  502    0  0.27965057423E+02  0.28048402801E+02  0.10067113447E+04  0.10074901929E+04  0.00000000000E+00 0.  1.
         -2    1    1    2    0  502 -0.27965057423E+02 -0.28048402801E+02  0.50725824093E+03  0.50880220158E+03  0.00000000000E+00 0.  1.
</event>
<event>
 4    1  0.5465458E+003  0.2211308E+02  0.7546771E-02  0.1503946E+00
          2   -1    0    0  501    0  0.00000000000E+00  0.00000000000E+00  0.16143821943E+03  0.16143821943E+03  0.00000000000E+00 0.  1.
         -2   -1    0    0    0  501 -0.00000000000E+00 -0.00000000000E+00 -0.84158289523E+02  0.84158289523E+02  0.00000000000E+00 0.  1.
          2    1    1    2  502    0  0.18212937834E+02 -0.12541020624E+02  0.15920814728E+03  0.16073650010E+03  0.00000000000E+00 0.  1.
         -2    1    1    2    0  502 -0.18212937834E+02  0.12541020624E+02 -0.81928217368E+02  0.84860008861E+02  0.00000000000E+00 0.  1.
</event>
<event>
 4    1  0.5465458E+003  0.3420645E+02  0.7546771E-02  0.1386229E+00
          2   -1    0    0  501    0  0.00000000000E+00  0.00000000000E+00  0.20125645797E+04  0.20125645797E+04  0.00000000000E+00 0. -1.
         -2   -1    0    0    0  501 -0.00000000000E+00 -0.00000000000E+00 -0.11114596273E+01  0.11114596273E+01  0.00000000000E+00 0. -1.
          2    1    1    2  502    0 -0.34194760130E+02 -0.89423496739E+00  0.17010389411E+04  0.17013828377E+04  0.00000000000E+00 0. -1.
         -2    1    1    2    0  502  0.34194760130E+02  0.89423496739E+00  0.31041417904E+03  0.31229320170E+03  0.00000000000E+00 0. -1.
</event>
<event>
 4    1  0.5465458E+003  0.2597366E+02  0.7546771E-02  0.1458199E+00
          2   -1    0    0  501    0  0.00000000000E+00  0.00000000000E+00  0.19622436379E+03  0.19622436379E+03  0.00000000000E+00 0.  1.
         -2   -1    0    0    0  501 -0.00000000000E+00 -0.00000000000E+00 -0.70652405878E+01  0.70652405878E+01  0.00000000000E+00 0. -1.
          2    1    1    2  502    0 -0.25930595003E+02 -0.14950129017E+01  0.16740890305E+03  0.16941184032E+03  0.00000000000E+00 0.  1.
         -2    1    1    2    0  502  0.25930595003E+02  0.14950129017E+01  0.21750220153E+02  0.33877764057E+02  0.00000000000E+00 0. -1.
</event>
<event>
 4    1  0.5465458E+003  0.4142486E+02  0.7546771E-02  0.1340333E+00
          2   -1    0    0  501    0  0.00000000000E+00  0.00000000000E+00  0.73446347266E+03  0.73446347266E+03  0.00000000000E+00 0.  1.
         -2   -1    0    0    0  501 -0.00000000000E+00 -0.00000000000E+00 -0.70537663352E+03  0.70537663352E+03  0.00000000000E+00 0. -1.
          2    1    1    2  502    0  0.41221676734E+02  0.40978825032E+01  0.73327018474E+03  0.73443936653E+03  0.00000000000E+00 0.  1.
         -2    1    1    2    0  502 -0.41221676734E+02 -0.40978825032E+01 -0.70418334560E+03  0.70540073965E+03  0.00000000000E+00 0. -1.
</event>
<event>
 4    1  0.5465458E+003  0.2702147E+02  0.7546771E-02  0.1447393E+00
          2   -1    0    0  501    0  0.00000000000E+00  0.00000000000E+00  0.75925144513E+03  0.75925144513E+03  0.00000000000E+00 0.  1.
         -2   -1    0    0    0  501 -0.00000000000E+00 -0.00000000000E+00 -0.17899166771E+02  0.17899166771E+02  0.00000000000E+00 0.  1.
          2    1    1    2  502    0  0.13025662673E+02 -0.23674707111E+02  0.74866867943E+03  0.74915615943E+03  0.00000000000E+00 0.  1.
         -2    1    1    2    0  502 -0.13025662673E+02  0.23674707111E+02 -0.73164010699E+01  0.27994452477E+02  0.00000000000E+00 0.  1.
</event>
<event>
 4    1  0.5465458E+003  0.2014123E+02  0.7546771E-02  0.1531888E+00
          2   -1    0    0  501    0  0.00000000000E+00  0.00000000000E+00  0.78669824540E+01  0.78669824540E+01  0.00000000000E+00 0. -1.
         -2   -1    0    0    0  501 -0.00000000000E+00 -0.00000000000E+00 -0.65854777147E+03  0.65854777147E+03  0.00000000000E+00 0.  1.
          2    1    1    2  502    0 -0.11527219591E+02 -0.16516432669E+02 -0.54444265169E+01  0.20864110806E+02  0.00000000000E+00 0. -1.
         -2    1    1    2    0  502  0.11527219591E+02  0.16516432669E+02 -0.64523636250E+03  0.64555064312E+03  0.00000000000E+00 0.  1.
</event>
<event>
 4    1  0.5465458E+003  0.2591250E+02  0.7546771E-02  0.1458849E+00
          2   -1    0    0  501    0  0.00000000000E+00  0.00000000000E+00  0.22194428308E+02  0.22194428308E+02  0.00000000000E+00 0.  1.
         -2   -1    0    0    0  501 -0.00000000000E+00 -0.00000000000E+00 -0.14933840784E+03  0.14933840784E+03  0.00000000000E+00 0. -1.
          2    1    1    2  502    0 -0.22557959841E+02 -0.12751326421E+02  0.13015878248E+02  0.28997775160E+02  0.00000000000E+00 0.  1.
         -2    1    1    2    0  502  0.22557959841E+02  0.12751326421E+02 -0.14015985778E+03  0.14253506099E+03  0.00000000000E+00 0. -1.
</event>
<event>
 4    1  0.5465458E+003  0.2115687E+02  0.7546771E-02  0.1517037E+00
          2   -1    0    0  501    0  0.00000000000E+00  0.00000000000E+00  0.10480102051E+02  0.10480102051E+02  0.00000000000E+00 0.  1.
         -2   -1    0    0    0  501 -0.00000000000E+00 -0.00000000000E+00 -0.13727560401E+03  0.13727560401E+03  0.00000000000E+00 0.  1.
          2    1    1    2  502    0 -0.13970141996E+02 -0.15888620784E+02 -0.20805338344E+01  0.21258921864E+02  0.00000000000E+00 0.  1.
         -2    1    1    2    0  502  0.13970141996E+02  0.15888620784E+02 -0.12471496813E+03  0.12649678420E+03  0.00000000000E+00 0.  1.
</event>
<event>
 4    1  0.5465458E+003  0.2536365E+02  0.7546771E-02  0.1464776E+00
          2   -1    0    0  501    0  0.00000000000E+00  0.00000000000E+00  0.11144665947E+03  0.11144665947E+03  0.00000000000E+00 0. -1.
         -2   -1    0    0    0  501 -0.00000000000E+00 -0.00000000000E+00 -0.79415672181E+02  0.79415672181E+02  0.00000000000E+00 0. -1.
          2    1    1    2  502    0  0.21171892638E+02 -0.13966595160E+02  0.10791298514E+03  0.11085362953E+03  0.00000000000E+00 0. -1.
         -2    1    1    2    0  502 -0.21171892638E+02  0.13966595160E+02 -0.75881997847E+02  0.80008702124E+02  0.00000000000E+00 0. -1.
</event>
<event>
 4    1  0.5465458E+003  0.3542847E+02  0.7546771E-02  0.1377576E+00
          2   -1    0    0  501    0  0.00000000000E+00  0.00000000000E+00  0.48772084909E+03  0.48772084909E+03  0.00000000000E+00 0.  1.
         -2   -1    0    0    0  501 -0.00000000000E+00 -0.00000000000E+00 -0.85526115196E+01  0.85526115196E+01  0.00000000000E+00 0. -1.
          2    1    1    2  502    0 -0.12576543230E+02  0.33121092636E+02  0.44705541849E+03  0.44845704746E+03  0.00000000000E+00 0.  1.
         -2    1    1    2    0  502  0.12576543230E+02 -0.33121092636E+02  0.32112819080E+02  0.47816413147E+02  0.00000000000E+00 0. -1.
</event>
<event>
 4    1  0.5465458E+003  0.2848164E+02  0.7546771E-02  0.1433267E+00
          2   -1    0    0  501    0  0.00000000000E+00  0.00000000000E+00  0.65118936325E+01  0.65118936325E+01  0.00000000000E+00 0.  1.
         -2   -1    0    0    0  501 -0.00000000000E+00 -0.00000000000E+00 -0.15071911588E+03  0.15071911588E+03  0.00000000000E+00 0.  1.
          2    1    1    2  502    0  0.23729306078E+02 -0.15751948286E+02 -0.39359700839E+02  0.48583843939E+02  0.00000000000E+00 0.  1.
         -2    1    1    2    0  502 -0.23729306078E+02  0.15751948286E+02 -0.10484752141E+03  0.10864716558E+03  0.00000000000E+00 0.  1.
</event>
<event>
 4    1  0.5465458E+003  0.3078701E+02  0.7546771E-02  0.1412878E+00
          2   -1    0    0  501    0  0.00000000000E+00  0.00000000000E+00  0.12881121608E+03  0.12881121608E+03  0.00000000000E+00 0. -1.
         -2   -1    0    0    0  501 -0.00000000000E+00 -0.00000000000E+00 -0.22922088076E+02  0.22922088076E+02  0.00000000000E+00 0.  1.
          2    1    1    2  502    0 -0.59622101312E+01  0.30204171458E+02  0.11545903791E+03  0.11949321888E+03  0.00000000000E+00 0. -1.
         -2    1    1    2    0  502  0.59622101312E+01 -0.30204171458E+02 -0.95699099039E+01  0.32240085278E+02  0.00000000000E+00 0.  1.
</event>
<event>
 4    1  0.5465458E+003  0.2961588E+02  0.7546771E-02  0.1422964E+00
          2   -1    0    0  501    0  0.00000000000E+00  0.00000000000E+00  0.50710096174E+02  0.50710096174E+02  0.00000000000E+00 0. -1.
         -2   -1    0    0    0  501 -0.00000000000E+00 -0.00000000000E+00 -0.16730189636E+03  0.16730189636E+03  0.00000000000E+00 0.  1.
          2    1    1    2  502    0  0.23038333842E+02 -0.18610097503E+02  0.44921659614E+02  0.53805725139E+02  0.00000000000E+00 0. -1.
         -2    1    1    2    0  502 -0.23038333842E+02  0.18610097503E+02 -0.16151345980E+03  0.16420626739E+03  0.00000000000E+00 0.  1.
</event>
<event>
 4    1  0.5465458E+003  0.2005250E+02  0.7546771E-02  0.1533235E+00
          2   -1    0    0  501    0  0.00000000000E+00  0.00000000000E+00  0.74853437668E+01  0.74853437668E+01  0.00000000000E+00 0.  1.
         -2   -1    0    0    0  501 -0.00000000000E+00 -0.00000000000E+00 -0.98304038189E+02  0.98304038189E+02  0.00000000000E+00 0.  1.
          2    1    1    2  502    0  0.91834531537E+01 -0.17826018484E+02 -0.97869976647E+01  0.22313405614E+02  0.00000000000E+00 0.  1.
         -2    1    1    2    0  502 -0.91834531537E+01  0.17826018484E+02 -0.81031696758E+02  0.83475976342E+02  0.00000000000E+00 0.  1.
</event>
<event>
 4    1  0.5465458E+003  0.2806291E+02  0.7546771E-02  0.1437214E+00
          2   -1    0    0  501    0  0.00000000000E+00  0.00000000000E+00  0.13459773270E+04  0.13459773270E+04  0.00000000000E+00 0. -1.
         -2   -1    0    0    0  501 -0.00000000000E+00 -0.00000000000E+00 -0.19654068984E+02  0.19654068984E+02  0.00000000000E+00 0. -1.
          2    1    1    2  502    0 -0.99669719667E+01 -0.26233303016E+02  0.13357369139E+04  0.13360316725E+04  0.00000000000E+00 0. -1.
         -2    1    1    2    0  502  0.99669719667E+01  0.26233303016E+02 -0.94136558461E+01  0.29599723541E+02  0.00000000000E+00 0. -1.
</event>
<event>
 4    1  0.5465458E+003  0.4823662E+02  0.7546771E-02  0.1306004E+00
          2   -1    0    0  501    0  0.00000000000E+00  0.00000000000E+00  0.24075667608E+03  0.24075667608E+03  0.00000000000E+00 0.  1.
         -2   -1    0    0    0  501 -0.00000000000E+00 -0.00000000000E+00 -0.19159287120E+02  0.19159287120E+02  0.00000000000E+00 0.  1.
          2    1    1    2  502    0  0.25143029942E+02  0.41165516980E+02  0.20228538344E+03  0.20795708234E+03  0.00000000000E+00 0.  1.
         -2    1    1    2    0  502 -0.25143029942E+02 -0.41165516980E+02  0.19312005521E+02  0.51958880859E+02  0.00000000000E+00 0.  1.
</event>
<event>
 4    1  0.5465458E+003  0.2095220E+02  0.7546771E-02  0.1519948E+00
          2   -1    0    0  501    0  0.00000000000E+00  0.00000000000E+00  0.60182090190E+03  0.60182090190E+03  0.00000000000E+00 0. -1.
         -2   -1    0    0    0  501 -0.00000000000E+00 -0.00000000000E+00 -0.11227979179E+02  0.11227979179E+02  0.00000000000E+00 0. -1.
          2    1    1    2  502    0 -0.15039421910E+02  0.14588023164E+02  0.59169677820E+03  0.59206762449E+03  0.00000000000E+00 0. -1.
         -2    1    1    2    0  502  0.15039421910E+02 -0.14588023164E+02 -0.11038554823E+01  0.20981256591E+02  0.00000000000E+00 0. -1.
</event>
<event>
 4    1  0.5465458E+003  0.2247360E+02  0.7546771E-02  0.1499216E+00
          2   -1    0    0  501    0  0.00000000000E+00  0.00000000000E+00  0.20907386160E+02  0.20907386160E+02  0.00000000000E+00 0.  1.
         -2   -1    0    0    0  501 -0.00000000000E+00 -0.00000000000E+00 -0.25505739197E+02  0.25505739197E+02  0.00000000000E+00 0.  1.
          2    1    1    2  502    0  0.14990890986E+02 -0.16743228368E+02  0.30370521514E+01  0.22677878968E+02  0.00000000000E+00 0.  1.
         -2    1    1    2    0  502 -0.14990890986E+02  0.16743228368E+02 -0.76354051884E+01  0.23735246388E+02  0.00000000000E+00 0.  1.
</event>
<event>
 4    1  0.5465458E+003  0.2303225E+02  0.7546771E-02  0.1492094E+00
          2   -1    0    0  501    0  0.00000000000E+00  0.00000000000E+00  0.34239679469E+03  0.34239679469E+03  0.00000000000E+00 0. -1.
         -2   -1    0    0    0  501 -0.00000000000E+00 -0.00000000000E+00 -0.24783778805E+01  0.24783778805E+01  0.00000000000E+00 0. -1.
          2    1    1    2  502    0  0.42240931666E+01 -0.22641586107E+02  0.27553590491E+03  0.27649687029E+03  0.00000000000E+00 0. -1.
         -2    1    1    2    0  502 -0.42240931666E+01  0.22641586107E+02  0.64382511894E+02  0.68378302277E+02  0.00000000000E+00 0. -1.
</event>
<event>
 4    1  0.6244357E+003  0.3233073E+02  0.7546771E-02  0.1400367E+00
          2   -1    0    0  501    0  0.00000000000E+00  0.00000000000E+00  0.16358142178E+04  0.16358142178E+04  0.00000000000E+00 0.  1.
         -2   -1    0    0    0  501 -0.00000000000E+00 -0.00000000000E+00 -0.38456322686E+03  0.38456322686E+03  0.00000000000E+00 0. -1.
          2    1    1    2  502    0 -0.32267835108E+02  0.20157401319E+01  0.16349745984E+04  0.16352942285E+04  0.00000000000E+00 0.  1.
         -2    1    1    2    0  502  0.32267835108E+02 -0.20157401319E+01 -0.38372360749E+03  0.38508321612E+03  0.00000000000E+00 0. -1.
</event>
<event>
 4    1  0.5465458E+003  0.2202111E+02  0.7546771E-02  0.1505170E+00
          2   -1    0    0  501    0  0.00000000000E+00  0.00000000000E+00  0.12108674689E+04  0.12108674689E+04  0.00000000000E+00 0. -1.
         -2   -1    0    0    0  501 -0.00000000000E+00 -0.00000000000E+00 -0.13399042360E+01  0.13399042360E+01  0.00000000000E+00 0. -1.
          2    1    1    2  502    0 -0.10055737643E+02  0.19591101427E+02  0.11122692807E+04  0.11124872502E+04  0.00000000000E+00 0. -1.
         -2    1    1    2    0  502  0.10055737643E+02 -0.19591101427E+02  0.97258283972E+02  0.99720122923E+02  0.00000000000E+00 0. -1.
</event>
<event>
 4    1  0.5465458E+003  0.5027805E+02  0.7546771E-02  0.1296971E+00
          2   -1    0    0  501    0  0.00000000000E+00  0.00000000000E+00  0.11764083775E+03  0.11764083775E+03  0.00000000000E+00 0.  1.
         -2   -1    0    0    0  501 -0.00000000000E+00 -0.00000000000E+00 -0.44418313291E+02  0.44418313291E+02  0.00000000000E+00 0.  1.
          2    1    1    2  502    0 -0.19780393781E+02 -0.46223571981E+02  0.94830460083E+02  0.10733451795E+03  0.00000000000E+00 0.  1.
         -2    1    1    2    0  502  0.19780393781E+02  0.46223571981E+02 -0.21607935622E+02  0.54724633089E+02  0.00000000000E+00 0.  1.
</event>
<event>
 4    1  0.5465458E+003  0.3304933E+02  0.7546771E-02  0.1394821E+00
          2   -1    0    0  501    0  0.00000000000E+00  0.00000000000E+00  0.11908432920E+04  0.11908432920E+04  0.00000000000E+00 0. -1.
         -2   -1    0    0    0  501 -0.00000000000E+00 -0.00000000000E+00 -0.17599602695E+01  0.17599602695E+01  0.00000000000E+00 0. -1.
          2    1    1    2  502    0  0.27290732105E+02  0.18640656172E+02  0.10071737420E+04  0.10077158353E+04  0.00000000000E+00 0. -1.
         -2    1    1    2    0  502 -0.27290732105E+02 -0.18640656172E+02  0.18190958977E+03  0.18488741701E+03  0.00000000000E+00 0. -1.
</event>
<event>
 4    1  0.5465458E+003  0.2464016E+02  0.7546771E-02  0.1472869E+00
          2   -1    0    0  501    0  0.00000000000E+00  0.00000000000E+00  0.24187262393E+01  0.24187262393E+01  0.00000000000E+00 0. -1.
         -2   -1    0    0    0  501 -0.00000000000E+00 -0.00000000000E+00 -0.25653889342E+03  0.25653889342E+03  0.00000000000E+00 0.  1.
          2    1    1    2  502    0  0.65471178367E+01  0.23754421572E+02 -0.10806098997E+03  0.11083462839E+03  0.00000000000E+00 0. -1.
         -2    1    1    2    0  502 -0.65471178367E+01 -0.23754421572E+02 -0.14605917720E+03  0.14812299127E+03  0.00000000000E+00 0.  1.
</event>
<event>
 4    1  0.5465458E+003  0.2234633E+02  0.7546771E-02  0.1500873E+00
          2   -1    0    0  501    0  0.00000000000E+00  0.00000000000E+00  0.30621018659E+03  0.30621018659E+03  0.00000000000E+00 0. -1.
         -2   -1    0    0    0  501 -0.00000000000E+00 -0.00000000000E+00 -0.89652048906E+01  0.89652048906E+01  0.00000000000E+00 0.  1.
          2    1    1    2  502    0  0.56729890887E+01  0.21614251573E+02  0.29115879587E+03  0.29201507339E+03  0.00000000000E+00 0. -1.
         -2    1    1    2    0  502 -0.56729890887E+01 -0.21614251573E+02  0.60861858378E+01  0.23160318096E+02  0.00000000000E+00 0.  1.
</event>
<event>
 4    1  0.5465458E+003  0.2213321E+02  0.7546771E-02  0.1503679E+00
          2   -1    0    0  501    0  0.00000000000E+00  0.00000000000E+00  0.66862342656E+02  0.66862342656E+02  0.00000000000E+00 0.  1.
         -2   -1    0    0    0  501 -0.00000000000E+00 -0.00000000000E+00 -0.86748444967E+02  0.86748444967E+02  0.00000000000E+00 0. -1.
          2    1    1    2  502    0  0.18894175974E+02 -0.11527754117E+02  0.63547353310E+02  0.67291493618E+02  0.00000000000E+00 0.  1.
         -2    1    1    2    0  502 -0.18894175974E+02  0.11527754117E+02 -0.83433455621E+02  0.86319294005E+02  0.00000000000E+00 0. -1.
</event>
<event>
 4    1  0.5465458E+003  0.2311921E+02  0.7546771E-02  0.1491007E+00
          2   -1    0    0  501    0  0.00000000000E+00  0.00000000000E+00  0.20801650686E+03  0.20801650686E+03  0.00000000000E+00 0. -1.
         -2   -1    0    0    0  501 -0.00000000000E+00 -0.00000000000E+00 -0.37782740476E+01  0.37782740476E+01  0.00000000000E+00 0. -1.
          2    1    1    2  502    0 -0.20466837196E+02 -0.10752038894E+02  0.16201702446E+03  0.16365822307E+03  0.00000000000E+00 0. -1.
         -2    1    1    2    0  502  0.20466837196E+02  0.10752038894E+02  0.42221208348E+02  0.48136557828E+02  0.00000000000E+00 0. -1.
</event>
<event>
 4    1  0.5465458E+003  0.5206249E+02  0.7546771E-02  0.1289470E+00
          2   -1    0    0  501    0  0.00000000000E+00  0.00000000000E+00  0.37887460819E+03  0.37887460819E+03  0.00000000000E+00 0.  1.
         -2   -1    0    0    0  501 -0.00000000000E+00 -0.00000000000E+00 -0.95241285435E+01  0.95241285435E+01  0.00000000000E+00 0.  1.
          2    1    1    2  502    0  0.35129617301E+02 -0.38424112174E+02  0.28155053695E+03  0.28632360585E+03  0.00000000000E+00 0.  1.
         -2    1    1    2    0  502 -0.35129617301E+02  0.38424112174E+02  0.87799942695E+02  0.10207513089E+03  0.00000000000E+00 0.  1.
</event>
<event>
 4    1  0.5465458E+003  0.2112241E+02  0.7546771E-02  0.1517524E+00
          2   -1    0    0  501    0  0.00000000000E+00  0.00000000000E+00  0.45858680026E+01  0.45858680026E+01  0.00000000000E+00 0. -1.
         -2   -1    0    0    0  501 -0.00000000000E+00 -0.00000000000E+00 -0.45093444499E+03  0.45093444499E+03  0.00000000000E+00 0.  1.
          2    1    1    2  502    0  0.20712180530E+02  0.41426828435E+01 -0.21474775403E+02  0.30121789821E+02  0.00000000000E+00 0. -1.
         -2    1    1    2    0  502 -0.20712180530E+02 -0.41426828435E+01 -0.42487380158E+03  0.42539852317E+03  0.00000000000E+00 0.  1.
</event>
<event>
 4    1  0.5465458E+003  0.2175020E+02  0.7546771E-02  0.1508818E+00
          2   -1    0    0  501    0  0.00000000000E+00  0.00000000000E+00  0.41335574478E+03  0.41335574478E+03  0.00000000000E+00 0. -1.
         -2   -1    0    0    0  501 -0.00000000000E+00 -0.00000000000E+00 -0.40859562202E+02  0.40859562202E+02  0.00000000000E+00 0. -1.
          2    1    1    2  502    0  0.19695050468E+02  0.92290848197E+01  0.41015254521E+03  0.41072884165E+03  0.00000000000E+00 0. -1.
         -2    1    1    2    0  502 -0.19695050468E+02 -0.92290848197E+01 -0.37656362638E+02  0.43486465328E+02  0.00000000000E+00 0. -1.
</event>
<event>
 4    1  0.5465458E+003  0.3277801E+02  0.7546771E-02  0.1396896E+00
          2   -1    0    0  501    0  0.00000000000E+00  0.00000000000E+00  0.17408744281E+04  0.17408744281E+04  0.00000000000E+00 0. -1.
         -2   -1    0    0    0  501 -0.00000000000E+00 -0.00000000000E+00 -0.17629098364E+01  0.17629098364E+01  0.00000000000E+00 0. -1.
          2    1    1    2  502    0 -0.18548881120E+02  0.27024749584E+02  0.15719919332E+04  0.15723336275E+04  0.00000000000E+00 0. -1.
         -2    1    1    2    0  502  0.18548881120E+02 -0.27024749584E+02  0.16711958505E+03  0.17030371043E+03  0.00000000000E+00 0. -1.
</event>
<event>
 4    1  0.5465458E+003  0.3398552E+02  0.7546771E-02  0.1387839E+00
          2   -1    0    0  501    0  0.00000000000E+00  0.00000000000E+00  0.49292181778E+03  0.49292181778E+03  0.00000000000E+00 0.  1.
         -2   -1    0    0    0  501 -0.00000000000E+00 -0.00000000000E+00 -0.83931773108E+01  0.83931773108E+01  0.00000000000E+00 0. -1.
          2    1    1    2  502    0  0.31335111164E+02  0.13157745543E+02  0.45507543008E+03  0.45634270294E+03  0.00000000000E+00 0.  1.
         -2    1    1    2    0  502 -0.31335111164E+02 -0.13157745543E+02  0.29453210385E+02  0.44972292152E+02  0.00000000000E+00 0. -1.
</event>
<event>
 4    1  0.5465458E+003  0.2097079E+02  0.7546771E-02  0.1519682E+00
          2   -1    0    0  501    0  0.00000000000E+00  0.00000000000E+00  0.15285841409E+04  0.15285841409E+04  0.00000000000E+00 0. -1.
         -2   -1    0    0    0  501 -0.00000000000E+00 -0.00000000000E+00 -0.31102968119E+00  0.31102968119E+00  0.00000000000E+00 0.  1.
          2    1    1    2  502    0  0.16109945449E+02  0.13425486688E+02  0.97349905623E+03  0.97372490290E+03  0.00000000000E+00 0. -1.
         -2    1    1    2    0  502 -0.16109945449E+02 -0.13425486688E+02  0.55477405504E+03  0.55517026773E+03  0.00000000000E+00 0.  1.
</event>
<event>
 4    1  0.5465458E+003  0.2249746E+02  0.7546771E-02  0.1498907E+00
          2   -1    0    0  501    0  0.00000000000E+00  0.00000000000E+00  0.10253749667E+04  0.10253749667E+04  0.00000000000E+00 0.  1.
         -2   -1    0    0    0  501 -0.00000000000E+00 -0.00000000000E+00 -0.44748524121E+02  0.44748524121E+02  0.00000000000E+00 0.  1.
          2    1    1    2  502    0  0.14948177939E+02  0.16813315292E+02  0.10224157144E+04  0.10226632039E+04  0.00000000000E+00 0.  1.
         -2    1    1    2    0  502 -0.14948177939E+02 -0.16813315292E+02 -0.41789271815E+02  0.47460286910E+02  0.00000000000E+00 0.  1.
</event>
<event>
 4    1  0.5465458E+003  0.2186198E+02  0.7546771E-02  0.1507305E+00
          2   -1    0    0  501    0  0.00000000000E+00  0.00000000000E+00  0.49897821425E+03  0.49897821425E+03  0.00000000000E+00 0.  1.
         -2   -1    0    0    0  501 -0.00000000000E+00 -0.00000000000E+00 -0.10998768203E+01  0.10998768203E+01  0.00000000000E+00 0. -1.
          2    1    1    2  502    0  0.16587405370E+02  0.14240925939E+02  0.33878995680E+03  0.33949459616E+03  0.00000000000E+00 0.  1.
         -2    1    1    2    0  502 -0.16587405370E+02 -0.14240925939E+02  0.15908838063E+03  0.16058349492E+03  0.00000000000E+00 0. -1.
</event>
<event>
 4    1  0.5465458E+003  0.3436409E+02  0.7546771E-02  0.1385090E+00
          2   -1    0    0  501    0  0.00000000000E+00  0.00000000000E+00  0.92902388842E+03  0.92902388842E+03  0.00000000000E+00 0. -1.
         -2   -1    0    0    0  501 -0.00000000000E+00 -0.00000000000E+00 -0.17550352122E+01  0.17550352122E+01  0.00000000000E+00 0.  1.
          2    1    1    2  502    0  0.42879653751E+01 -0.34095517772E+02  0.70801294664E+03  0.70884640339E+03  0.00000000000E+00 0. -1.
         -2    1    1    2    0  502 -0.42879653751E+01  0.34095517772E+02  0.21925590656E+03  0.22193252024E+03  0.00000000000E+00 0.  1.
</event>
<event>
 4    1  0.5465458E+003  0.2229664E+02  0.7546771E-02  0.1501524E+00
          2   -1    0    0  501    0  0.00000000000E+00  0.00000000000E+00  0.12529302474E+04  0.12529302474E+04  0.00000000000E+00 0. -1.
         -2   -1    0    0    0  501 -0.00000000000E+00 -0.00000000000E+00 -0.22383860609E+01  0.22383860609E+01  0.00000000000E+00 0.  1.
          2    1    1    2  502    0  0.13705346278E+02  0.17587036388E+02  0.11945954850E+04  0.11948035459E+04  0.00000000000E+00 0. -1.
         -2    1    1    2    0  502 -0.13705346278E+02 -0.17587036388E+02  0.56096376368E+02  0.60365087651E+02  0.00000000000E+00 0.  1.
</event>
<event>
 4    1  0.5465458E+003  0.2450157E+02  0.7546771E-02  0.1474457E+00
          2   -1    0    0  501    0  0.00000000000E+00  0.00000000000E+00  0.53256744473E+01  0.53256744473E+01  0.00000000000E+00 0. -1.
         -2   -1    0    0    0  501 -0.00000000000E+00 -0.00000000000E+00 -0.32747029598E+03  0.32747029598E+03  0.00000000000E+00 0.  1.
          2    1    1    2  502    0 -0.18418164640E+02 -0.16158538694E+02 -0.26323252422E+02  0.35961657074E+02  0.00000000000E+00 0. -1.
         -2    1    1    2    0  502  0.18418164640E+02  0.16158538694E+02 -0.29582136912E+03  0.29683431336E+03  0.00000000000E+00 0.  1.
</event>
<event>
 4    1  0.5465458E+003  0.2267149E+02  0.7546771E-02  0.1496665E+00
          2   -1    0    0  501    0  0.00000000000E+00  0.00000000000E+00  0.22768446144E+03  0.22768446144E+03  0.00000000000E+00 0.  1.
         -2   -1    0    0    0  501 -0.00000000000E+00 -0.00000000000E+00 -0.38281963749E+03  0.38281963749E+03  0.00000000000E+00 0.  1.
          2    1    1    2  502    0 -0.22251929855E+02 -0.43414588807E+01  0.22678309173E+03  0.22791350847E+03  0.00000000000E+00 0.  1.
         -2    1    1    2    0  502  0.22251929855E+02  0.43414588807E+01 -0.38191826778E+03  0.38259059046E+03  0.00000000000E+00 0.  1.
</event>
<event>
 4    1  0.5465458E+003  0.2354208E+02  0.7546771E-02  0.1485801E+00
          2   -1    0    0  501    0  0.00000000000E+00  0.00000000000E+00  0.65242449514E+03  0.65242449514E+03  0.00000000000E+00 0. -1.
         -2   -1    0    0    0  501 -0.00000000000E+00 -0.00000000000E+00 -0.61379769503E+01  0.61379769503E+01  0.00000000000E+00 0. -1.
          2    1    1    2  502    0  0.85400912057E+01  0.21938471538E+02  0.62879014415E+03  0.62923070099E+03  0.00000000000E+00 0. -1.
         -2    1    1    2    0  502 -0.85400912057E+01 -0.21938471538E+02  0.17496374040E+02  0.29331771098E+02  0.00000000000E+00 0. -1.
</event>
<event>
 4    1  0.5465458E+003  0.2127919E+02  0.7546771E-02  0.1515316E+00
          2   -1    0    0  501    0  0.00000000000E+00  0.00000000000E+00  0.74826737963E+03  0.74826737963E+03  0.00000000000E+00 0. -1.
         -2   -1    0    0    0  501 -0.00000000000E+00 -0.00000000000E+00 -0.14871383549E+03  0.14871383549E+03  0.00000000000E+00 0.  1.
          2    1    1    2  502    0 -0.75411753414E+01 -0.19898102539E+02  0.74735396551E+03  0.74765684213E+03  0.00000000000E+00 0. -1.
         -2    1    1    2    0  502  0.75411753414E+01  0.19898102539E+02 -0.14780042137E+03  0.14932437299E+03  0.00000000000E+00 0.  1.
</event>
<event>
 4    1  0.5465458E+003  0.2019446E+02  0.7546771E-02  0.1531084E+00
          2   -1    0    0  501    0  0.00000000000E+00  0.00000000000E+00  0.88328829338E+01  0.88328829338E+01  0.00000000000E+00 0. -1.
         -2   -1    0    0    0  501 -0.00000000000E+00 -0.00000000000E+00 -0.57878178162E+02  0.57878178162E+02  0.00000000000E+00 0.  1.
          2    1    1    2  502    0  0.10738022242E+02  0.17102950981E+02 -0.95205769852E+01  0.22326160441E+02  0.00000000000E+00 0. -1.
         -2    1    1    2    0  502 -0.10738022242E+02 -0.17102950981E+02 -0.39524718243E+02  0.44384900654E+02  0.00000000000E+00 0.  1.
</event>
<event>
 4    1  0.5465458E+003  0.2295256E+02  0.7546771E-02  0.1493095E+00
          2   -1    0    0  501    0  0.00000000000E+00  0.00000000000E+00  0.17846557813E+02  0.17846557813E+02  0.00000000000E+00 0. -1.
         -2   -1    0    0    0  501 -0.00000000000E+00 -0.00000000000E+00 -0.60102762080E+02  0.60102762080E+02  0.00000000000E+00 0. -1.
          2    1    1    2  502    0 -0.17915421599E+02  0.14347746720E+02  0.66739938385E+01  0.23903187251E+02  0.00000000000E+00 0. -1.
         -2    1    1    2    0  502  0.17915421599E+02 -0.14347746720E+02 -0.48930198105E+02  0.54046132642E+02  0.00000000000E+00 0. -1.
</event>
<event>
 4    1  0.5465458E+003  0.2012696E+02  0.7546771E-02  0.1532104E+00
          2   -1    0    0  501    0  0.00000000000E+00  0.00000000000E+00  0.19143141193E+03  0.19143141193E+03  0.00000000000E+00 0. -1.
         -2   -1    0    0    0  501 -0.00000000000E+00 -0.00000000000E+00 -0.15867401246E+02  0.15867401246E+02  0.00000000000E+00 0. -1.
          2    1    1    2  502    0 -0.17214195685E+02 -0.10429095039E+02  0.18427266514E+03  0.18536857791E+03  0.00000000000E+00 0. -1.
         -2    1    1    2    0  502  0.17214195685E+02  0.10429095039E+02 -0.87086544587E+01  0.21930235268E+02  0.00000000000E+00 0. -1.
</event>
<event>
 4    1  0.5465458E+003  0.2465429E+02  0.7546771E-02  0.1472708E+00
          2   -1    0    0  501    0  0.00000000000E+00  0.00000000000E+00  0.39918727527E+02  0.39918727527E+02  0.00000000000E+00 0.  1.
         -2   -1    0    0    0  501 -0.00000000000E+00 -0.00000000000E+00 -0.52220608041E+03  0.52220608041E+03  0.00000000000E+00 0.  1.
          2    1    1    2  502    0 -0.23797624247E+02 -0.64425855947E+01  0.35790724045E+02  0.43460438983E+02  0.00000000000E+00 0.  1.
         -2    1    1    2    0  502  0.23797624247E+02  0.64425855947E+01 -0.51807807693E+03  0.51866436896E+03  0.00000000000E+00 0.  1.
</event>
<event>
 4    1  0.5465458E+003  0.2084221E+02  0.7546771E-02  0.1521530E+00
          2   -1    0    0  501    0  0.00000000000E+00  0.00000000000E+00  0.10622128152E+04  0.10622128152E+04  0.00000000000E+00 0.  1.
         -2   -1    0    0    0  501 -0.00000000000E+00 -0.00000000000E+00 -0.74345185850E+02  0.74345185850E+02  0.00000000000E+00 0.  1.
          2    1    1    2  502    0  0.19655787534E+02 -0.69316474122E+01  0.10606476750E+04  0.10608524347E+04  0.00000000000E+00 0.  1.
         -2    1    1    2    0  502 -0.19655787534E+02  0.69316474122E+01 -0.72780045692E+02  0.75705566311E+02  0.00000000000E+00 0.  1.
</event>
<event>
 4    1  0.5465458E+003  0.2283002E+02  0.7546771E-02  0.1494644E+00
          2   -1    0    0  501    0  0.00000000000E+00  0.00000000000E+00  0.49965311725E+02  0.49965311725E+02  0.00000000000E+00 0. -1.
         -2   -1    0    0    0  501 -0.00000000000E+00 -0.00000000000E+00 -0.34110982334E+02  0.34110982334E+02  0.00000000000E+00 0. -1.
          2    1    1    2  502    0  0.13296436034E+02 -0.18558409871E+02  0.42952570069E+02  0.48642913808E+02  0.00000000000E+00 0. -1.
         -2    1    1    2    0  502 -0.13296436034E+02  0.18558409871E+02 -0.27098240679E+02  0.35433380251E+02  0.00000000000E+00 0. -1.
</event>
<event>
 4    1  0.5465458E+003  0.4328997E+02  0.7546771E-02  0.1330215E+00
          2   -1    0    0  501    0  0.00000000000E+00  0.00000000000E+00  0.49160620064E+03  0.49160620064E+03  0.00000000000E+00 0.  1.
         -2   -1    0    0    0  501 -0.00000000000E+00 -0.00000000000E+00 -0.82760502502E+01  0.82760502502E+01  0.00000000000E+00 0.  1.
          2    1    1    2  502    0  0.43052756028E+02 -0.45256994183E+01  0.42522963062E+03  0.42742749153E+03  0.00000000000E+00 0.  1.
         -2    1    1    2    0  502 -0.43052756028E+02  0.45256994183E+01  0.58100519775E+02  0.72454759367E+02  0.00000000000E+00 0.  1.
</event>
<event>
 4    1  0.5465458E+003  0.2859992E+02  0.7546771E-02  0.1432166E+00
          2   -1    0    0  501    0  0.00000000000E+00  0.00000000000E+00  0.59166642236E+03  0.59166642236E+03  0.00000000000E+00 0. -1.
         -2   -1    0    0    0  501 -0.00000000000E+00 -0.00000000000E+00 -0.59861576296E+01  0.59861576296E+01  0.00000000000E+00 0.  1.
          2    1    1    2  502    0  0.23870050781E+02 -0.15753605779E+02  0.55489854371E+03  0.55563508639E+03  0.00000000000E+00 0. -1.
         -2    1    1    2    0  502 -0.23870050781E+02  0.15753605779E+02  0.30781721028E+02  0.42017493604E+02  0.00000000000E+00 0.  1.
</event>
<event>
 4    1  0.5465458E+003  0.3850134E+02  0.7546771E-02  0.1357499E+00
          2   -1    0    0  501    0  0.00000000000E+00  0.00000000000E+00  0.72247814996E+03  0.72247814996E+03  0.00000000000E+00 0. -1.
         -2   -1    0    0    0  501 -0.00000000000E+00 -0.00000000000E+00 -0.18195067316E+02  0.18195067316E+02  0.00000000000E+00 0. -1.
          2    1    1    2  502    0 -0.27111013518E+02  0.27337630471E+02  0.70097332159E+03  0.70202987876E+03  0.00000000000E+00 0. -1.
         -2    1    1    2    0  502  0.27111013518E+02 -0.27337630471E+02  0.33097610605E+01  0.38643338521E+02  0.00000000000E+00 0. -1.
</event>
<event>
 4    1  0.5465458E+003  0.2288120E+02  0.7546771E-02  0.1493995E+00
          2   -1    0    0  501    0  0.00000000000E+00  0.00000000000E+00  0.81263750409E+02  0.81263750409E+02  0.00000000000E+00 0.  1.
         -2   -1    0    0    0  501 -0.00000000000E+00 -0.00000000000E+00 -0.96827764669E+01  0.96827764669E+01  0.00000000000E+00 0.  1.
          2    1    1    2  502    0  0.12727939329E+02  0.19014443506E+02  0.62095636787E+02  0.66177168339E+02  0.00000000000E+00 0.  1.
         -2    1    1    2    0  502 -0.12727939329E+02 -0.19014443506E+02  0.94853371558E+01  0.24769358537E+02  0.00000000000E+00 0.  1.
</event>
<event>
 4    1  0.5465458E+003  0.2041359E+02  0.7546771E-02  0.1527804E+00
          2   -1    0    0  501    0  0.00000000000E+00  0.00000000000E+00  0.42613912481E+03  0.42613912481E+03  0.00000000000E+00 0. -1.
         -2   -1    0    0    0  501 -0.00000000000E+00 -0.00000000000E+00 -0.34352785060E+01  0.34352785060E+01  0.00000000000E+00 0.  1.
          2    1    1    2  502    0 -0.14994629508E+02  0.13851916974E+02  0.39301425683E+03  0.39354405166E+03  0.00000000000E+00 0. -1.
         -2    1    1    2    0  502  0.14994629508E+02 -0.13851916974E+02  0.29689589467E+02  0.36030351659E+02  0.00000000000E+00 0.  1.
</event>
<event>
 4    1  0.5465458E+003  0.2486193E+02  0.7546771E-02  0.1470354E+00
          2   -1    0    0  501    0  0.00000000000E+00  0.00000000000E+00  0.11620485117E+02  0.11620485117E+02  0.00000000000E+00 0. -1.
         -2   -1    0    0    0  501 -0.00000000000E+00 -0.00000000000E+00 -0.20559287002E+03  0.20559287002E+03  0.00000000000E+00 0. -1.
          2    1    1    2  502    0 -0.23754759092E+02  0.73366729378E+01 -0.34787001730E+01  0.25104117276E+02  0.00000000000E+00 0. -1.
         -2    1    1    2    0  502  0.23754759092E+02 -0.73366729378E+01 -0.19049368473E+03  0.19210923786E+03  0.00000000000E+00 0. -1.
</event>
<event>
 4    1  0.5465458E+003  0.3132525E+02  0.7546771E-02  0.1408419E+00
          2   -1    0    0  501    0  0.00000000000E+00  0.00000000000E+00  0.23994242590E+03  0.23994242590E+03  0.00000000000E+00 0.  1.
         -2   -1    0    0    0  501 -0.00000000000E+00 -0.00000000000E+00 -0.10383947423E+03  0.10383947423E+03  0.00000000000E+00 0. -1.
          2    1    1    2  502    0 -0.11666367765E+02 -0.29071763847E+02  0.23652354990E+03  0.23858889590E+03  0.00000000000E+00 0.  1.
         -2    1    1    2    0  502  0.11666367765E+02  0.29071763847E+02 -0.10042059823E+03  0.10519300423E+03  0.00000000000E+00 0. -1.
</event>
<event>
 4    1  0.5465458E+003  0.3134581E+02  0.7546771E-02  0.1408251E+00
          2   -1    0    0  501    0  0.00000000000E+00  0.00000000000E+00  0.41602197960E+02  0.41602197960E+02  0.00000000000E+00 0. -1.
         -2   -1    0    0    0  501 -0.00000000000E+00 -0.00000000000E+00 -0.27463782744E+02  0.27463782744E+02  0.00000000000E+00 0. -1.
          2    1    1    2  502    0  0.18968720877E+02  0.24954911806E+02  0.19991731849E+02  0.37178345004E+02  0.00000000000E+00 0. -1.
         -2    1    1    2    0  502 -0.18968720877E+02 -0.24954911806E+02 -0.58533166339E+01  0.31887635700E+02  0.00000000000E+00 0. -1.
</event>
<event>
 4    1  0.5465458E+003  0.4144740E+02  0.7546771E-02  0.1340207E+00
          2   -1    0    0  501    0  0.00000000000E+00  0.00000000000E+00  0.41253150599E+03  0.41253150599E+03  0.00000000000E+00 0.  1.
         -2   -1    0    0    0  501 -0.00000000000E+00 -0.00000000000E+00 -0.17616611945E+02  0.17616611945E+02  0.00000000000E+00 0.  1.
          2    1    1    2  502    0  0.38915935624E+02  0.14263142387E+02  0.38540037729E+03  0.38762267490E+03  0.00000000000E+00 0.  1.
         -2    1    1    2    0  502 -0.38915935624E+02 -0.14263142387E+02  0.95145167470E+01  0.42525443033E+02  0.00000000000E+00 0.  1.
</event>
<event>
 4    1  0.5465458E+003  0.2179205E+02  0.7546771E-02  0.1508250E+00
          2   -1    0    0  501    0  0.00000000000E+00  0.00000000000E+00  0.32139777793E+02  0.32139777793E+02  0.00000000000E+00 0. -1.
         -2   -1    0    0    0  501 -0.00000000000E+00 -0.00000000000E+00 -0.48885843857E+02  0.48885843857E+02  0.00000000000E+00 0.  1.
          2    1    1    2  502    0  0.45129783525E+01 -0.21319626895E+02  0.25467831900E+02  0.33518710092E+02  0.00000000000E+00 0. -1.
         -2    1    1    2    0  502 -0.45129783525E+01  0.21319626895E+02 -0.42213897963E+02  0.47506911558E+02  0.00000000000E+00 0.  1.
</event>
<event>
 4    1  0.5465458E+003  0.3920470E+02  0.7546771E-02  0.1353210E+00
          2   -1    0    0  501    0  0.00000000000E+00  0.00000000000E+00  0.25664185682E+03  0.25664185682E+03  0.00000000000E+00 0.  1.
         -2   -1    0    0    0  501 -0.00000000000E+00 -0.00000000000E+00 -0.61152907499E+02  0.61152907499E+02  0.00000000000E+00 0. -1.
          2    1    1    2  502    0 -0.35164323040E+02 -0.17334336020E+02  0.24866072052E+03  0.25173232361E+03  0.00000000000E+00 0.  1.
         -2    1    1    2    0  502  0.35164323040E+02  0.17334336020E+02 -0.53171771198E+02  0.66062440710E+02  0.00000000000E+00 0. -1.
</event>
<event>
 4    1  0.5465458E+003  0.3966046E+02  0.7546771E-02  0.1350487E+00
          2   -1    0    0  501    0  0.00000000000E+00  0.00000000000E+00  0.51007713658E+02  0.51007713658E+02  0.00000000000E+00 0.  1.
         -2   -1    0    0    0  501 -0.00000000000E+00 -0.00000000000E+00 -0.19071357377E+03  0.19071357377E+03  0.00000000000E+00 0.  1.
          2    1    1    2  502    0  0.26344273482E+02  0.29646781806E+02  0.40805825889E+02  0.56904023085E+02  0.00000000000E+00 0.  1.
         -2    1    1    2    0  502 -0.26344273482E+02 -0.29646781806E+02 -0.18051168600E+03  0.18481726434E+03  0.00000000000E+00 0.  1.
</event>
<event>
 4    1  0.5465458E+003  0.3661358E+02  0.7546771E-02  0.1369561E+00
          2   -1    0    0  501    0  0.00000000000E+00  0.00000000000E+00  0.16378299595E+04  0.16378299595E+04  0.00000000000E+00 0. -1.
         -2   -1    0    0    0  501 -0.00000000000E+00 -0.00000000000E+00 -0.11944153340E+01  0.11944153340E+01  0.00000000000E+00 0. -1.
          2    1    1    2  502    0  0.13086637911E+02 -0.34194940838E+02  0.12780724865E+04  0.12785968226E+04  0.00000000000E+00 0. -1.
         -2    1    1    2    0  502 -0.13086637911E+02  0.34194940838E+02  0.35856305768E+03  0.36042755223E+03  0.00000000000E+00 0. -1.
</event>
<event>
 4    1  0.5465458E+003  0.2584159E+02  0.7546771E-02  0.1459605E+00
          2   -1    0    0  501    0  0.00000000000E+00  0.00000000000E+00  0.17625060264E+02  0.17625060264E+02  0.00000000000E+00 0. -1.
         -2   -1    0    0    0  501 -0.00000000000E+00 -0.00000000000E+00 -0.67053155357E+03  0.67053155357E+03  0.00000000000E+00 0. -1.
          2    1    1    2  502    0 -0.17460707483E+02  0.19050233416E+02  0.77626039250E+01  0.26982322337E+02  0.00000000000E+00 0. -1.
         -2    1    1    2    0  502  0.17460707483E+02 -0.19050233416E+02 -0.66066909723E+03  0.66117429149E+03  0.00000000000E+00 0. -1.
</event>
<event>
 4    1  0.5465458E+003  0.2044544E+02  0.7546771E-02  0.1527332E+00
          2   -1    0    0  501    0  0.00000000000E+00  0.00000000000E+00  0.63998079866E+03  0.63998079866E+03  0.00000000000E+00 0. -1.
         -2   -1    0    0    0  501 -0.00000000000E+00 -0.00000000000E+00 -0.29716582768E+01  0.29716582768E+01  0.00000000000E+00 0.  1.
          2    1    1    2  502    0 -0.25307666125E+01  0.20288200688E+02  0.60246115269E+03  0.60280797637E+03  0.00000000000E+00 0. -1.
         -2    1    1    2    0  502  0.25307666125E+01 -0.20288200688E+02  0.34547987689E+02  0.40144480569E+02  0.00000000000E+00 0.  1.
</event>
<event>
 4    1  0.5465458E+003  0.2765538E+02  0.7546771E-02  0.1441133E+00
          2   -1    0    0  501    0  0.00000000000E+00  0.00000000000E+00  0.66360195947E+03  0.66360195947E+03  0.00000000000E+00 0.  1.
         -2   -1    0    0    0  501 -0.00000000000E+00 -0.00000000000E+00 -0.18518609682E+02  0.18518609682E+02  0.00000000000E+00 0. -1.
          2    1    1    2  502    0  0.63609531206E+01 -0.26913908560E+02  0.65281832723E+03  0.65340384799E+03  0.00000000000E+00 0.  1.
         -2    1    1    2    0  502 -0.63609531206E+01  0.26913908560E+02 -0.77349774381E+01  0.28716721167E+02  0.00000000000E+00 0. -1.
</event>
<event>
 4    1  0.5465458E+003  0.3412099E+02  0.7546771E-02  0.1386850E+00
          2   -1    0    0  501    0  0.00000000000E+00  0.00000000000E+00  0.24596695308E+03  0.24596695308E+03  0.00000000000E+00 0. -1.
         -2   -1    0    0    0  501 -0.00000000000E+00 -0.00000000000E+00 -0.47587337738E+01  0.47587337738E+01  0.00000000000E+00 0.  1.
          2    1    1    2  502    0 -0.11979662750E+02  0.31948860996E+02  0.12976414709E+03  0.13417516875E+03  0.00000000000E+00 0. -1.
         -2    1    1    2    0  502  0.11979662750E+02 -0.31948860996E+02  0.11144407222E+03  0.11655051810E+03  0.00000000000E+00 0.  1.
</event>
<event>
 4    1  0.5465458E+003  0.9425356E+02  0.7546771E-02  0.1174156E+00
          2   -1    0    0  501    0  0.00000000000E+00  0.00000000000E+00  0.13658645050E+04  0.13658645050E+04  0.00000000000E+00 0.  1.
         -2   -1    0    0    0  501 -0.00000000000E+00 -0.00000000000E+00 -0.82025161321E+01  0.82025161321E+01  0.00000000000E+00 0.  1.
          2    1    1    2  502    0 -0.70517501830E+02 -0.62538111941E+02  0.99145699852E+03  0.99592706230E+03  0.00000000000E+00 0.  1.
         -2    1    1    2    0  502  0.70517501830E+02  0.62538111941E+02  0.36620499037E+03  0.37813995885E+03  0.00000000000E+00 0.  1.
</event>
<event>
 4    1  0.5465458E+003  0.2413035E+02  0.7546771E-02  0.1478772E+00
          2   -1    0    0  501    0  0.00000000000E+00  0.00000000000E+00  0.18802799945E+04  0.18802799945E+04  0.00000000000E+00 0.  1.
         -2   -1    0    0    0  501 -0.00000000000E+00 -0.00000000000E+00 -0.62394911023E+00  0.62394911023E+00  0.00000000000E+00 0. -1.
          2    1    1    2  502    0  0.24075526997E+02 -0.16256505774E+01  0.16072754481E+04  0.16074565748E+04  0.00000000000E+00 0.  1.
         -2    1    1    2    0  502 -0.24075526997E+02  0.16256505774E+01  0.27238059729E+03  0.27344736883E+03  0.00000000000E+00 0. -1.
</event>
<event>
 4    1  0.5465458E+003  0.4010289E+02  0.7546771E-02  0.1347884E+00
          2   -1    0    0  501    0  0.00000000000E+00  0.00000000000E+00  0.18304133251E+03  0.18304133251E+03  0.00000000000E+00 0. -1.
         -2   -1    0    0    0  501 -0.00000000000E+00 -0.00000000000E+00 -0.13433955308E+03  0.13433955308E+03  0.00000000000E+00 0.  1.
          2    1    1    2  502    0 -0.37844628885E+02  0.13267467826E+02  0.17776416555E+03  0.18223155652E+03  0.00000000000E+00 0. -1.
         -2    1    1    2    0  502  0.37844628885E+02 -0.13267467826E+02 -0.12906238611E+03  0.13514932907E+03  0.00000000000E+00 0.  1.
</event>
<event>
 4    1  0.5465458E+003  0.2047971E+02  0.7546771E-02  0.1526824E+00
          2   -1    0    0  501    0  0.00000000000E+00  0.00000000000E+00  0.64886226581E+03  0.64886226581E+03  0.00000000000E+00 0. -1.
         -2   -1    0    0    0  501 -0.00000000000E+00 -0.00000000000E+00 -0.17054304275E+02  0.17054304275E+02  0.00000000000E+00 0.  1.
          2    1    1    2  502    0  0.72867378431E+00 -0.20466747078E+02  0.64249143609E+03  0.64281775345E+03  0.00000000000E+00 0. -1.
         -2    1    1    2    0  502 -0.72867378431E+00  0.20466747078E+02 -0.10683474554E+02  0.23098816636E+02  0.00000000000E+00 0.  1.
</event>
<event>
 4    1  0.5465458E+003  0.2108732E+02  0.7546771E-02  0.1518022E+00
          2   -1    0    0  501    0  0.00000000000E+00  0.00000000000E+00  0.46341284109E+03  0.46341284109E+03  0.00000000000E+00 0.  1.
         -2   -1    0    0    0  501 -0.00000000000E+00 -0.00000000000E+00 -0.25143227657E+01  0.25143227657E+01  0.00000000000E+00 0.  1.
          2    1    1    2  502    0 -0.16883449248E+02 -0.12634249315E+02  0.41364221780E+03  0.41417938078E+03  0.00000000000E+00 0.  1.
         -2    1    1    2    0  502  0.16883449248E+02  0.12634249315E+02  0.47256300518E+02  0.51747783073E+02  0.00000000000E+00 0.  1.
</event>
<event>
 4    1  0.5465458E+003  0.2277663E+02  0.7546771E-02  0.1495322E+00
          2   -1    0    0  501    0  0.00000000000E+00  0.00000000000E+00  0.10289549248E+04  0.10289549248E+04  0.00000000000E+00 0. -1.
         -2   -1    0    0    0  501 -0.00000000000E+00 -0.00000000000E+00 -0.22971407108E+01  0.22971407108E+01  0.00000000000E+00 0.  1.
          2    1    1    2  502    0  0.83503247533E+00  0.22761318375E+02  0.96886923742E+03  0.96913692227E+03  0.00000000000E+00 0. -1.
         -2    1    1    2    0  502 -0.83503247533E+00 -0.22761318375E+02  0.57788546676E+02  0.62115143245E+02  0.00000000000E+00 0.  1.
</event>
<event>
 4    1  0.5465458E+003  0.2507708E+02  0.7546771E-02  0.1467943E+00
          2   -1    0    0  501    0  0.00000000000E+00  0.00000000000E+00  0.34151889585E+02  0.34151889585E+02  0.00000000000E+00 0.  1.
         -2   -1    0    0    0  501 -0.00000000000E+00 -0.00000000000E+00 -0.79469309306E+02  0.79469309306E+02  0.00000000000E+00 0. -1.
          2    1    1    2  502    0 -0.23561456756E+02 -0.85859023986E+01  0.27137090490E+02  0.36949717789E+02  0.00000000000E+00 0.  1.
         -2    1    1    2    0  502  0.23561456756E+02  0.85859023986E+01 -0.72454510211E+02  0.76671481102E+02  0.00000000000E+00 0. -1.
</event>
<event>
 4    1  0.5465458E+003  0.4067071E+02  0.7546771E-02  0.1344600E+00
          2   -1    0    0  501    0  0.00000000000E+00  0.00000000000E+00  0.12711733597E+03  0.12711733597E+03  0.00000000000E+00 0. -1.
         -2   -1    0    0    0  501 -0.00000000000E+00 -0.00000000000E+00 -0.14093788381E+02  0.14093788381E+02  0.00000000000E+00 0. -1.
          2    1    1    2  502    0 -0.22483177748E+02  0.33891194681E+02  0.76069051838E+02  0.86258953193E+02  0.00000000000E+00 0. -1.
         -2    1    1    2    0  502  0.22483177748E+02 -0.33891194681E+02  0.36954495750E+02  0.54952171156E+02  0.00000000000E+00 0. -1.
</event>
<event>
 4    1  0.5465458E+003  0.2302561E+02  0.7546771E-02  0.1492177E+00
          2   -1    0    0  501    0  0.00000000000E+00  0.00000000000E+00  0.10384662179E+04  0.10384662179E+04  0.00000000000E+00 0. -1.
         -2   -1    0    0    0  501 -0.00000000000E+00 -0.00000000000E+00 -0.37330582994E+01  0.37330582994E+01  0.00000000000E+00 0.  1.
          2    1    1    2  502    0 -0.48671055237E+01 -0.22505334277E+02  0.10015234129E+04  0.10017880641E+04  0.00000000000E+00 0. -1.
         -2    1    1    2    0  502  0.48671055237E+01  0.22505334277E+02  0.33209746682E+02  0.40411212080E+02  0.00000000000E+00 0.  1.
</event>
<event>
 4    1  0.5465458E+003  0.2451784E+02  0.7546771E-02  0.1474270E+00
          2   -1    0    0  501    0  0.00000000000E+00  0.00000000000E+00  0.68042395111E+03  0.68042395111E+03  0.00000000000E+00 0.  1.
         -2   -1    0    0    0  501 -0.00000000000E+00 -0.00000000000E+00 -0.29304488615E+01  0.29304488615E+01  0.00000000000E+00 0.  1.
          2    1    1    2  502    0 -0.17547981521E+02  0.17122875390E+02  0.62431315096E+03  0.62479439416E+03  0.00000000000E+00 0.  1.
         -2    1    1    2    0  502  0.17547981521E+02 -0.17122875390E+02  0.53180351293E+02  0.58560005812E+02  0.00000000000E+00 0.  1.
</event>
<event>
 4    1  0.5465458E+003  0.2049077E+02  0.7546771E-02  0.1526661E+00
          2   -1    0    0  501    0  0.00000000000E+00  0.00000000000E+00  0.51807073784E+02  0.51807073784E+02  0.00000000000E+00 0. -1.
         -2   -1    0    0    0  501 -0.00000000000E+00 -0.00000000000E+00 -0.11906143038E+02  0.11906143038E+02  0.00000000000E+00 0. -1.
          2    1    1    2  502    0 -0.41904371059E+01  0.20057711687E+02  0.37951539040E+02  0.43129930173E+02  0.00000000000E+00 0. -1.
         -2    1    1    2    0  502  0.41904371059E+01 -0.20057711687E+02  0.19493917059E+01  0.20583286649E+02  0.00000000000E+00 0. -1.
</event>
<event>
 4    1  0.5465458E+003  0.2189348E+02  0.7546771E-02  0.1506881E+00
          2   -1    0    0  501    0  0.00000000000E+00  0.00000000000E+00  0.42147608912E+03  0.42147608912E+03  0.00000000000E+00 0. -1.
         -2   -1    0    0    0  501 -0.00000000000E+00 -0.00000000000E+00 -0.25773548259E+01  0.25773548259E+01  0.00000000000E+00 0.  1.
          2    1    1    2  502    0  0.20935761034E+02  0.64045528875E+01  0.36793879347E+03  0.36858958223E+03  0.00000000000E+00 0. -1.
         -2    1    1    2    0  502 -0.20935761034E+02 -0.64045528875E+01  0.50959940824E+02  0.55463861717E+02  0.00000000000E+00 0.  1.
</event>
<event>
 4    1  0.5465458E+003  0.3512945E+02  0.7546771E-02  0.1379655E+00
          2   -1    0    0  501    0  0.00000000000E+00  0.00000000000E+00  0.31567199153E+03  0.31567199153E+03  0.00000000000E+00 0.  1.
         -2   -1    0    0    0  501 -0.00000000000E+00 -0.00000000000E+00 -0.79833509689E+02  0.79833509689E+02  0.00000000000E+00 0.  1.
          2    1    1    2  502    0 -0.34779025385E+02 -0.49494801535E+01  0.31076934050E+03  0.31274855868E+03  0.00000000000E+00 0.  1.
         -2    1    1    2    0  502  0.34779025385E+02  0.49494801535E+01 -0.74930858655E+02  0.82756942544E+02  0.00000000000E+00 0.  1.
</event>
<event>
 4    1  0.5465458E+003  0.2217508E+02  0.7546771E-02  0.1503125E+00
          2   -1    0    0  501    0  0.00000000000E+00  0.00000000000E+00  0.33363381826E+02  0.33363381826E+02  0.00000000000E+00 0. -1.
         -2   -1    0    0    0  501 -0.00000000000E+00 -0.00000000000E+00 -0.43801767200E+02  0.43801767200E+02  0.00000000000E+00 0. -1.
          2    1    1    2  502    0 -0.11796795833E+02  0.18776846517E+02  0.26208737416E+02  0.34331214281E+02  0.00000000000E+00 0. -1.
         -2    1    1    2    0  502  0.11796795833E+02 -0.18776846517E+02 -0.36647122790E+02  0.42833934746E+02  0.00000000000E+00 0. -1.
</event>
<event>
 4    1  0.5465458E+003  0.3982584E+02  0.7546771E-02  0.1349509E+00
          2   -1    0    0  501    0  0.00000000000E+00  0.00000000000E+00  0.60991357031E+03  0.60991357031E+03  0.00000000000E+00 0.  1.
         -2   -1    0    0    0  501 -0.00000000000E+00 -0.00000000000E+00 -0.22711194466E+02  0.22711194466E+02  0.00000000000E+00 0.  1.
          2    1    1    2  502    0 -0.35858799441E+02 -0.17327540084E+02  0.59125362306E+03  0.59259340524E+03  0.00000000000E+00 0.  1.
         -2    1    1    2    0  502  0.35858799441E+02  0.17327540084E+02 -0.40512472183E+01  0.40031359542E+02  0.00000000000E+00 0.  1.
</event>
<event>
 4    1  0.5465458E+003  0.3026991E+02  0.7546771E-02  0.1417265E+00
          2   -1    0    0  501    0  0.00000000000E+00  0.00000000000E+00  0.13291662889E+04  0.13291662889E+04  0.00000000000E+00 0.  1.
         -2   -1    0    0    0  501 -0.00000000000E+00 -0.00000000000E+00 -0.13832030192E+02  0.13832030192E+02  0.00000000000E+00 0. -1.
          2    1    1    2  502    0 -0.28554156934E+01  0.30134928150E+02  0.13122194974E+04  0.13125685798E+04  0.00000000000E+00 0.  1.
         -2    1    1    2    0  502  0.28554156934E+01 -0.30134928150E+02  0.31147612595E+01  0.30429739254E+02  0.00000000000E+00 0. -1.
</event>
<event>
 4    1  0.5465458E+003  0.7104602E+02  0.7546771E-02  0.1226315E+00
          2   -1    0    0  501    0  0.00000000000E+00  0.00000000000E+00  0.21183662181E+04  0.21183662181E+04  0.00000000000E+00 0. -1.
         -2   -1    0    0    0  501 -0.00000000000E+00 -0.00000000000E+00 -0.42966138669E+02  0.42966138669E+02  0.00000000000E+00 0. -1.
          2    1    1    2  502    0  0.40523029226E+02  0.58355986414E+02  0.20879738850E+04  0.20891822519E+04  0.00000000000E+00 0. -1.
         -2    1    1    2    0  502 -0.40523029226E+02 -0.58355986414E+02 -0.12573805591E+02  0.72150104886E+02  0.00000000000E+00 0. -1.
</event>
<event>
 4    1  0.5465458E+003  0.2375002E+02  0.7546771E-02  0.1483289E+00
          2   -1    0    0  501    0  0.00000000000E+00  0.00000000000E+00  0.76661494683E+03  0.76661494683E+03  0.00000000000E+00 0.  1.
         -2   -1    0    0    0  501 -0.00000000000E+00 -0.00000000000E+00 -0.18054719205E+01  0.18054719205E+01  0.00000000000E+00 0.  1.
          2    1    1    2  502    0 -0.17857633967E+02 -0.15657845422E+02  0.67813925939E+03  0.67855502234E+03  0.00000000000E+00 0.  1.
         -2    1    1    2    0  502  0.17857633967E+02  0.15657845422E+02  0.86670215518E+02  0.89865396411E+02  0.00000000000E+00 0.  1.
</event>
<event>
 4    1  0.5465458E+003  0.3746977E+02  0.7546771E-02  0.1363987E+00
          2   -1    0    0  501    0  0.00000000000E+00  0.00000000000E+00  0.11585829314E+03  0.11585829314E+03  0.00000000000E+00 0. -1.
         -2   -1    0    0    0  501 -0.00000000000E+00 -0.00000000000E+00 -0.15189048320E+02  0.15189048320E+02  0.00000000000E+00 0. -1.
          2    1    1    2  502    0 -0.36454334522E+02  0.86640029921E+01  0.79797050636E+02  0.88156410677E+02  0.00000000000E+00 0. -1.
         -2    1    1    2    0  502  0.36454334522E+02 -0.86640029921E+01  0.20872194182E+02  0.42890930781E+02  0.00000000000E+00 0. -1.
</event>
<event>
 4    1  0.5465458E+003  0.6474236E+02  0.7546771E-02  0.1244518E+00
          2   -1    0    0  501    0  0.00000000000E+00  0.00000000000E+00  0.11122195098E+03  0.11122195098E+03  0.00000000000E+00 0.  1.
         -2   -1    0    0    0  501 -0.00000000000E+00 -0.00000000000E+00 -0.53609202455E+02  0.53609202455E+02  0.00000000000E+00 0.  1.
          2    1    1    2  502    0 -0.63959144341E+02  0.10039988140E+02  0.73721963871E+02  0.98114736221E+02  0.00000000000E+00 0.  1.
         -2    1    1    2    0  502  0.63959144341E+02 -0.10039988140E+02 -0.16109215347E+02  0.66716417213E+02  0.00000000000E+00 0.  1.
</event>
<event>
 4    1  0.5465458E+003  0.4409578E+02  0.7546771E-02  0.1326023E+00
          2   -1    0    0  501    0  0.00000000000E+00  0.00000000000E+00  0.17709257030E+02  0.17709257030E+02  0.00000000000E+00 0.  1.
         -2   -1    0    0    0  501 -0.00000000000E+00 -0.00000000000E+00 -0.69826630992E+03  0.69826630992E+03  0.00000000000E+00 0. -1.
          2    1    1    2  502    0  0.41018935511E+02  0.16182847742E+02 -0.11639396274E+02  0.45606065135E+02  0.00000000000E+00 0.  1.
         -2    1    1    2    0  502 -0.41018935511E+02 -0.16182847742E+02 -0.66891765662E+03  0.67036950182E+03  0.00000000000E+00 0. -1.
</event>
<event>
 4    1  0.5465458E+003  0.2204936E+02  0.7546771E-02  0.1504793E+00
          2   -1    0    0  501    0  0.00000000000E+00  0.00000000000E+00  0.11099823685E+04  0.11099823685E+04  0.00000000000E+00 0. -1.
         -2   -1    0    0    0  501 -0.00000000000E+00 -0.00000000000E+00 -0.12203336307E+01  0.12203336307E+01  0.00000000000E+00 0. -1.
          2    1    1    2  502    0 -0.18090820927E+02  0.12605412552E+02  0.99923708198E+03  0.99948032508E+03  0.00000000000E+00 0. -1.
         -2    1    1    2    0  502  0.18090820927E+02 -0.12605412552E+02  0.10952495289E+03  0.11172237704E+03  0.00000000000E+00 0. -1.
</event>
<event>
 4    1  0.5465458E+003  0.2439858E+02  0.7546771E-02  0.1475645E+00
          2   -1    0    0  501    0  0.00000000000E+00  0.00000000000E+00  0.87110087834E+03  0.87110087834E+03  0.00000000000E+00 0.  1.
         -2   -1    0    0    0  501 -0.00000000000E+00 -0.00000000000E+00 -0.88829718011E+00  0.88829718011E+00  0.00000000000E+00 0.  1.
          2    1    1    2  502    0 -0.94046673260E+01  0.22513168815E+02  0.64451466133E+03  0.64497630903E+03  0.00000000000E+00 0.  1.
         -2    1    1    2    0  502  0.94046673260E+01 -0.22513168815E+02  0.22569791983E+03  0.22701286650E+03  0.00000000000E+00 0.  1.
</event>
<event>
 4    1  0.5465458E+003  0.2195723E+02  0.7546771E-02  0.1506024E+00
          2   -1    0    0  501    0  0.00000000000E+00  0.00000000000E+00  0.36349145238E+03  0.36349145238E+03  0.00000000000E+00 0. -1.
         -2   -1    0    0    0  501 -0.00000000000E+00 -0.00000000000E+00 -0.11802752342E+03  0.11802752342E+03  0.00000000000E+00 0. -1.
          2    1    1    2  502    0  0.21224889197E+02  0.56235069029E+01  0.36213483888E+03  0.36279989151E+03  0.00000000000E+00 0. -1.
         -2    1    1    2    0  502 -0.21224889197E+02 -0.56235069029E+01 -0.11667090992E+03  0.11871908428E+03  0.00000000000E+00 0. -1.
</event>
<event>
 4    1  0.5465458E+003  0.2042973E+02  0.7546771E-02  0.1527565E+00
          2   -1    0    0  501    0  0.00000000000E+00  0.00000000000E+00  0.93641569463E+01  0.93641569463E+01  0.00000000000E+00 0. -1.
         -2   -1    0    0    0  501 -0.00000000000E+00 -0.00000000000E+00 -0.72508524016E+03  0.72508524016E+03  0.00000000000E+00 0.  1.
          2    1    1    2  502    0  0.14710711811E+02 -0.14176354174E+02 -0.21016072309E+01  0.20537546412E+02  0.00000000000E+00 0. -1.
         -2    1    1    2    0  502 -0.14710711811E+02  0.14176354174E+02 -0.71361947599E+03  0.71391185070E+03  0.00000000000E+00 0.  1.
</event>
<event>
 4    1  0.5465458E+003  0.2924935E+02  0.7546771E-02  0.1426234E+00
          2   -1    0    0  501    0  0.00000000000E+00  0.00000000000E+00  0.25271967952E+02  0.25271967952E+02  0.00000000000E+00 0.  1.
         -2   -1    0    0    0  501 -0.00000000000E+00 -0.00000000000E+00 -0.23934538752E+03  0.23934538752E+03  0.00000000000E+00 0.  1.
          2    1    1    2  502    0 -0.78695695752E+01 -0.28170807671E+02  0.15558634172E+02  0.33129980794E+02  0.00000000000E+00 0.  1.
         -2    1    1    2    0  502  0.78695695752E+01  0.28170807671E+02 -0.22963205374E+03  0.23148737468E+03  0.00000000000E+00 0.  1.
</event>
<event>
 4    1  0.5465458E+003  0.2129540E+02  0.7546771E-02  0.1515089E+00
          2   -1    0    0  501    0  0.00000000000E+00  0.00000000000E+00  0.13387600143E+04  0.13387600143E+04  0.00000000000E+00 0. -1.
         -2   -1    0    0    0  501 -0.00000000000E+00 -0.00000000000E+00 -0.36073532237E+00  0.36073532237E+00  0.00000000000E+00 0. -1.
          2    1    1    2  502    0 -0.21284196801E+02 -0.69057545998E+00  0.83452640358E+03  0.83479806673E+03  0.00000000000E+00 0. -1.
         -2    1    1    2    0  502  0.21284196801E+02  0.69057545998E+00  0.50387287536E+03  0.50432268286E+03  0.00000000000E+00 0. -1.
</event>
<event>
 4    1  0.5465458E+003  0.3850236E+02  0.7546771E-02  0.1357493E+00
          2   -1    0    0  501    0  0.00000000000E+00  0.00000000000E+00  0.10882534826E+04  0.10882534826E+04  0.00000000000E+00 0. -1.
         -2   -1    0    0    0  501 -0.00000000000E+00 -0.00000000000E+00 -0.36337211899E+01  0.36337211899E+01  0.00000000000E+00 0.  1.
          2    1    1    2  502    0  0.37863263148E+02  0.69860829716E+01  0.97395737121E+03  0.97471810950E+03  0.00000000000E+00 0. -1.
         -2    1    1    2    0  502 -0.37863263148E+02 -0.69860829716E+01  0.11066239015E+03  0.11716909424E+03  0.00000000000E+00 0.  1.
</event>
<event>
 4    1  0.5465458E+003  0.2025354E+02  0.7546771E-02  0.1530195E+00
          2   -1    0    0  501    0  0.00000000000E+00  0.00000000000E+00  0.57557648193E+03  0.57557648193E+03  0.00000000000E+00 0. -1.
         -2   -1    0    0    0  501 -0.00000000000E+00 -0.00000000000E+00 -0.21938683846E+01  0.21938683846E+01  0.00000000000E+00 0.  1.
          2    1    1    2  502    0 -0.12844048404E+02 -0.15660026566E+02  0.52406033886E+03  0.52445156571E+03  0.00000000000E+00 0. -1.
         -2    1    1    2    0  502  0.12844048404E+02  0.15660026566E+02  0.49322274692E+02  0.53318784609E+02  0.00000000000E+00 0.  1.
</event>
<event>
 4    1  0.5465458E+003  0.2434680E+02  0.7546771E-02  0.1476245E+00
          2   -1    0    0  501    0  0.00000000000E+00  0.00000000000E+00  0.10156603279E+02  0.10156603279E+02  0.00000000000E+00 0. -1.
         -2   -1    0    0    0  501 -0.00000000000E+00 -0.00000000000E+00 -0.15402567389E+04  0.15402567389E+04  0.00000000000E+00 0.  1.
          2    1    1    2  502    0  0.70335553868E+01  0.23308706090E+02 -0.46721084926E+01  0.24791032224E+02  0.00000000000E+00 0. -1.
         -2    1    1    2    0  502 -0.70335553868E+01 -0.23308706090E+02 -0.15254280271E+04  0.15256223099E+04  0.00000000000E+00 0.  1.
</event>
<event>
 4    1  0.5465458E+003  0.2390366E+02  0.7546771E-02  0.1481452E+00
          2   -1    0    0  501    0  0.00000000000E+00  0.00000000000E+00  0.62451602818E+03  0.62451602818E+03  0.00000000000E+00 0. -1.
         -2   -1    0    0    0  501 -0.00000000000E+00 -0.00000000000E+00 -0.16782406203E+01  0.16782406203E+01  0.00000000000E+00 0. -1.
          2    1    1    2  502    0 -0.50151764608E+01  0.23371629735E+02  0.52257525524E+03  0.52312167080E+03  0.00000000000E+00 0. -1.
         -2    1    1    2    0  502  0.50151764608E+01 -0.23371629735E+02  0.10026253233E+03  0.10307259801E+03  0.00000000000E+00 0. -1.
</event>
<event>
 4    1  0.5465458E+003  0.2288302E+02  0.7546771E-02  0.1493972E+00
          2   -1    0    0  501    0  0.00000000000E+00  0.00000000000E+00  0.43149664658E+02  0.43149664658E+02  0.00000000000E+00 0. -1.
         -2   -1    0    0    0  501 -0.00000000000E+00 -0.00000000000E+00 -0.18561423040E+02  0.18561423040E+02  0.00000000000E+00 0. -1.
          2    1    1    2  502    0  0.15990471468E+02  0.16368800245E+02  0.30449408200E+02  0.38089358867E+02  0.00000000000E+00 0. -1.
         -2    1    1    2    0  502 -0.15990471468E+02 -0.16368800245E+02 -0.58611665816E+01  0.23621728830E+02  0.00000000000E+00 0. -1.
</event>
<event>
 4    1  0.5465458E+003  0.2080948E+02  0.7546771E-02  0.1522002E+00
          2   -1    0    0  501    0  0.00000000000E+00  0.00000000000E+00  0.11076346567E+03  0.11076346567E+03  0.00000000000E+00 0. -1.
         -2   -1    0    0    0  501 -0.00000000000E+00 -0.00000000000E+00 -0.12764790962E+02  0.12764790962E+02  0.00000000000E+00 0. -1.
          2    1    1    2  502    0 -0.16918989727E+02  0.12115375360E+02  0.10044275651E+03  0.10257573723E+03  0.00000000000E+00 0. -1.
         -2    1    1    2    0  502  0.16918989727E+02 -0.12115375360E+02 -0.24440817994E+01  0.20952519403E+02  0.00000000000E+00 0. -1.
</event>
<event>
 4    1  0.5465458E+003  0.2231501E+02  0.7546771E-02  0.1501284E+00
          2   -1    0    0  501    0  0.00000000000E+00  0.00000000000E+00  0.18819179169E+03  0.18819179169E+03  0.00000000000E+00 0. -1.
         -2   -1    0    0    0  501 -0.00000000000E+00 -0.00000000000E+00 -0.73646517458E+01  0.73646517458E+01  0.00000000000E+00 0. -1.
          2    1    1    2  502    0 -0.21621005642E+02  0.55219206163E+01  0.16867972685E+03  0.17014937479E+03  0.00000000000E+00 0. -1.
         -2    1    1    2    0  502  0.21621005642E+02 -0.55219206163E+01  0.12147413099E+02  0.25407068647E+02  0.00000000000E+00 0. -1.
</event>
<event>
 4    1  0.5465458E+003  0.3221360E+02  0.7546771E-02  0.1401287E+00
          2   -1    0    0  501    0  0.00000000000E+00  0.00000000000E+00  0.13021734994E+02  0.13021734994E+02  0.00000000000E+00 0.  1.
         -2   -1    0    0    0  501 -0.00000000000E+00 -0.00000000000E+00 -0.24433056575E+03  0.24433056575E+03  0.00000000000E+00 0.  1.
          2    1    1    2  502    0  0.12967889617E+02 -0.29488134399E+02 -0.10027122612E+02  0.33738100411E+02  0.00000000000E+00 0.  1.
         -2    1    1    2    0  502 -0.12967889617E+02  0.29488134399E+02 -0.22128170815E+03  0.22361420034E+03  0.00000000000E+00 0.  1.
</event>
<event>
 4    1  0.5465458E+003  0.2125136E+02  0.7546771E-02  0.1515706E+00
          2   -1    0    0  501    0  0.00000000000E+00  0.00000000000E+00  0.69102722902E+02  0.69102722902E+02  0.00000000000E+00 0.  1.
         -2   -1    0    0    0  501 -0.00000000000E+00 -0.00000000000E+00 -0.90442729998E+03  0.90442729998E+03  0.00000000000E+00 0. -1.
          2    1    1    2  502    0 -0.20039437525E+02  0.70739825689E+01  0.67340825257E+02  0.70614495905E+02  0.00000000000E+00 0.  1.
         -2    1    1    2    0  502  0.20039437525E+02 -0.70739825689E+01 -0.90266540233E+03  0.90291552698E+03  0.00000000000E+00 0. -1.
</event>
<event>
 4    1  0.5465458E+003  0.2014186E+02  0.7546771E-02  0.1531878E+00
          2   -1    0    0  501    0  0.00000000000E+00  0.00000000000E+00  0.84761531382E+02  0.84761531382E+02  0.00000000000E+00 0.  1.
         -2   -1    0    0    0  501 -0.00000000000E+00 -0.00000000000E+00 -0.10315179758E+03  0.10315179758E+03  0.00000000000E+00 0. -1.
          2    1    1    2  502    0 -0.33337167209E+01  0.19864063617E+02  0.82555817392E+02  0.84977395087E+02  0.00000000000E+00 0.  1.
         -2    1    1    2    0  502  0.33337167209E+01 -0.19864063617E+02 -0.10094608359E+03  0.10293593388E+03  0.00000000000E+00 0. -1.
</event>
<event>
 4    1  0.5465458E+003  0.2033670E+02  0.7546771E-02  0.1528949E+00
          2   -1    0    0  501    0  0.00000000000E+00  0.00000000000E+00  0.55334652761E+02  0.55334652761E+02  0.00000000000E+00 0.  1.
         -2   -1    0    0    0  501 -0.00000000000E+00 -0.00000000000E+00 -0.97970707200E+01  0.97970707200E+01  0.00000000000E+00 0.  1.
          2    1    1    2  502    0 -0.20259529739E+02 -0.17699541531E+01  0.38626068526E+02  0.43652656881E+02  0.00000000000E+00 0.  1.
         -2    1    1    2    0  502  0.20259529739E+02  0.17699541531E+01  0.69115135144E+01  0.21479066600E+02  0.00000000000E+00 0.  1.
</event>
<event>
 4    1  0.5465458E+003  0.2172131E+02  0.7546771E-02  0.1509211E+00
          2   -1    0    0  501    0  0.00000000000E+00  0.00000000000E+00  0.53833857004E+03  0.53833857004E+03  0.00000000000E+00 0. -1.
         -2   -1    0    0    0  501 -0.00000000000E+00 -0.00000000000E+00 -0.49428137906E+01  0.49428137906E+01  0.00000000000E+00 0.  1.
          2    1    1    2  502    0  0.54626659295E+01  0.21023193901E+02  0.51308156664E+03  0.51354114677E+03  0.00000000000E+00 0. -1.
         -2    1    1    2    0  502 -0.54626659295E+01 -0.21023193901E+02  0.20314189608E+02  0.29740237058E+02  0.00000000000E+00 0.  1.
</event>
<event>
 4    1  0.5465458E+003  0.2944695E+02  0.7546771E-02  0.1424464E+00
          2   -1    0    0  501    0  0.00000000000E+00  0.00000000000E+00  0.13016477615E+01  0.13016477615E+01  0.00000000000E+00 0. -1.
         -2   -1    0    0    0  501 -0.00000000000E+00 -0.00000000000E+00 -0.70578727981E+03  0.70578727981E+03  0.00000000000E+00 0. -1.
          2    1    1    2  502    0  0.15198443868E+02 -0.25221622118E+02 -0.26848378489E+03  0.27009380901E+03  0.00000000000E+00 0. -1.
         -2    1    1    2    0  502 -0.15198443868E+02  0.25221622118E+02 -0.43600184716E+03  0.43699511856E+03  0.00000000000E+00 0. -1.
</event>
<event>
 4    1  0.5465458E+003  0.2824078E+02  0.7546771E-02  0.1435527E+00
          2   -1    0    0  501    0  0.00000000000E+00  0.00000000000E+00  0.42953065766E+03  0.42953065766E+03  0.00000000000E+00 0.  1.
         -2   -1    0    0    0  501 -0.00000000000E+00 -0.00000000000E+00 -0.15071212531E+02  0.15071212531E+02  0.00000000000E+00 0.  1.
          2    1    1    2  502    0  0.18362083078E+02  0.21456368013E+02  0.41538696798E+03  0.41634585982E+03  0.00000000000E+00 0.  1.
         -2    1    1    2    0  502 -0.18362083078E+02 -0.21456368013E+02 -0.92752285305E+00  0.28256010368E+02  0.00000000000E+00 0.  1.
</event>
<event>
 4    1  0.5465458E+003  0.2004534E+02  0.7546771E-02  0.1533344E+00
          2   -1    0    0  501    0  0.00000000000E+00  0.00000000000E+00  0.10928508418E+03  0.10928508418E+03  0.00000000000E+00 0. -1.
         -2   -1    0    0    0  501 -0.00000000000E+00 -0.00000000000E+00 -0.12911408683E+02  0.12911408683E+02  0.00000000000E+00 0. -1.
          2    1    1    2  502    0  0.13537841338E+02  0.14783185903E+02  0.99858444778E+02  0.10185050185E+03  0.00000000000E+00 0. -1.
         -2    1    1    2    0  502 -0.13537841338E+02 -0.14783185903E+02 -0.34847692779E+01  0.20345991016E+02  0.00000000000E+00 0. -1.
</event>
<event>
 4    1  0.5465458E+003  0.2176271E+02  0.7546771E-02  0.1508648E+00
          2   -1    0    0  501    0  0.00000000000E+00  0.00000000000E+00  0.18235237601E+03  0.18235237601E+03  0.00000000000E+00 0. -1.
         -2   -1    0    0    0  501 -0.00000000000E+00 -0.00000000000E+00 -0.14656472701E+03  0.14656472701E+03  0.00000000000E+00 0. -1.
          2    1    1    2  502    0  0.68031196721E+00  0.21752075814E+02  0.18088868794E+03  0.18219312021E+03  0.00000000000E+00 0. -1.
         -2    1    1    2    0  502 -0.68031196721E+00 -0.21752075814E+02 -0.14510103894E+03  0.14672398280E+03  0.00000000000E+00 0. -1.
</event>
<event>
 4    1  0.5465458E+003  0.2563012E+02  0.7546771E-02  0.1461876E+00
          2   -1    0    0  501    0  0.00000000000E+00  0.00000000000E+00  0.92379639995E+02  0.92379639995E+02  0.00000000000E+00 0. -1.
         -2   -1    0    0    0  501 -0.00000000000E+00 -0.00000000000E+00 -0.13716805641E+03  0.13716805641E+03  0.00000000000E+00 0.  1.
          2    1    1    2  502    0  0.18539449042E+02  0.17697230660E+02  0.89365063772E+02  0.92967831892E+02  0.00000000000E+00 0. -1.
         -2    1    1    2    0  502 -0.18539449042E+02 -0.17697230660E+02 -0.13415348019E+03  0.13657986451E+03  0.00000000000E+00 0.  1.
</event>
<event>
 4    1  0.5465458E+003  0.3105269E+02  0.7546771E-02  0.1410664E+00
          2   -1    0    0  501    0  0.00000000000E+00  0.00000000000E+00  0.68626879925E+02  0.68626879925E+02  0.00000000000E+00 0. -1.
         -2   -1    0    0    0  501 -0.00000000000E+00 -0.00000000000E+00 -0.41642623145E+02  0.41642623145E+02  0.00000000000E+00 0. -1.
          2    1    1    2  502    0  0.25699547211E+02  0.17429948645E+02  0.58371394583E+02  0.66117240885E+02  0.00000000000E+00 0. -1.
         -2    1    1    2    0  502 -0.25699547211E+02 -0.17429948645E+02 -0.31387137803E+02  0.44152262185E+02  0.00000000000E+00 0. -1.
</event>
<event>
 4    1  0.5465458E+003  0.2300653E+02  0.7546771E-02  0.1492416E+00
          2   -1    0    0  501    0  0.00000000000E+00  0.00000000000E+00  0.12578153499E+02  0.12578153499E+02  0.00000000000E+00 0. -1.
         -2   -1    0    0    0  501 -0.00000000000E+00 -0.00000000000E+00 -0.25608891756E+03  0.25608891756E+03  0.00000000000E+00 0. -1.
          2    1    1    2  502    0  0.22426138410E+02 -0.51350653937E+01  0.10462191849E+01  0.23030309489E+02  0.00000000000E+00 0. -1.
         -2    1    1    2    0  502 -0.22426138410E+02  0.51350653937E+01 -0.24455698325E+03  0.24563676157E+03  0.00000000000E+00 0. -1.
</event>
<event>
 4    1  0.5465458E+003  0.2342715E+02  0.7546771E-02  0.1487203E+00
          2   -1    0    0  501    0  0.00000000000E+00  0.00000000000E+00  0.35742635525E+03  0.35742635525E+03  0.00000000000E+00 0. -1.
         -2   -1    0    0    0  501 -0.00000000000E+00 -0.00000000000E+00 -0.39518264643E+01  0.39518264643E+01  0.00000000000E+00 0.  1.
          2    1    1    2  502    0  0.49909798157E+00 -0.23421830200E+02  0.31802681244E+03  0.31888851446E+03  0.00000000000E+00 0. -1.
         -2    1    1    2    0  502 -0.49909798157E+00  0.23421830200E+02  0.35447716354E+02  0.42489667254E+02  0.00000000000E+00 0.  1.
</event>
<event>
 4    1  0.5465458E+003  0.2255327E+02  0.7546771E-02  0.1498185E+00
          2   -1    0    0  501    0  0.00000000000E+00  0.00000000000E+00  0.52227798327E+03  0.52227798327E+03  0.00000000000E+00 0. -1.
         -2   -1    0    0    0  501 -0.00000000000E+00 -0.00000000000E+00 -0.83669154635E+01  0.83669154635E+01  0.00000000000E+00 0. -1.
          2    1    1    2  502    0  0.21765998613E+02 -0.59068732698E+01  0.50635868023E+03  0.50686069378E+03  0.00000000000E+00 0. -1.
         -2    1    1    2    0  502 -0.21765998613E+02  0.59068732698E+01  0.75523875741E+01  0.23784204958E+02  0.00000000000E+00 0. -1.
</event>
<event>
 4    1  0.5465458E+003  0.2370849E+02  0.7546771E-02  0.1483788E+00
          2   -1    0    0  501    0  0.00000000000E+00  0.00000000000E+00  0.32922405958E+02  0.32922405958E+02  0.00000000000E+00 0. -1.
         -2   -1    0    0    0  501 -0.00000000000E+00 -0.00000000000E+00 -0.34461962382E+02  0.34461962382E+02  0.00000000000E+00 0.  1.
          2    1    1    2  502    0 -0.77223238220E+01  0.22415575922E+02  0.23162989659E+02  0.33145383073E+02  0.00000000000E+00 0. -1.
         -2    1    1    2    0  502  0.77223238220E+01 -0.22415575922E+02 -0.24702546083E+02  0.34238985267E+02  0.00000000000E+00 0.  1.
</event>
<event>
 4    1  0.5465458E+003  0.2050548E+02  0.7546771E-02  0.1526444E+00
          2   -1    0    0  501    0  0.00000000000E+00  0.00000000000E+00  0.77354816695E+03  0.77354816695E+03  0.00000000000E+00 0.  1.
         -2   -1    0    0    0  501 -0.00000000000E+00 -0.00000000000E+00 -0.26188485717E+02  0.26188485717E+02  0.00000000000E+00 0.  1.
          2    1    1    2  502    0  0.13375848894E+02 -0.15542238671E+02  0.76937659027E+03  0.76964979840E+03  0.00000000000E+00 0.  1.
         -2    1    1    2    0  502 -0.13375848894E+02  0.15542238671E+02 -0.22016909035E+02  0.30086854273E+02  0.00000000000E+00 0.  1.
</event>
<event>
 4    1  0.5465458E+003  0.2174613E+02  0.7546771E-02  0.1508873E+00
          2   -1    0    0  501    0  0.00000000000E+00  0.00000000000E+00  0.21132122389E+01  0.21132122389E+01  0.00000000000E+00 0.  1.
         -2   -1    0    0    0  501 -0.00000000000E+00 -0.00000000000E+00 -0.28209848025E+03  0.28209848025E+03  0.00000000000E+00 0.  1.
          2    1    1    2  502    0  0.54749316106E+01 -0.21045649073E+02 -0.75380304374E+02  0.78454346652E+02  0.00000000000E+00 0.  1.
         -2    1    1    2    0  502 -0.54749316106E+01  0.21045649073E+02 -0.20460496364E+03  0.20575734584E+03  0.00000000000E+00 0.  1.
</event>
<event>
 4    1  0.5465458E+003  0.2565365E+02  0.7546771E-02  0.1461622E+00
          2   -1    0    0  501    0  0.00000000000E+00  0.00000000000E+00  0.14629767856E+02  0.14629767856E+02  0.00000000000E+00 0. -1.
         -2   -1    0    0    0  501 -0.00000000000E+00 -0.00000000000E+00 -0.21453267696E+03  0.21453267696E+03  0.00000000000E+00 0. -1.
          2    1    1    2  502    0  0.10671233550E+02  0.23328832681E+02  0.19108650480E+01  0.25724717005E+02  0.00000000000E+00 0. -1.
         -2    1    1    2    0  502 -0.10671233550E+02 -0.23328832681E+02 -0.20181377415E+03  0.20343772781E+03  0.00000000000E+00 0. -1.
</event>
<event>
 4    1  0.5465458E+003  0.2151779E+02  0.7546771E-02  0.1511999E+00
          2   -1    0    0  501    0  0.00000000000E+00  0.00000000000E+00  0.19926586974E+01  0.19926586974E+01  0.00000000000E+00 0. -1.
         -2   -1    0    0    0  501 -0.00000000000E+00 -0.00000000000E+00 -0.25163368131E+03  0.25163368131E+03  0.00000000000E+00 0. -1.
          2    1    1    2  502    0  0.21463250746E+02 -0.15309946334E+01 -0.89724544639E+02  0.92268678260E+02  0.00000000000E+00 0. -1.
         -2    1    1    2    0  502 -0.21463250746E+02  0.15309946334E+01 -0.15991647798E+03  0.16135766175E+03  0.00000000000E+00 0. -1.
</event>
<event>
 4    1  0.5465458E+003  0.2081064E+02  0.7546771E-02  0.1521986E+00
          2   -1    0    0  501    0  0.00000000000E+00  0.00000000000E+00  0.29281377794E+03  0.29281377794E+03  0.00000000000E+00 0.  1.
         -2   -1    0    0    0  501 -0.00000000000E+00 -0.00000000000E+00 -0.11831344129E+02  0.11831344129E+02  0.00000000000E+00 0. -1.
          2    1    1    2  502    0  0.17673422055E+02 -0.10987858103E+02  0.28297509617E+03  0.28373929570E+03  0.00000000000E+00 0.  1.
         -2    1    1    2    0  502 -0.17673422055E+02  0.10987858103E+02 -0.19926623589E+01  0.20905826368E+02  0.00000000000E+00 0. -1.
</event>
<event>
 4    1  0.5465458E+003  0.2066355E+02  0.7546771E-02  0.1524123E+00
          2   -1    0    0  501    0  0.00000000000E+00  0.00000000000E+00  0.44767915166E+03  0.44767915166E+03  0.00000000000E+00 0.  1.
         -2   -1    0    0    0  501 -0.00000000000E+00 -0.00000000000E+00 -0.97599667201E+00  0.97599667201E+00  0.00000000000E+00 0.  1.
          2    1    1    2  502    0  0.20422295168E+02 -0.31482625608E+01  0.18949656861E+03  0.19061986049E+03  0.00000000000E+00 0.  1.
         -2    1    1    2    0  502 -0.20422295168E+02  0.31482625608E+01  0.25720658638E+03  0.25803528785E+03  0.00000000000E+00 0.  1.
</event>
<event>
 4    1  0.5465458E+003  0.2018532E+02  0.7546771E-02  0.1531221E+00
          2   -1    0    0  501    0  0.00000000000E+00  0.00000000000E+00  0.55900840545E+03  0.55900840545E+03  0.00000000000E+00 0.  1.
         -2   -1    0    0    0  501 -0.00000000000E+00 -0.00000000000E+00 -0.47462661603E+01  0.47462661603E+01  0.00000000000E+00 0.  1.
          2    1    1    2  502    0  0.67872780824E+01 -0.19010000668E+02  0.53646310688E+03  0.53684272586E+03  0.00000000000E+00 0.  1.
         -2    1    1    2    0  502 -0.67872780824E+01  0.19010000668E+02  0.17799032411E+02  0.26911945748E+02  0.00000000000E+00 0.  1.
</event>
<event>
 4    1  0.5465458E+003  0.4966648E+02  0.7546771E-02  0.1299625E+00
          2   -1    0    0  501    0  0.00000000000E+00  0.00000000000E+00  0.19465371658E+04  0.19465371658E+04  0.00000000000E+00 0. -1.
         -2   -1    0    0    0  501 -0.00000000000E+00 -0.00000000000E+00 -0.32849017454E+01  0.32849017454E+01  0.00000000000E+00 0.  1.
          2    1    1    2  502    0 -0.25794501750E+02  0.42442932926E+02  0.17356841961E+04  0.17363946519E+04  0.00000000000E+00 0. -1.
         -2    1    1    2    0  502  0.25794501750E+02 -0.42442932926E+02  0.20756806801E+03  0.21342741561E+03  0.00000000000E+00 0.  1.
</event>
<event>
 4    1  0.5465458E+003  0.3098813E+02  0.7546771E-02  0.1411199E+00
          2   -1    0    0  501    0  0.00000000000E+00  0.00000000000E+00  0.57746746776E+02  0.57746746776E+02  0.00000000000E+00 0.  1.
         -2   -1    0    0    0  501 -0.00000000000E+00 -0.00000000000E+00 -0.84825198946E+02  0.84825198946E+02  0.00000000000E+00 0.  1.
          2    1    1    2  502    0  0.21701689566E+02 -0.22120150531E+02  0.50378610537E+02  0.59146164619E+02  0.00000000000E+00 0.  1.
         -2    1    1    2    0  502 -0.21701689566E+02  0.22120150531E+02 -0.77457062707E+02  0.83425781103E+02  0.00000000000E+00 0.  1.
</event>
<event>
 4    1  0.5465458E+003  0.2301761E+02  0.7546771E-02  0.1492277E+00
          2   -1    0    0  501    0  0.00000000000E+00  0.00000000000E+00  0.29406909575E+01  0.29406909575E+01  0.00000000000E+00 0.  1.
         -2   -1    0    0    0  501 -0.00000000000E+00 -0.00000000000E+00 -0.22100368103E+03  0.22100368103E+03  0.00000000000E+00 0. -1.
          2    1    1    2  502    0 -0.20898151973E+02  0.96476636669E+01 -0.60898243414E+02  0.65103043102E+02  0.00000000000E+00 0.  1.
         -2    1    1    2    0  502  0.20898151973E+02 -0.96476636669E+01 -0.15716474666E+03  0.15884132888E+03  0.00000000000E+00 0. -1.
</event>
<event>
 4    1  0.5465458E+003  0.6377222E+02  0.7546771E-02  0.1247528E+00
          2   -1    0    0  501    0  0.00000000000E+00  0.00000000000E+00  0.44321934581E+02  0.44321934581E+02  0.00000000000E+00 0.  1.
         -2   -1    0    0    0  501 -0.00000000000E+00 -0.00000000000E+00 -0.10351486255E+03  0.10351486255E+03  0.00000000000E+00 0. -1.
          2    1    1    2  502    0 -0.54432258736E+02 -0.33226867016E+02 -0.46852154776E+01  0.63944090633E+02  0.00000000000E+00 0.  1.
         -2    1    1    2    0  502  0.54432258736E+02  0.33226867016E+02 -0.54507712493E+02  0.83892706501E+02  0.00000000000E+00 0. -1.
</event>
<event>
 4    1  0.5465458E+003  0.2240011E+02  0.7546771E-02  0.1500172E+00
          2   -1    0    0  501    0  0.00000000000E+00  0.00000000000E+00  0.89362097264E+01  0.89362097264E+01  0.00000000000E+00 0. -1.
         -2   -1    0    0    0  501 -0.00000000000E+00 -0.00000000000E+00 -0.56393245871E+02  0.56393245871E+02  0.00000000000E+00 0. -1.
          2    1    1    2  502    0  0.52330146710E+01 -0.21780262552E+02 -0.25875741150E+02  0.34224527161E+02  0.00000000000E+00 0. -1.
         -2    1    1    2    0  502 -0.52330146710E+01  0.21780262552E+02 -0.21581294995E+02  0.31104928436E+02  0.00000000000E+00 0. -1.
</event>
<event>
 4    1  0.5465458E+003  0.2283672E+02  0.7546771E-02  0.1494559E+00
          2   -1    0    0  501    0  0.00000000000E+00  0.00000000000E+00  0.11939777287E+03  0.11939777287E+03  0.00000000000E+00 0. -1.
         -2   -1    0    0    0  501 -0.00000000000E+00 -0.00000000000E+00 -0.61922361434E+02  0.61922361434E+02  0.00000000000E+00 0.  1.
          2    1    1    2  502    0 -0.12547643244E+02 -0.19080677224E+02  0.11614181268E+03  0.11836568864E+03  0.00000000000E+00 0. -1.
         -2    1    1    2    0  502  0.12547643244E+02  0.19080677224E+02 -0.58666401243E+02  0.62954445666E+02  0.00000000000E+00 0.  1.
</event>
<event>
 4    1  0.5465458E+003  0.2908322E+02  0.7546771E-02  0.1427734E+00
          2   -1    0    0  501    0  0.00000000000E+00  0.00000000000E+00  0.95627248025E+02  0.95627248025E+02  0.00000000000E+00 0.  1.
         -2   -1    0    0    0  501 -0.00000000000E+00 -0.00000000000E+00 -0.36923506571E+02  0.36923506571E+02  0.00000000000E+00 0.  1.
          2    1    1    2  502    0 -0.28476645677E+02  0.59088459354E+01  0.87146418323E+02  0.91871279712E+02  0.00000000000E+00 0.  1.
         -2    1    1    2    0  502  0.28476645677E+02 -0.59088459354E+01 -0.28442676870E+02  0.40679474884E+02  0.00000000000E+00 0.  1.
</event>
<event>
 4    1  0.5465458E+003  0.3537795E+02  0.7546771E-02  0.1377925E+00
          2   -1    0    0  501    0  0.00000000000E+00  0.00000000000E+00  0.97841971212E+02  0.97841971212E+02  0.00000000000E+00 0. -1.
         -2   -1    0    0    0  501 -0.00000000000E+00 -0.00000000000E+00 -0.30886018979E+02  0.30886018979E+02  0.00000000000E+00 0. -1.
          2    1    1    2  502    0  0.69132166812E+01  0.34695916978E+02  0.82741896240E+02  0.89987891481E+02  0.00000000000E+00 0. -1.
         -2    1    1    2    0  502 -0.69132166812E+01 -0.34695916978E+02 -0.15785944007E+02  0.38740098709E+02  0.00000000000E+00 0. -1.
</event>
<event>
 4    1  0.5465458E+003  0.2042228E+02  0.7546771E-02  0.1527675E+00
          2   -1    0    0  501    0  0.00000000000E+00  0.00000000000E+00  0.16563075527E+04  0.16563075527E+04  0.00000000000E+00 0. -1.
         -2   -1    0    0    0  501 -0.00000000000E+00 -0.00000000000E+00 -0.78414841557E+00  0.78414841557E+00  0.00000000000E+00 0.  1.
          2    1    1    2  502    0 -0.19660146988E+02  0.55270539110E+01  0.15104344590E+04  0.15105725155E+04  0.00000000000E+00 0. -1.
         -2    1    1    2    0  502  0.19660146988E+02 -0.55270539110E+01  0.14508894535E+03  0.14651918566E+03  0.00000000000E+00 0.  1.
</event>
<event>
 4    1  0.5465458E+003  0.2698099E+02  0.7546771E-02  0.1447799E+00
          2   -1    0    0  501    0  0.00000000000E+00  0.00000000000E+00  0.18634776706E+02  0.18634776706E+02  0.00000000000E+00 0.  1.
         -2   -1    0    0    0  501 -0.00000000000E+00 -0.00000000000E+00 -0.42586283257E+02  0.42586283257E+02  0.00000000000E+00 0.  1.
          2    1    1    2  502    0  0.25680390707E+02  0.82759603650E+01 -0.31740815805E+01  0.27167053221E+02  0.00000000000E+00 0.  1.
         -2    1    1    2    0  502 -0.25680390707E+02 -0.82759603650E+01 -0.20777424970E+02  0.34054006742E+02  0.00000000000E+00 0.  1.
</event>
<event>
 4    1  0.5465458E+003  0.3152508E+02  0.7546771E-02  0.1406791E+00
          2   -1    0    0  501    0  0.00000000000E+00  0.00000000000E+00  0.41739907550E+03  0.41739907550E+03  0.00000000000E+00 0. -1.
         -2   -1    0    0    0  501 -0.00000000000E+00 -0.00000000000E+00 -0.25530798006E+02  0.25530798006E+02  0.00000000000E+00 0. -1.
          2    1    1    2  502    0 -0.10282663925E+02  0.29800960412E+02  0.40681944103E+03  0.40803907658E+03  0.00000000000E+00 0. -1.
         -2    1    1    2    0  502  0.10282663925E+02 -0.29800960412E+02 -0.14951163536E+02  0.34890796923E+02  0.00000000000E+00 0. -1.
</event>
<event>
 4    1  0.5465458E+003  0.4852048E+02  0.7546771E-02  0.1304718E+00
          2   -1    0    0  501    0  0.00000000000E+00  0.00000000000E+00  0.24170565819E+03  0.24170565819E+03  0.00000000000E+00 0. -1.
         -2   -1    0    0    0  501 -0.00000000000E+00 -0.00000000000E+00 -0.35000842627E+02  0.35000842627E+02  0.00000000000E+00 0. -1.
          2    1    1    2  502    0 -0.28894846307E+02  0.38978520605E+02  0.22088902201E+03  0.22615525034E+03  0.00000000000E+00 0. -1.
         -2    1    1    2    0  502  0.28894846307E+02 -0.38978520605E+02 -0.14184206452E+02  0.50551250472E+02  0.00000000000E+00 0. -1.
</event>
<event>
 4    1  0.5465458E+003  0.2292382E+02  0.7546771E-02  0.1493457E+00
          2   -1    0    0  501    0  0.00000000000E+00  0.00000000000E+00  0.12834198176E+04  0.12834198176E+04  0.00000000000E+00 0.  1.
         -2   -1    0    0    0  501 -0.00000000000E+00 -0.00000000000E+00 -0.15071489707E+01  0.15071489707E+01  0.00000000000E+00 0. -1.
          2    1    1    2  502    0  0.22911069605E+02 -0.76449478009E+00  0.11892473962E+04  0.11894683143E+04  0.00000000000E+00 0.  1.
         -2    1    1    2    0  502 -0.22911069605E+02  0.76449478009E+00  0.92665272513E+02  0.95458652267E+02  0.00000000000E+00 0. -1.
</event>
<event>
 4    1  0.5465458E+003  0.2242613E+02  0.7546771E-02  0.1499833E+00
          2   -1    0    0  501    0  0.00000000000E+00  0.00000000000E+00  0.26198608690E+03  0.26198608690E+03  0.00000000000E+00 0. -1.
         -2   -1    0    0    0  501 -0.00000000000E+00 -0.00000000000E+00 -0.28781667449E+01  0.28781667449E+01  0.00000000000E+00 0. -1.
          2    1    1    2  502    0  0.14945690573E+02  0.16719974800E+02  0.20597745614E+03  0.20719469989E+03  0.00000000000E+00 0. -1.
         -2    1    1    2    0  502 -0.14945690573E+02 -0.16719974800E+02  0.53130464020E+02  0.57669553762E+02  0.00000000000E+00 0. -1.
</event>
<event>
 4    1  0.5465458E+003  0.2117676E+02  0.7546771E-02  0.1516756E+00
          2   -1    0    0  501    0  0.00000000000E+00  0.00000000000E+00  0.13468672351E+03  0.13468672351E+03  0.00000000000E+00 0. -1.
         -2   -1    0    0    0  501 -0.00000000000E+00 -0.00000000000E+00 -0.40701787693E+01  0.40701787693E+01  0.00000000000E+00 0.  1.
          2    1    1    2  502    0 -0.19728639822E+02 -0.76964873519E+01  0.94901928776E+02  0.97235956478E+02  0.00000000000E+00 0. -1.
         -2    1    1    2    0  502  0.19728639822E+02  0.76964873519E+01  0.35714615968E+02  0.41520945805E+02  0.00000000000E+00 0.  1.
</event>
<event>
 4    1  0.5465458E+003  0.2119130E+02  0.7546771E-02  0.1516551E+00
          2   -1    0    0  501    0  0.00000000000E+00  0.00000000000E+00  0.12235018737E+03  0.12235018737E+03  0.00000000000E+00 0.  1.
         -2   -1    0    0    0  501 -0.00000000000E+00 -0.00000000000E+00 -0.21563267227E+02  0.21563267227E+02  0.00000000000E+00 0.  1.
          2    1    1    2  502    0  0.17955528317E+02  0.11254794277E+02  0.11594069279E+03  0.11786142556E+03  0.00000000000E+00 0.  1.
         -2    1    1    2    0  502 -0.17955528317E+02 -0.11254794277E+02 -0.15153772646E+02  0.26052029034E+02  0.00000000000E+00 0.  1.
</event>
<event>
 4    1  0.5465458E+003  0.2562911E+02  0.7546771E-02  0.1461887E+00
          2   -1    0    0  501    0  0.00000000000E+00  0.00000000000E+00  0.17416727067E+02  0.17416727067E+02  0.00000000000E+00 0. -1.
         -2   -1    0    0    0  501 -0.00000000000E+00 -0.00000000000E+00 -0.52125969953E+03  0.52125969953E+03  0.00000000000E+00 0.  1.
          2    1    1    2  502    0  0.16083445599E+02  0.19954294746E+02  0.74903267787E+01  0.26701237732E+02  0.00000000000E+00 0. -1.
         -2    1    1    2    0  502 -0.16083445599E+02 -0.19954294746E+02 -0.51133329924E+03  0.51197518887E+03  0.00000000000E+00 0.  1.
</event>
<event>
 4    1  0.5465458E+003  0.2099121E+02  0.7546771E-02  0.1519390E+00
          2   -1    0    0  501    0  0.00000000000E+00  0.00000000000E+00  0.97974962479E+01  0.97974962479E+01  0.00000000000E+00 0. -1.
         -2   -1    0    0    0  501 -0.00000000000E+00 -0.00000000000E+00 -0.89594045565E+02  0.89594045565E+02  0.00000000000E+00 0. -1.
          2    1    1    2  502    0  0.19179173445E+02  0.85317063506E+01 -0.48274642706E+01  0.21539153153E+02  0.00000000000E+00 0. -1.
         -2    1    1    2    0  502 -0.19179173445E+02 -0.85317063506E+01 -0.74969085046E+02  0.77852388659E+02  0.00000000000E+00 0. -1.
</event>
<event>
 4    1  0.5465458E+003  0.2203935E+02  0.7546771E-02  0.1504927E+00
          2   -1    0    0  501    0  0.00000000000E+00  0.00000000000E+00  0.67278516189E+02  0.67278516189E+02  0.00000000000E+00 0.  1.
         -2   -1    0    0    0  501 -0.00000000000E+00 -0.00000000000E+00 -0.12313344461E+03  0.12313344461E+03  0.00000000000E+00 0.  1.
          2    1    1    2  502    0 -0.21252545522E+02  0.58362943568E+01  0.64445231666E+02  0.68109624191E+02  0.00000000000E+00 0.  1.
         -2    1    1    2    0  502  0.21252545522E+02 -0.58362943568E+01 -0.12030016009E+03  0.12230233661E+03  0.00000000000E+00 0.  1.
</event>
<event>
 4    1  0.5465458E+003  0.4085202E+02  0.7546771E-02  0.1343564E+00
          2   -1    0    0  501    0  0.00000000000E+00  0.00000000000E+00  0.98323803917E+03  0.98323803917E+03  0.00000000000E+00 0. -1.
         -2   -1    0    0    0  501 -0.00000000000E+00 -0.00000000000E+00 -0.37586095310E+01  0.37586095310E+01  0.00000000000E+00 0. -1.
          2    1    1    2  502    0 -0.12357267572E+02 -0.38938231145E+02  0.85519951565E+03  0.85617468981E+03  0.00000000000E+00 0. -1.
         -2    1    1    2    0  502  0.12357267572E+02  0.38938231145E+02  0.12427991399E+03  0.13082195889E+03  0.00000000000E+00 0. -1.
</event>
<event>
 4    1  0.5465458E+003  0.2930309E+02  0.7546771E-02  0.1425751E+00
          2   -1    0    0  501    0  0.00000000000E+00  0.00000000000E+00  0.16418412706E+03  0.16418412706E+03  0.00000000000E+00 0. -1.
         -2   -1    0    0    0  501 -0.00000000000E+00 -0.00000000000E+00 -0.11976935130E+03  0.11976935130E+03  0.00000000000E+00 0. -1.
          2    1    1    2  502    0  0.28811107172E+02 -0.53470862592E+01  0.16104970216E+03  0.16369385387E+03  0.00000000000E+00 0. -1.
         -2    1    1    2    0  502 -0.28811107172E+02  0.53470862592E+01 -0.11663492640E+03  0.12025962450E+03  0.00000000000E+00 0. -1.
</event>
<event>
 4    1  0.8111762E+003  0.2158571E+02  0.7546771E-02  0.1511064E+00
          2   -1    0    0  501    0  0.00000000000E+00  0.00000000000E+00  0.15136765641E+04  0.15136765641E+04  0.00000000000E+00 0. -1.
         -2   -1    0    0    0  501 -0.00000000000E+00 -0.00000000000E+00 -0.28975930381E+03  0.28975930381E+03  0.00000000000E+00 0.  1.
          2    1    1    2  502    0 -0.21162001144E+02  0.42558808721E+01  0.15131974729E+04  0.15133514247E+04  0.00000000000E+00 0. -1.
         -2    1    1    2    0  502  0.21162001144E+02 -0.42558808721E+01 -0.28928021255E+03  0.29008444320E+03  0.00000000000E+00 0.  1.
</event>
<event>
 4    1  0.5465458E+003  0.2533892E+02  0.7546771E-02  0.1465047E+00
          2   -1    0    0  501    0  0.00000000000E+00  0.00000000000E+00  0.75878338076E+02  0.75878338076E+02  0.00000000000E+00 0. -1.
         -2   -1    0    0    0  501 -0.00000000000E+00 -0.00000000000E+00 -0.15081092281E+02  0.15081092281E+02  0.00000000000E+00 0.  1.
          2    1    1    2  502    0 -0.24472947207E+02  0.65677760071E+01  0.60529371672E+02  0.65619095252E+02  0.00000000000E+00 0. -1.
         -2    1    1    2    0  502  0.24472947207E+02 -0.65677760071E+01  0.26787412303E+00  0.25340335105E+02  0.00000000000E+00 0.  1.
</event>
<event>
 4    1  0.5465458E+003  0.3086837E+02  0.7546771E-02  0.1412197E+00
          2   -1    0    0  501    0  0.00000000000E+00  0.00000000000E+00  0.34555016567E+03  0.34555016567E+03  0.00000000000E+00 0.  1.
         -2   -1    0    0    0  501 -0.00000000000E+00 -0.00000000000E+00 -0.74791571836E+02  0.74791571836E+02  0.00000000000E+00 0.  1.
          2    1    1    2  502    0 -0.26296034324E+02 -0.16167096411E+02  0.34163936433E+03  0.34303106519E+03  0.00000000000E+00 0.  1.
         -2    1    1    2    0  502  0.26296034324E+02  0.16167096411E+02 -0.70880770496E+02  0.77310672314E+02  0.00000000000E+00 0.  1.
</event>
<event>
 4    1  0.5465458E+003  0.2865674E+02  0.7546771E-02  0.1431640E+00
          2   -1    0    0  501    0  0.00000000000E+00  0.00000000000E+00  0.36994199029E+03  0.36994199029E+03  0.00000000000E+00 0. -1.
         -2   -1    0    0    0  501 -0.00000000000E+00 -0.00000000000E+00 -0.27958436553E+03  0.27958436553E+03  0.00000000000E+00 0.  1.
          2    1    1    2  502    0 -0.17223447284E+02  0.22903304993E+02  0.36865015142E+03  0.36976227858E+03  0.00000000000E+00 0. -1.
         -2    1    1    2    0  502  0.17223447284E+02 -0.22903304993E+02 -0.27829252666E+03  0.27976407724E+03  0.00000000000E+00 0.  1.
</event>
<event>
 4    1  0.5465458E+003  0.2105828E+02  0.7546771E-02  0.1518434E+00
          2   -1    0    0  501    0  0.00000000000E+00  0.00000000000E+00  0.10195264315E+02  0.10195264315E+02  0.00000000000E+00 0. -1.
         -2   -1    0    0    0  501 -0.00000000000E+00 -0.00000000000E+00 -0.17655375475E+03  0.17655375475E+03  0.00000000000E+00 0. -1.
          2    1    1    2  502    0  0.28730726147E+01 -0.20861364737E+02 -0.21185561535E+01  0.21164578076E+02  0.00000000000E+00 0. -1.
         -2    1    1    2    0  502 -0.28730726147E+01  0.20861364737E+02 -0.16423993428E+03  0.16558444099E+03  0.00000000000E+00 0. -1.
</event>
<event>
 4    1  0.5465458E+003  0.2185184E+02  0.7546771E-02  0.1507442E+00
          2   -1    0    0  501    0  0.00000000000E+00  0.00000000000E+00  0.82652371252E+02  0.82652371252E+02  0.00000000000E+00 0. -1.
         -2   -1    0    0    0  501 -0.00000000000E+00 -0.00000000000E+00 -0.19371903970E+03  0.19371903970E+03  0.00000000000E+00 0. -1.
          2    1    1    2  502    0 -0.20880558597E+02 -0.64424494794E+01  0.80576232906E+02  0.83486718656E+02  0.00000000000E+00 0. -1.
         -2    1    1    2    0  502  0.20880558597E+02  0.64424494794E+01 -0.19164290136E+03  0.19288469230E+03  0.00000000000E+00 0. -1.
</event>
<event>
 4    1  0.5465458E+003  0.3875496E+02  0.7546771E-02  0.1355940E+00
          2   -1    0    0  501    0  0.00000000000E+00  0.00000000000E+00  0.11278817772E+02  0.11278817772E+02  0.00000000000E+00 0.  1.
         -2   -1    0    0    0  501 -0.00000000000E+00 -0.00000000000E+00 -0.13503849607E+03  0.13503849607E+03  0.00000000000E+00 0.  1.
          2    1    1    2  502    0 -0.34393931903E+02 -0.17860696492E+02 -0.53263360965E+02  0.65870575010E+02  0.00000000000E+00 0.  1.
         -2    1    1    2    0  502  0.34393931903E+02  0.17860696492E+02 -0.70496317330E+02  0.80446738827E+02  0.00000000000E+00 0.  1.
</event>
<event>
 4    1  0.5465458E+003  0.4897455E+02  0.7546771E-02  0.1302681E+00
          2   -1    0    0  501    0  0.00000000000E+00  0.00000000000E+00  0.22944255571E+03  0.22944255571E+03  0.00000000000E+00 0.  1.
         -2   -1    0    0    0  501 -0.00000000000E+00 -0.00000000000E+00 -0.10300004751E+03  0.10300004751E+03  0.00000000000E+00 0.  1.
          2    1    1    2  502    0  0.42037662795E+02 -0.25126508407E+02  0.22078191109E+03  0.22614853257E+03  0.00000000000E+00 0.  1.
         -2    1    1    2    0  502 -0.42037662795E+02  0.25126508407E+02 -0.94339402889E+02  0.10629407065E+03  0.00000000000E+00 0.  1.
</event>
<event>
 4    1  0.5465458E+003  0.3671182E+02  0.7546771E-02  0.1368912E+00
          2   -1    0    0  501    0  0.00000000000E+00  0.00000000000E+00  0.16996782466E+03  0.16996782466E+03  0.00000000000E+00 0. -1.
         -2   -1    0    0    0  501 -0.00000000000E+00 -0.00000000000E+00 -0.26119230228E+02  0.26119230228E+02  0.00000000000E+00 0.  1.
          2    1    1    2  502    0  0.34856441183E+02 -0.11523295738E+02  0.15374289135E+03  0.15806528549E+03  0.00000000000E+00 0. -1.
         -2    1    1    2    0  502 -0.34856441183E+02  0.11523295738E+02 -0.98942969187E+01  0.38021769397E+02  0.00000000000E+00 0.  1.
</event>
<event>
 4    1  0.5465458E+003  0.2379699E+02  0.7546771E-02  0.1482726E+00
          2   -1    0    0  501    0  0.00000000000E+00  0.00000000000E+00  0.11705656831E+04  0.11705656831E+04  0.00000000000E+00 0. -1.
         -2   -1    0    0    0  501 -0.00000000000E+00 -0.00000000000E+00 -0.26586799618E+01  0.26586799618E+01  0.00000000000E+00 0. -1.
          2    1    1    2  502    0  0.23432729354E+02  0.41477819474E+01  0.11145173258E+04  0.11147713516E+04  0.00000000000E+00 0. -1.
         -2    1    1    2    0  502 -0.23432729354E+02 -0.41477819474E+01  0.53389677390E+02  0.58453011487E+02  0.00000000000E+00 0. -1.
</event>
<event>
 4    1  0.5465458E+003  0.2164069E+02  0.7546771E-02  0.1510311E+00
          2   -1    0    0  501    0  0.00000000000E+00  0.00000000000E+00  0.81532651520E+02  0.81532651520E+02  0.00000000000E+00 0. -1.
         -2   -1    0    0    0  501 -0.00000000000E+00 -0.00000000000E+00 -0.61669482542E+02  0.61669482542E+02  0.00000000000E+00 0. -1.
          2    1    1    2  502    0 -0.69608608726E+01 -0.20490633997E+02  0.78116671216E+02  0.81058830411E+02  0.00000000000E+00 0. -1.
         -2    1    1    2    0  502  0.69608608726E+01  0.20490633997E+02 -0.58253502238E+02  0.62143303651E+02  0.00000000000E+00 0. -1.
</event>
<event>
 4    1  0.5465458E+003  0.2545680E+02  0.7546771E-02  0.1463758E+00
          2   -1    0    0  501    0  0.00000000000E+00  0.00000000000E+00  0.58972134592E+03  0.58972134592E+03  0.00000000000E+00 0.  1.
         -2   -1    0    0    0  501 -0.00000000000E+00 -0.00000000000E+00 -0.49520680027E+02  0.49520680027E+02  0.00000000000E+00 0.  1.
          2    1    1    2  502    0 -0.17299880233E+02 -0.18675186562E+02  0.58615511881E+03  0.58670765442E+03  0.00000000000E+00 0.  1.
         -2    1    1    2    0  502  0.17299880233E+02  0.18675186562E+02 -0.45954452915E+02  0.52534371529E+02  0.00000000000E+00 0.  1.
</event>
<event>
 4    1  0.5465458E+003  0.2097036E+02  0.7546771E-02  0.1519688E+00
          2   -1    0    0  501    0  0.00000000000E+00  0.00000000000E+00  0.38936457647E+03  0.38936457647E+03  0.00000000000E+00 0.  1.
         -2   -1    0    0    0  501 -0.00000000000E+00 -0.00000000000E+00 -0.22023798152E+02  0.22023798152E+02  0.00000000000E+00 0.  1.
          2    1    1    2  502    0  0.14507137923E+02  0.15142618160E+02  0.38402098613E+03  0.38459312751E+03  0.00000000000E+00 0.  1.
         -2    1    1    2    0  502 -0.14507137923E+02 -0.15142618160E+02 -0.16680207811E+02  0.26795247118E+02  0.00000000000E+00 0.  1.
</event>
<event>
 4    1  0.5465458E+003  0.2362081E+02  0.7546771E-02  0.1484846E+00
          2   -1    0    0  501    0  0.00000000000E+00  0.00000000000E+00  0.12966047304E+03  0.12966047304E+03  0.00000000000E+00 0.  1.
         -2   -1    0    0    0  501 -0.00000000000E+00 -0.00000000000E+00 -0.22714299537E+02  0.22714299537E+02  0.00000000000E+00 0.  1.
          2    1    1    2  502    0  0.11662650396E+02 -0.20540816900E+02  0.12206523252E+03  0.12432965681E+03  0.00000000000E+00 0.  1.
         -2    1    1    2    0  502 -0.11662650396E+02  0.20540816900E+02 -0.15119059011E+02  0.28045115769E+02  0.00000000000E+00 0.  1.
</event>
<event>
 4    1  0.5465458E+003  0.4504257E+02  0.7546771E-02  0.1321227E+00
          2   -1    0    0  501    0  0.00000000000E+00  0.00000000000E+00  0.33529645592E+03  0.33529645592E+03  0.00000000000E+00 0.  1.
         -2   -1    0    0    0  501 -0.00000000000E+00 -0.00000000000E+00 -0.11402023650E+02  0.11402023650E+02  0.00000000000E+00 0. -1.
          2    1    1    2  502    0 -0.11802554479E+02  0.43468753365E+02  0.28070305736E+03  0.28429393103E+03  0.00000000000E+00 0.  1.
         -2    1    1    2    0  502  0.11802554479E+02 -0.43468753365E+02  0.43191374909E+02  0.62404548535E+02  0.00000000000E+00 0. -1.
</event>
<event>
 4    1  0.5465458E+003  0.2413019E+02  0.7546771E-02  0.1478774E+00
          2   -1    0    0  501    0  0.00000000000E+00  0.00000000000E+00  0.10224182459E+02  0.10224182459E+02  0.00000000000E+00 0. -1.
         -2   -1    0    0    0  501 -0.00000000000E+00 -0.00000000000E+00 -0.74822672681E+02  0.74822672681E+02  0.00000000000E+00 0. -1.
          2    1    1    2  502    0 -0.23814423822E+02 -0.38909500211E+01 -0.11516280635E+02  0.26737445534E+02  0.00000000000E+00 0. -1.
         -2    1    1    2    0  502  0.23814423822E+02  0.38909500211E+01 -0.53082209587E+02  0.58309409606E+02  0.00000000000E+00 0. -1.
</event>
<event>
 4    1  0.5465458E+003  0.2461481E+02  0.7546771E-02  0.1473159E+00
          2   -1    0    0  501    0  0.00000000000E+00  0.00000000000E+00  0.49657114542E+03  0.49657114542E+03  0.00000000000E+00 0.  1.
         -2   -1    0    0    0  501 -0.00000000000E+00 -0.00000000000E+00 -0.49847734481E+02  0.49847734481E+02  0.00000000000E+00 0. -1.
          2    1    1    2  502    0 -0.21396462690E+02 -0.12168821362E+02  0.49320669540E+03  0.49382054758E+03  0.00000000000E+00 0.  1.
         -2    1    1    2    0  502  0.21396462690E+02  0.12168821362E+02 -0.46483284457E+02  0.52598332321E+02  0.00000000000E+00 0. -1.
</event>
<event>
 4    1  0.5465458E+003  0.6327045E+02  0.7546771E-02  0.1249108E+00
          2   -1    0    0  501    0  0.00000000000E+00  0.00000000000E+00  0.25667395685E+04  0.25667395685E+04  0.00000000000E+00 0. -1.
         -2   -1    0    0    0  501 -0.00000000000E+00 -0.00000000000E+00 -0.19508580094E+02  0.19508580094E+02  0.00000000000E+00 0. -1.
          2    1    1    2  502    0 -0.17428422485E+01 -0.63246443474E+02  0.25139732233E+04  0.25147692772E+04  0.00000000000E+00 0. -1.
         -2    1    1    2    0  502  0.17428422485E+01  0.63246443474E+02  0.33257765058E+02  0.71478871339E+02  0.00000000000E+00 0. -1.
</event>
<event>
 4    1  0.5465458E+003  0.3715813E+02  0.7546771E-02  0.1365995E+00
          2   -1    0    0  501    0  0.00000000000E+00  0.00000000000E+00  0.14973771211E+04  0.14973771211E+04  0.00000000000E+00 0.  1.
         -2   -1    0    0    0  501 -0.00000000000E+00 -0.00000000000E+00 -0.94020152661E+00  0.94020152661E+00  0.00000000000E+00 0. -1.
          2    1    1    2  502    0  0.11451362038E+02 -0.35349578137E+02  0.85217734059E+03  0.85298707269E+03  0.00000000000E+00 0. -1.
         -2    1    1    2    0  502 -0.11451362038E+02  0.35349578137E+02  0.64425957899E+03  0.64533024994E+03  0.00000000000E+00 0.  1.
</event>
<event>
 4    1  0.5465458E+003  0.2476142E+02  0.7546771E-02  0.1471490E+00
          2   -1    0    0  501    0  0.00000000000E+00  0.00000000000E+00  0.43260830443E+03  0.43260830443E+03  0.00000000000E+00 0.  1.
         -2   -1    0    0    0  501 -0.00000000000E+00 -0.00000000000E+00 -0.18196474994E+01  0.18196474994E+01  0.00000000000E+00 0.  1.
          2    1    1    2  502    0 -0.29365063154E+01  0.24586681206E+02  0.31753636234E+03  0.31850034438E+03  0.00000000000E+00 0.  1.
         -2    1    1    2    0  502  0.29365063154E+01 -0.24586681206E+02  0.11325229459E+03  0.11592760755E+03  0.00000000000E+00 0.  1.
</event>
