<event>
 4    1  0.2293753E+005  0.3360947E+02  0.7546771E-02  0.1390612E+00
          2   -1    0    0  502    0  0.00000000000E+00  0.00000000000E+00  0.12948771650E+03  0.12948771650E+03  0.00000000000E+00 0. -1.
         21   -1    0    0  503  502 -0.00000000000E+00 -0.00000000000E+00 -0.25582299478E+02  0.25582299478E+02  0.00000000000E+00 0. -1.
          2    1    1    2  501    0  0.20479405922E+02  0.26649400389E+02  0.11489467732E+03  0.11970957976E+03  0.00000000000E+00 0. -1.
         21    1    1    2  503  501 -0.20479405922E+02 -0.26649400389E+02 -0.10989260300E+02  0.35360436224E+02  0.00000000000E+00 0. -1.
</event>
<event>
 4    1  0.2293753E+005  0.3547347E+02  0.7546771E-02  0.1377265E+00
          2   -1    0    0  502    0  0.00000000000E+00  0.00000000000E+00  0.16628515478E+04  0.16628515478E+04  0.00000000000E+00 0.  1.
         21   -1    0    0  503  502 -0.00000000000E+00 -0.00000000000E+00 -0.12845315509E+02  0.12845315509E+02  0.00000000000E+00 0. -1.
          2    1    1    2  501    0  0.27417153387E+02 -0.22509262541E+02  0.16377969699E+04  0.16381810895E+04  0.00000000000E+00 0.  1.
         21    1    1    2  503  501 -0.27417153387E+02  0.22509262541E+02  0.12209262379E+02  0.37515773854E+02  0.00000000000E+00 0. -1.
</event>
<event>
 4    1  0.2293753E+005  0.3172291E+02  0.7546771E-02  0.1405193E+00
          2   -1    0    0  502    0  0.00000000000E+00  0.00000000000E+00  0.41457098779E+03  0.41457098779E+03  0.00000000000E+00 0. -1.
         21   -1    0    0  503  502 -0.00000000000E+00 -0.00000000000E+00 -0.36296021676E+01  0.36296021676E+01  0.00000000000E+00 0. -1.
          2    1    1    2  501    0  0.29664412116E+02  0.11241257998E+02  0.32581012429E+03  0.32735085202E+03  0.00000000000E+00 0. -1.
         21    1    1    2  503  501 -0.29664412116E+02 -0.11241257998E+02  0.85131261336E+02  0.90849737943E+02  0.00000000000E+00 0. -1.
</event>
<event>
 4    1  0.2293753E+005  0.2077290E+02  0.7546771E-02  0.1522532E+00
          2   -1    0    0  503    0  0.00000000000E+00  0.00000000000E+00  0.15473254149E+04  0.15473254149E+04  0.00000000000E+00 0. -1.
         21   -1    0    0  501  502 -0.00000000000E+00 -0.00000000000E+00 -0.50187484582E+00  0.50187484582E+00  0.00000000000E+00 0. -1.
          2    1    1    2  501    0  0.37031833324E+01  0.20440151030E+02  0.12892876279E+04  0.12894549627E+04  0.00000000000E+00 0. -1.
         21    1    1    2  503  502 -0.37031833324E+01 -0.20440151030E+02  0.25753591214E+03  0.25837232705E+03  0.00000000000E+00 0. -1.
</event>
<event>
 4    1  0.2293753E+005  0.2315799E+02  0.7546771E-02  0.1490524E+00
          2   -1    0    0  503    0  0.00000000000E+00  0.00000000000E+00  0.74001503549E+03  0.74001503549E+03  0.00000000000E+00 0. -1.
         21   -1    0    0  501  502 -0.00000000000E+00 -0.00000000000E+00 -0.21340274553E+02  0.21340274553E+02  0.00000000000E+00 0.  1.
          2    1    1    2  501    0  0.56499871490E+01  0.22458187921E+02  0.73349539601E+03  0.73386087818E+03  0.00000000000E+00 0. -1.
         21    1    1    2  503  502 -0.56499871490E+01 -0.22458187921E+02 -0.14820635072E+02  0.27494431862E+02  0.00000000000E+00 0.  1.
</event>
<event>
 4    1  0.2293753E+005  0.2386856E+02  0.7546771E-02  0.1481870E+00
          2   -1    0    0  502    0  0.00000000000E+00  0.00000000000E+00  0.11577525925E+04  0.11577525925E+04  0.00000000000E+00 0. -1.
         21   -1    0    0  503  502 -0.00000000000E+00 -0.00000000000E+00 -0.58945067568E+01  0.58945067568E+01  0.00000000000E+00 0. -1.
          2    1    1    2  501    0  0.21275233778E+02  0.10820005795E+02  0.11329377226E+04  0.11331891243E+04  0.00000000000E+00 0. -1.
         21    1    1    2  503  501 -0.21275233778E+02 -0.10820005795E+02  0.18920363123E+02  0.30457974956E+02  0.00000000000E+00 0. -1.
</event>
<event>
 4    1  0.2293753E+005  0.2059944E+02  0.7546771E-02  0.1525061E+00
          2   -1    0    0  503    0  0.00000000000E+00  0.00000000000E+00  0.25555628366E+03  0.25555628366E+03  0.00000000000E+00 0.  1.
         21   -1    0    0  501  502 -0.00000000000E+00 -0.00000000000E+00 -0.22780944053E+01  0.22780944053E+01  0.00000000000E+00 0.  1.
          2    1    1    2  501    0  0.11221446076E+02  0.17274726937E+02  0.19376592403E+03  0.19485782088E+03  0.00000000000E+00 0.  1.
         21    1    1    2  503  502 -0.11221446076E+02 -0.17274726937E+02  0.59512265223E+02  0.62976557184E+02  0.00000000000E+00 0.  1.
</event>
<event>
 4    1  0.2293753E+005  0.2680724E+02  0.7546771E-02  0.1449554E+00
          2   -1    0    0  503    0  0.00000000000E+00  0.00000000000E+00  0.19376944032E+02  0.19376944032E+02  0.00000000000E+00 0. -1.
         21   -1    0    0  501  502 -0.00000000000E+00 -0.00000000000E+00 -0.14178471717E+03  0.14178471717E+03  0.00000000000E+00 0.  1.
          2    1    1    2  501    0  0.36460695840E+01  0.26558128328E+02  0.80407500330E+01  0.27987169646E+02  0.00000000000E+00 0. -1.
         21    1    1    2  503  502 -0.36460695840E+01 -0.26558128328E+02 -0.13044852317E+03  0.13317449155E+03  0.00000000000E+00 0.  1.
</event>
<event>
 4    1  0.2293753E+005  0.2190112E+02  0.7546771E-02  0.1506778E+00
          2   -1    0    0  503    0  0.00000000000E+00  0.00000000000E+00  0.49515287745E+01  0.49515287745E+01  0.00000000000E+00 0. -1.
         21   -1    0    0  501  502 -0.00000000000E+00 -0.00000000000E+00 -0.32306183281E+03  0.32306183281E+03  0.00000000000E+00 0.  1.
          2    1    1    2  501    0  0.10822833160E+02  0.19040101264E+02 -0.21822870195E+02  0.30917581362E+02  0.00000000000E+00 0. -1.
         21    1    1    2  503  502 -0.10822833160E+02 -0.19040101264E+02 -0.29628743384E+03  0.29709578023E+03  0.00000000000E+00 0.  1.
</event>
<event>
 4    1  0.2293753E+005  0.6462895E+02  0.7546771E-02  0.1244867E+00
          2   -1    0    0  503    0  0.00000000000E+00  0.00000000000E+00  0.25300674937E+04  0.25300674937E+04  0.00000000000E+00 0. -1.
         21   -1    0    0  501  502 -0.00000000000E+00 -0.00000000000E+00 -0.74860775564E+01  0.74860775564E+01  0.00000000000E+00 0. -1.
          2    1    1    2  501    0 -0.10446032034E+02 -0.63779157690E+02  0.23814632488E+04  0.23823400483E+04  0.00000000000E+00 0. -1.
         21    1    1    2  503  502  0.10446032034E+02  0.63779157690E+02  0.14111816732E+03  0.15521352289E+03  0.00000000000E+00 0. -1.
</event>
<event>
 4    1  0.2293753E+005  0.2944503E+02  0.7546771E-02  0.1424481E+00
          2   -1    0    0  502    0  0.00000000000E+00  0.00000000000E+00  0.79214317550E+03  0.79214317550E+03  0.00000000000E+00 0.  1.
         21   -1    0    0  503  502 -0.00000000000E+00 -0.00000000000E+00 -0.13951004879E+02  0.13951004879E+02  0.00000000000E+00 0. -1.
          2    1    1    2  501    0 -0.49619686263E+01 -0.29023933786E+02  0.77600996466E+03  0.77656839694E+03  0.00000000000E+00 0.  1.
         21    1    1    2  503  501  0.49619686263E+01  0.29023933786E+02  0.21822059597E+01  0.29525783443E+02  0.00000000000E+00 0. -1.
</event>
<event>
 4    1  0.2293753E+005  0.2370691E+02  0.7546771E-02  0.1483807E+00
          2   -1    0    0  502    0  0.00000000000E+00  0.00000000000E+00  0.19242099609E+03  0.19242099609E+03  0.00000000000E+00 0.  1.
         21   -1    0    0  503  502 -0.00000000000E+00 -0.00000000000E+00 -0.18977889741E+02  0.18977889741E+02  0.00000000000E+00 0. -1.
          2    1    1    2  501    0  0.17117166414E+02 -0.16401835514E+02  0.18394758330E+03  0.18546894888E+03  0.00000000000E+00 0.  1.
         21    1    1    2  503  501 -0.17117166414E+02  0.16401835514E+02 -0.10504476955E+02  0.25929936953E+02  0.00000000000E+00 0. -1.
</event>
<event>
 4    1  0.2293753E+005  0.2323518E+02  0.7546771E-02  0.1489566E+00
          2   -1    0    0  502    0  0.00000000000E+00  0.00000000000E+00  0.45598224100E+03  0.45598224100E+03  0.00000000000E+00 0. -1.
         21   -1    0    0  503  502 -0.00000000000E+00 -0.00000000000E+00 -0.23541820837E+01  0.23541820837E+01  0.00000000000E+00 0.  1.
          2    1    1    2  501    0 -0.21717670655E+02  0.82593328859E+01  0.38838554788E+03  0.38907995014E+03  0.00000000000E+00 0. -1.
         21    1    1    2  503  501  0.21717670655E+02 -0.82593328859E+01  0.65242511040E+02  0.69256472948E+02  0.00000000000E+00 0.  1.
</event>
<event>
 4    1  0.2293753E+005  0.2441684E+02  0.7546771E-02  0.1475434E+00
          2   -1    0    0  503    0  0.00000000000E+00  0.00000000000E+00  0.11775281955E+04  0.11775281955E+04  0.00000000000E+00 0. -1.
         21   -1    0    0  501  502 -0.00000000000E+00 -0.00000000000E+00 -0.12128167770E+01  0.12128167770E+01  0.00000000000E+00 0.  1.
          2    1    1    2  501    0  0.55910509136E+01  0.23768097342E+02  0.10379915038E+04  0.10382786448E+04  0.00000000000E+00 0. -1.
         21    1    1    2  503  502 -0.55910509136E+01 -0.23768097342E+02  0.13832387494E+03  0.14046236748E+03  0.00000000000E+00 0.  1.
</event>
<event>
 4    1  0.2293753E+005  0.3736760E+02  0.7546771E-02  0.1364643E+00
          2   -1    0    0  503    0  0.00000000000E+00  0.00000000000E+00  0.41803089197E+03  0.41803089197E+03  0.00000000000E+00 0. -1.
         21   -1    0    0  501  502 -0.00000000000E+00 -0.00000000000E+00 -0.39415655707E+02  0.39415655707E+02  0.00000000000E+00 0.  1.
          2    1    1    2  501    0  0.37366326043E+02 -0.30804593471E+00  0.40812481768E+03  0.40983192167E+03  0.00000000000E+00 0. -1.
         21    1    1    2  503  502 -0.37366326043E+02  0.30804593471E+00 -0.29509581417E+02  0.47614626005E+02  0.00000000000E+00 0.  1.
</event>
<event>
 4    1  0.2293753E+005  0.2922106E+02  0.7546771E-02  0.1426488E+00
          2   -1    0    0  502    0  0.00000000000E+00  0.00000000000E+00  0.13230255000E+04  0.13230255000E+04  0.00000000000E+00 0.  1.
         21   -1    0    0  503  502 -0.00000000000E+00 -0.00000000000E+00 -0.99002840046E+02  0.99002840046E+02  0.00000000000E+00 0.  1.
          2    1    1    2  501    0  0.12891459520E+02  0.26223667276E+02  0.13207041859E+04  0.13210274097E+04  0.00000000000E+00 0.  1.
         21    1    1    2  503  501 -0.12891459520E+02 -0.26223667276E+02 -0.96681526004E+02  0.10100093032E+03  0.00000000000E+00 0.  1.
</event>
<event>
 4    1  0.2293753E+005  0.2001770E+02  0.7546771E-02  0.1533765E+00
          2   -1    0    0  503    0  0.00000000000E+00  0.00000000000E+00  0.10067861039E+04  0.10067861039E+04  0.00000000000E+00 0. -1.
         21   -1    0    0  501  502 -0.00000000000E+00 -0.00000000000E+00 -0.74932739727E+00  0.74932739727E+00  0.00000000000E+00 0. -1.
          2    1    1    2  501    0  0.19559998774E+02 -0.42561592578E+01  0.84796023590E+03  0.84819648084E+03  0.00000000000E+00 0. -1.
         21    1    1    2  503  502 -0.19559998774E+02  0.42561592578E+01  0.15807654065E+03  0.15933895050E+03  0.00000000000E+00 0. -1.
</event>
<event>
 4    1  0.2293753E+005  0.2553960E+02  0.7546771E-02  0.1462857E+00
          2   -1    0    0  502    0  0.00000000000E+00  0.00000000000E+00  0.13171176483E+03  0.13171176483E+03  0.00000000000E+00 0.  1.
         21   -1    0    0  503  502 -0.00000000000E+00 -0.00000000000E+00 -0.34552645316E+02  0.34552645316E+02  0.00000000000E+00 0. -1.
          2    1    1    2  501    0 -0.41190306168E+00  0.25536273625E+02  0.12552401509E+03  0.12809585980E+03  0.00000000000E+00 0.  1.
         21    1    1    2  503  501  0.41190306168E+00 -0.25536273625E+02 -0.28364895572E+02  0.38168550347E+02  0.00000000000E+00 0. -1.
</event>
<event>
 4    1  0.2293753E+005  0.2095881E+02  0.7546771E-02  0.1519854E+00
          2   -1    0    0  503    0  0.00000000000E+00  0.00000000000E+00  0.64588065756E+02  0.64588065756E+02  0.00000000000E+00 0. -1.
         21   -1    0    0  501  502 -0.00000000000E+00 -0.00000000000E+00 -0.77119977523E+01  0.77119977523E+01  0.00000000000E+00 0.  1.
          2    1    1    2  501    0 -0.47196487279E+01 -0.20420496671E+02  0.40861796280E+02  0.45923394514E+02  0.00000000000E+00 0. -1.
         21    1    1    2  503  502  0.47196487279E+01  0.20420496671E+02  0.16014271723E+02  0.26376668994E+02  0.00000000000E+00 0.  1.
</event>
<event>
 4    1  0.2293753E+005  0.2692585E+02  0.7546771E-02  0.1448354E+00
          2   -1    0    0  503    0  0.00000000000E+00  0.00000000000E+00  0.15837965556E+04  0.15837965556E+04  0.00000000000E+00 0. -1.
         21   -1    0    0  501  502 -0.00000000000E+00 -0.00000000000E+00 -0.48919986221E+02  0.48919986221E+02  0.00000000000E+00 0.  1.
          2    1    1    2  501    0 -0.78277224875E+01  0.25762925136E+02  0.15799681004E+04  0.15801975193E+04  0.00000000000E+00 0. -1.
         21    1    1    2  503  502  0.78277224875E+01 -0.25762925136E+02 -0.45091531080E+02  0.52519022516E+02  0.00000000000E+00 0.  1.
</event>
<event>
 4    1  0.2293753E+005  0.2883675E+02  0.7546771E-02  0.1429982E+00
          2   -1    0    0  502    0  0.00000000000E+00  0.00000000000E+00  0.20478333147E+04  0.20478333147E+04  0.00000000000E+00 0. -1.
         21   -1    0    0  503  502 -0.00000000000E+00 -0.00000000000E+00 -0.30331027772E+02  0.30331027772E+02  0.00000000000E+00 0.  1.
          2    1    1    2  501    0  0.19195467857E+02  0.21519577891E+02  0.20408543380E+04  0.20410580558E+04  0.00000000000E+00 0. -1.
         21    1    1    2  503  501 -0.19195467857E+02 -0.21519577891E+02 -0.23352051091E+02  0.37106286651E+02  0.00000000000E+00 0.  1.
</event>
<event>
 4    1  0.2293753E+005  0.4293234E+02  0.7546771E-02  0.1332109E+00
          2   -1    0    0  503    0  0.00000000000E+00  0.00000000000E+00  0.47750843490E+02  0.47750843490E+02  0.00000000000E+00 0.  1.
         21   -1    0    0  501  502 -0.00000000000E+00 -0.00000000000E+00 -0.53509749701E+02  0.53509749701E+02  0.00000000000E+00 0.  1.
          2    1    1    2  501    0  0.42728914915E+02 -0.41744330804E+01  0.23846187248E+02  0.49110352347E+02  0.00000000000E+00 0.  1.
         21    1    1    2  503  502 -0.42728914915E+02  0.41744330804E+01 -0.29605093459E+02  0.52150240844E+02  0.00000000000E+00 0.  1.
</event>
<event>
 4    1  0.2293753E+005  0.2442512E+02  0.7546771E-02  0.1475338E+00
          2   -1    0    0  502    0  0.00000000000E+00  0.00000000000E+00  0.13692984740E+04  0.13692984740E+04  0.00000000000E+00 0. -1.
         21   -1    0    0  503  502 -0.00000000000E+00 -0.00000000000E+00 -0.15014684389E+03  0.15014684389E+03  0.00000000000E+00 0. -1.
          2    1    1    2  501    0 -0.10017371984E+01  0.24404568934E+02  0.13681954130E+04  0.13684134151E+04  0.00000000000E+00 0. -1.
         21    1    1    2  503  501  0.10017371984E+01 -0.24404568934E+02 -0.14904378286E+03  0.15103190282E+03  0.00000000000E+00 0. -1.
</event>
<event>
 4    1  0.2293753E+005  0.2197022E+02  0.7546771E-02  0.1505850E+00
          2   -1    0    0  503    0  0.00000000000E+00  0.00000000000E+00  0.15615472654E+03  0.15615472654E+03  0.00000000000E+00 0.  1.
         21   -1    0    0  501  502 -0.00000000000E+00 -0.00000000000E+00 -0.93125980558E+02  0.93125980558E+02  0.00000000000E+00 0.  1.
          2    1    1    2  501    0 -0.10991854896E+02 -0.19022873813E+02  0.15406869398E+03  0.15562728895E+03  0.00000000000E+00 0.  1.
         21    1    1    2  503  502  0.10991854896E+02  0.19022873813E+02 -0.91039947989E+02  0.93653418154E+02  0.00000000000E+00 0.  1.
</event>
<event>
 4    1  0.2293753E+005  0.2033416E+02  0.7546771E-02  0.1528987E+00
          2   -1    0    0  503    0  0.00000000000E+00  0.00000000000E+00  0.19779582004E+04  0.19779582004E+04  0.00000000000E+00 0. -1.
         21   -1    0    0  501  502 -0.00000000000E+00 -0.00000000000E+00 -0.28685849389E+00  0.28685849389E+00  0.00000000000E+00 0. -1.
          2    1    1    2  501    0  0.14957874411E+02  0.13774613015E+02  0.15040047206E+04  0.15041421733E+04  0.00000000000E+00 0. -1.
         21    1    1    2  503  502 -0.14957874411E+02 -0.13774613015E+02  0.47366662128E+03  0.47410288555E+03  0.00000000000E+00 0. -1.
</event>
<event>
 4    1  0.2293753E+005  0.2311305E+02  0.7546771E-02  0.1491083E+00
          2   -1    0    0  503    0  0.00000000000E+00  0.00000000000E+00  0.29063246699E+01  0.29063246699E+01  0.00000000000E+00 0.  1.
         21   -1    0    0  501  502 -0.00000000000E+00 -0.00000000000E+00 -0.57360715649E+03  0.57360715649E+03  0.00000000000E+00 0.  1.
          2    1    1    2  501    0  0.13131455404E+02 -0.19020457398E+02 -0.47725892247E+02  0.53028046461E+02  0.00000000000E+00 0.  1.
         21    1    1    2  503  502 -0.13131455404E+02  0.19020457398E+02 -0.52297493957E+03  0.52348543470E+03  0.00000000000E+00 0.  1.
</event>
<event>
 4    1  0.2293753E+005  0.2096783E+02  0.7546771E-02  0.1519725E+00
          2   -1    0    0  502    0  0.00000000000E+00  0.00000000000E+00  0.11081704961E+03  0.11081704961E+03  0.00000000000E+00 0. -1.
         21   -1    0    0  503  502 -0.00000000000E+00 -0.00000000000E+00 -0.48291814436E+01  0.48291814436E+01  0.00000000000E+00 0. -1.
          2    1    1    2  501    0 -0.19576274788E+02 -0.75112950776E+01  0.77421249623E+02  0.80210348345E+02  0.00000000000E+00 0. -1.
         21    1    1    2  503  501  0.19576274788E+02  0.75112950776E+01  0.28566618540E+02  0.35435882706E+02  0.00000000000E+00 0. -1.
</event>
<event>
 4    1  0.2293753E+005  0.2422150E+02  0.7546771E-02  0.1477704E+00
          2   -1    0    0  503    0  0.00000000000E+00  0.00000000000E+00  0.14819547817E+04  0.14819547817E+04  0.00000000000E+00 0.  1.
         21   -1    0    0  501  502 -0.00000000000E+00 -0.00000000000E+00 -0.26330887936E+02  0.26330887936E+02  0.00000000000E+00 0. -1.
          2    1    1    2  501    0 -0.22248136563E+02  0.95760791475E+01  0.14762640676E+04  0.14764627588E+04  0.00000000000E+00 0.  1.
         21    1    1    2  503  502  0.22248136563E+02 -0.95760791475E+01 -0.20640173883E+02  0.31822910777E+02  0.00000000000E+00 0. -1.
</event>
<event>
 4    1  0.2293753E+005  0.2378900E+02  0.7546771E-02  0.1482821E+00
          2   -1    0    0  502    0  0.00000000000E+00  0.00000000000E+00  0.31541334003E+03  0.31541334003E+03  0.00000000000E+00 0. -1.
         21   -1    0    0  503  502 -0.00000000000E+00 -0.00000000000E+00 -0.96889679079E+02  0.96889679079E+02  0.00000000000E+00 0.  1.
          2    1    1    2  501    0  0.11331581955E+01  0.23761991732E+02  0.31349566141E+03  0.31439695612E+03  0.00000000000E+00 0. -1.
         21    1    1    2  503  501 -0.11331581955E+01 -0.23761991732E+02 -0.94972000457E+02  0.97906062985E+02  0.00000000000E+00 0.  1.
</event>
<event>
 4    1  0.2293753E+005  0.2328289E+02  0.7546771E-02  0.1488976E+00
          2   -1    0    0  503    0  0.00000000000E+00  0.00000000000E+00  0.83415162809E+03  0.83415162809E+03  0.00000000000E+00 0. -1.
         21   -1    0    0  501  502 -0.00000000000E+00 -0.00000000000E+00 -0.14944167953E+01  0.14944167953E+01  0.00000000000E+00 0. -1.
          2    1    1    2  501    0 -0.23062350587E+02  0.31970392594E+01  0.73042824982E+03  0.73079923455E+03  0.00000000000E+00 0. -1.
         21    1    1    2  503  502  0.23062350587E+02 -0.31970392594E+01  0.10222896147E+03  0.10484681034E+03  0.00000000000E+00 0. -1.
</event>
<event>
 4    1  0.2293753E+005  0.2648657E+02  0.7546771E-02  0.1452835E+00
          2   -1    0    0  502    0  0.00000000000E+00  0.00000000000E+00  0.48904537546E+03  0.48904537546E+03  0.00000000000E+00 0.  1.
         21   -1    0    0  503  502 -0.00000000000E+00 -0.00000000000E+00 -0.25823245128E+01  0.25823245128E+01  0.00000000000E+00 0.  1.
          2    1    1    2  501    0 -0.18246368042E+02 -0.19199174449E+02  0.40711594246E+03  0.40797662782E+03  0.00000000000E+00 0.  1.
         21    1    1    2  503  501  0.18246368042E+02  0.19199174449E+02  0.79347108495E+02  0.83651072156E+02  0.00000000000E+00 0.  1.
</event>
<event>
 4    1  0.2293753E+005  0.2074671E+02  0.7546771E-02  0.1522912E+00
          2   -1    0    0  503    0  0.00000000000E+00  0.00000000000E+00  0.31701556651E+01  0.31701556651E+01  0.00000000000E+00 0. -1.
         21   -1    0    0  501  502 -0.00000000000E+00 -0.00000000000E+00 -0.31328174848E+03  0.31328174848E+03  0.00000000000E+00 0. -1.
          2    1    1    2  501    0 -0.20742885890E+02  0.39826320911E+00 -0.35953986810E+02  0.41510421537E+02  0.00000000000E+00 0. -1.
         21    1    1    2  503  502  0.20742885890E+02 -0.39826320911E+00 -0.27415760601E+03  0.27494148261E+03  0.00000000000E+00 0. -1.
</event>
<event>
 4    1  0.2293753E+005  0.2617152E+02  0.7546771E-02  0.1456113E+00
          2   -1    0    0  503    0  0.00000000000E+00  0.00000000000E+00  0.91950212968E+03  0.91950212968E+03  0.00000000000E+00 0. -1.
         21   -1    0    0  501  502 -0.00000000000E+00 -0.00000000000E+00 -0.36407170559E+01  0.36407170559E+01  0.00000000000E+00 0.  1.
          2    1    1    2  501    0  0.26070223903E+02 -0.23004161196E+01  0.86958256814E+03  0.86997631652E+03  0.00000000000E+00 0. -1.
         21    1    1    2  503  502 -0.26070223903E+02  0.23004161196E+01  0.46278844486E+02  0.53166530220E+02  0.00000000000E+00 0.  1.
</event>
<event>
 4    1  0.2293753E+005  0.2258033E+02  0.7546771E-02  0.1497836E+00
          2   -1    0    0  502    0  0.00000000000E+00  0.00000000000E+00  0.49750212785E+03  0.49750212785E+03  0.00000000000E+00 0.  1.
         21   -1    0    0  503  502 -0.00000000000E+00 -0.00000000000E+00 -0.13974571236E+03  0.13974571236E+03  0.00000000000E+00 0. -1.
          2    1    1    2  501    0 -0.22576067993E+02 -0.43861582082E+00  0.49633162114E+03  0.49684499532E+03  0.00000000000E+00 0.  1.
         21    1    1    2  503  501  0.22576067993E+02  0.43861582082E+00 -0.13857520566E+03  0.14040284489E+03  0.00000000000E+00 0. -1.
</event>
<event>
 4    1  0.2293753E+005  0.2374175E+02  0.7546771E-02  0.1483388E+00
          2   -1    0    0  502    0  0.00000000000E+00  0.00000000000E+00  0.70588632164E+03  0.70588632164E+03  0.00000000000E+00 0. -1.
         21   -1    0    0  503  502 -0.00000000000E+00 -0.00000000000E+00 -0.11868642152E+02  0.11868642152E+02  0.00000000000E+00 0. -1.
          2    1    1    2  501    0 -0.20305075327E+02  0.12303439118E+02  0.69360338312E+03  0.69400959920E+03  0.00000000000E+00 0. -1.
         21    1    1    2  503  501  0.20305075327E+02 -0.12303439118E+02  0.41429636307E+00  0.23745364593E+02  0.00000000000E+00 0. -1.
</event>
<event>
 4    1  0.2293753E+005  0.2633913E+02  0.7546771E-02  0.1454362E+00
          2   -1    0    0  502    0  0.00000000000E+00  0.00000000000E+00  0.47508783044E+01  0.47508783044E+01  0.00000000000E+00 0. -1.
         21   -1    0    0  503  502 -0.00000000000E+00 -0.00000000000E+00 -0.21567998737E+03  0.21567998737E+03  0.00000000000E+00 0. -1.
          2    1    1    2  501    0 -0.18848543997E+02  0.18397880354E+02 -0.42830304242E+02  0.50281055814E+02  0.00000000000E+00 0. -1.
         21    1    1    2  503  501  0.18848543997E+02 -0.18397880354E+02 -0.16809880482E+03  0.17014980986E+03  0.00000000000E+00 0. -1.
</event>
<event>
 4    1  0.2293753E+005  0.2078299E+02  0.7546771E-02  0.1522386E+00
          2   -1    0    0  503    0  0.00000000000E+00  0.00000000000E+00  0.47153715487E+03  0.47153715487E+03  0.00000000000E+00 0. -1.
         21   -1    0    0  501  502 -0.00000000000E+00 -0.00000000000E+00 -0.92170797032E+00  0.92170797032E+00  0.00000000000E+00 0.  1.
          2    1    1    2  501    0 -0.19891769844E+02  0.60208130642E+01  0.21673388744E+03  0.21772806585E+03  0.00000000000E+00 0. -1.
         21    1    1    2  503  502  0.19891769844E+02 -0.60208130642E+01  0.25388155947E+03  0.25473079699E+03  0.00000000000E+00 0.  1.
</event>
<event>
 4    1  0.2293753E+005  0.6614561E+02  0.7546771E-02  0.1240270E+00
          2   -1    0    0  502    0  0.00000000000E+00  0.00000000000E+00  0.63192638429E+03  0.63192638429E+03  0.00000000000E+00 0.  1.
         21   -1    0    0  503  502 -0.00000000000E+00 -0.00000000000E+00 -0.20438483788E+02  0.20438483788E+02  0.00000000000E+00 0. -1.
          2    1    1    2  501    0 -0.25009639107E+02 -0.61235285672E+02  0.57098543804E+03  0.57480397764E+03  0.00000000000E+00 0.  1.
         21    1    1    2  503  501  0.25009639107E+02  0.61235285672E+02  0.40502462459E+02  0.77560890434E+02  0.00000000000E+00 0. -1.
</event>
<event>
 4    1  0.2293753E+005  0.5175024E+02  0.7546771E-02  0.1290757E+00
          2   -1    0    0  503    0  0.00000000000E+00  0.00000000000E+00  0.12402292942E+04  0.12402292942E+04  0.00000000000E+00 0. -1.
         21   -1    0    0  501  502 -0.00000000000E+00 -0.00000000000E+00 -0.58775019101E+01  0.58775019101E+01  0.00000000000E+00 0.  1.
          2    1    1    2  501    0 -0.16856862747E+02 -0.48927840739E+02  0.11127316517E+04  0.11139343859E+04  0.00000000000E+00 0. -1.
         21    1    1    2  503  502  0.16856862747E+02  0.48927840739E+02  0.12162014061E+03  0.13217241022E+03  0.00000000000E+00 0.  1.
</event>
<event>
 4    1  0.2293753E+005  0.2061615E+02  0.7546771E-02  0.1524816E+00
          2   -1    0    0  503    0  0.00000000000E+00  0.00000000000E+00  0.15191810092E+02  0.15191810092E+02  0.00000000000E+00 0.  1.
         21   -1    0    0  501  502 -0.00000000000E+00 -0.00000000000E+00 -0.63276329875E+02  0.63276329875E+02  0.00000000000E+00 0. -1.
          2    1    1    2  501    0 -0.79932128040E+00  0.20600643999E+02  0.52615616469E+01  0.21276970617E+02  0.00000000000E+00 0.  1.
         21    1    1    2  503  502  0.79932128040E+00 -0.20600643999E+02 -0.53346081430E+02  0.57191169350E+02  0.00000000000E+00 0. -1.
</event>
<event>
 4    1  0.2293753E+005  0.2128988E+02  0.7546771E-02  0.1515166E+00
          2   -1    0    0  503    0  0.00000000000E+00  0.00000000000E+00  0.23050754928E+03  0.23050754928E+03  0.00000000000E+00 0.  1.
         21   -1    0    0  501  502 -0.00000000000E+00 -0.00000000000E+00 -0.27024892222E+02  0.27024892222E+02  0.00000000000E+00 0.  1.
          2    1    1    2  501    0  0.12382552082E+02 -0.17318528456E+02  0.22573452225E+03  0.22673626433E+03  0.00000000000E+00 0.  1.
         21    1    1    2  503  502 -0.12382552082E+02  0.17318528456E+02 -0.22251865195E+02  0.30796177175E+02  0.00000000000E+00 0.  1.
</event>
<event>
 4    1  0.2293753E+005  0.2826025E+02  0.7546771E-02  0.1435343E+00
          2   -1    0    0  502    0  0.00000000000E+00  0.00000000000E+00  0.45763737059E+03  0.45763737059E+03  0.00000000000E+00 0.  1.
         21   -1    0    0  503  502 -0.00000000000E+00 -0.00000000000E+00 -0.56638321346E+01  0.56638321346E+01  0.00000000000E+00 0.  1.
          2    1    1    2  501    0 -0.26779491274E+02 -0.90277572434E+01  0.41867215859E+03  0.41962485381E+03  0.00000000000E+00 0.  1.
         21    1    1    2  503  501  0.26779491274E+02  0.90277572434E+01  0.33301379860E+02  0.43676348913E+02  0.00000000000E+00 0.  1.
</event>
<event>
 4    1  0.2293753E+005  0.2405466E+02  0.7546771E-02  0.1479663E+00
          2   -1    0    0  502    0  0.00000000000E+00  0.00000000000E+00  0.17489248223E+03  0.17489248223E+03  0.00000000000E+00 0.  1.
         21   -1    0    0  503  502 -0.00000000000E+00 -0.00000000000E+00 -0.34781678212E+02  0.34781678212E+02  0.00000000000E+00 0.  1.
          2    1    1    2  501    0  0.23605073663E+02  0.46289293365E+01  0.16978180611E+03  0.17147736928E+03  0.00000000000E+00 0.  1.
         21    1    1    2  503  501 -0.23605073663E+02 -0.46289293365E+01 -0.29671002096E+02  0.38196791159E+02  0.00000000000E+00 0.  1.
</event>
<event>
 4    1  0.2293753E+005  0.6169157E+02  0.7546771E-02  0.1254191E+00
          2   -1    0    0  502    0  0.00000000000E+00  0.00000000000E+00  0.29145564322E+04  0.29145564322E+04  0.00000000000E+00 0. -1.
         21   -1    0    0  503  502 -0.00000000000E+00 -0.00000000000E+00 -0.34853330894E+01  0.34853330894E+01  0.00000000000E+00 0.  1.
          2    1    1    2  501    0  0.37222763520E+02  0.49196708512E+02  0.26093084355E+04  0.26100376170E+04  0.00000000000E+00 0. -1.
         21    1    1    2  503  501 -0.37222763520E+02 -0.49196708512E+02  0.30176266355E+03  0.30800414830E+03  0.00000000000E+00 0.  1.
</event>
<event>
 4    1  0.2293753E+005  0.2360521E+02  0.7546771E-02  0.1485035E+00
          2   -1    0    0  503    0  0.00000000000E+00  0.00000000000E+00  0.17525405509E+04  0.17525405509E+04  0.00000000000E+00 0.  1.
         21   -1    0    0  501  502 -0.00000000000E+00 -0.00000000000E+00 -0.33541591311E+00  0.33541591311E+00  0.00000000000E+00 0.  1.
          2    1    1    2  501    0 -0.10035624910E+02 -0.21365674007E+02  0.67605758189E+03  0.67646955572E+03  0.00000000000E+00 0.  1.
         21    1    1    2  503  502  0.10035624910E+02  0.21365674007E+02  0.10761475531E+04  0.10764064111E+04  0.00000000000E+00 0.  1.
</event>
<event>
 4    1  0.2293753E+005  0.2691122E+02  0.7546771E-02  0.1448502E+00
          2   -1    0    0  503    0  0.00000000000E+00  0.00000000000E+00  0.47106219104E+03  0.47106219104E+03  0.00000000000E+00 0.  1.
         21   -1    0    0  501  502 -0.00000000000E+00 -0.00000000000E+00 -0.10421364378E+02  0.10421364378E+02  0.00000000000E+00 0.  1.
          2    1    1    2  501    0 -0.26589628733E+02  0.41479343532E+01  0.45259634365E+03  0.45339570355E+03  0.00000000000E+00 0.  1.
         21    1    1    2  503  502  0.26589628733E+02 -0.41479343532E+01  0.80444830165E+01  0.28087851868E+02  0.00000000000E+00 0.  1.
</event>
<event>
 4    1  0.2293753E+005  0.2046538E+02  0.7546771E-02  0.1527036E+00
          2   -1    0    0  503    0  0.00000000000E+00  0.00000000000E+00  0.76846605131E+03  0.76846605131E+03  0.00000000000E+00 0.  1.
         21   -1    0    0  501  502 -0.00000000000E+00 -0.00000000000E+00 -0.77650571037E+00  0.77650571037E+00  0.00000000000E+00 0.  1.
          2    1    1    2  501    0 -0.16370189012E+01 -0.20399805257E+02  0.59384511380E+03  0.59419765320E+03  0.00000000000E+00 0.  1.
         21    1    1    2  503  502  0.16370189012E+01  0.20399805257E+02  0.17384443179E+03  0.17504490381E+03  0.00000000000E+00 0.  1.
</event>
<event>
 4    1  0.2293753E+005  0.2493257E+02  0.7546771E-02  0.1469559E+00
          2   -1    0    0  502    0  0.00000000000E+00  0.00000000000E+00  0.10157746155E+04  0.10157746155E+04  0.00000000000E+00 0.  1.
         21   -1    0    0  503  502 -0.00000000000E+00 -0.00000000000E+00 -0.76020867767E+00  0.76020867767E+00  0.00000000000E+00 0. -1.
          2    1    1    2  501    0  0.13643221962E+01  0.24895211078E+02  0.73194354563E+03  0.73236806791E+03  0.00000000000E+00 0.  1.
         21    1    1    2  503  501 -0.13643221962E+01 -0.24895211078E+02  0.28307086120E+03  0.28416675627E+03  0.00000000000E+00 0. -1.
</event>
<event>
 4    1  0.2293753E+005  0.2039678E+02  0.7546771E-02  0.1528054E+00
          2   -1    0    0  502    0  0.00000000000E+00  0.00000000000E+00  0.23049900781E+03  0.23049900781E+03  0.00000000000E+00 0. -1.
         21   -1    0    0  503  502 -0.00000000000E+00 -0.00000000000E+00 -0.73433892482E+01  0.73433892482E+01  0.00000000000E+00 0. -1.
          2    1    1    2  501    0  0.36780167718E+00  0.20393462913E+02  0.21485549558E+03  0.21582148315E+03  0.00000000000E+00 0. -1.
         21    1    1    2  503  501 -0.36780167718E+00 -0.20393462913E+02  0.83001229732E+01  0.22020913901E+02  0.00000000000E+00 0. -1.
</event>
<event>
 4    1  0.2293753E+005  0.2085201E+02  0.7546771E-02  0.1521388E+00
          2   -1    0    0  502    0  0.00000000000E+00  0.00000000000E+00  0.55258994750E+02  0.55258994750E+02  0.00000000000E+00 0.  1.
         21   -1    0    0  503  502 -0.00000000000E+00 -0.00000000000E+00 -0.11920720343E+02  0.11920720343E+02  0.00000000000E+00 0. -1.
          2    1    1    2  501    0  0.20626159656E+02 -0.30606636284E+01  0.41253197452E+02  0.46223721442E+02  0.00000000000E+00 0.  1.
         21    1    1    2  503  501 -0.20626159656E+02  0.30606636284E+01  0.20850769554E+01  0.20955993651E+02  0.00000000000E+00 0. -1.
</event>
<event>
 4    1  0.2293753E+005  0.2103084E+02  0.7546771E-02  0.1518825E+00
          2   -1    0    0  503    0  0.00000000000E+00  0.00000000000E+00  0.64497815457E+02  0.64497815457E+02  0.00000000000E+00 0.  1.
         21   -1    0    0  501  502 -0.00000000000E+00 -0.00000000000E+00 -0.35451601531E+02  0.35451601531E+02  0.00000000000E+00 0.  1.
          2    1    1    2  501    0  0.20716136056E+02  0.36246307145E+01  0.59404908020E+02  0.63017770016E+02  0.00000000000E+00 0.  1.
         21    1    1    2  503  502 -0.20716136056E+02 -0.36246307145E+01 -0.30358694094E+02  0.36931646971E+02  0.00000000000E+00 0.  1.
</event>
<event>
 4    1  0.2293753E+005  0.2736232E+02  0.7546771E-02  0.1444002E+00
          2   -1    0    0  503    0  0.00000000000E+00  0.00000000000E+00  0.25191815155E+03  0.25191815155E+03  0.00000000000E+00 0. -1.
         21   -1    0    0  501  502 -0.00000000000E+00 -0.00000000000E+00 -0.24049737963E+02  0.24049737963E+02  0.00000000000E+00 0. -1.
          2    1    1    2  501    0  0.25787298174E+02 -0.91494273498E+01  0.24311131124E+03  0.24464628839E+03  0.00000000000E+00 0. -1.
         21    1    1    2  503  502 -0.25787298174E+02  0.91494273498E+01 -0.15242897658E+02  0.31321601124E+02  0.00000000000E+00 0. -1.
</event>
<event>
 4    1  0.2293753E+005  0.3017275E+02  0.7546771E-02  0.1418101E+00
          2   -1    0    0  502    0  0.00000000000E+00  0.00000000000E+00  0.14875060279E+04  0.14875060279E+04  0.00000000000E+00 0.  1.
         21   -1    0    0  503  502 -0.00000000000E+00 -0.00000000000E+00 -0.30684736963E+01  0.30684736963E+01  0.00000000000E+00 0. -1.
          2    1    1    2  501    0  0.37749509534E+01 -0.29935673560E+02  0.14090502744E+04  0.14093732901E+04  0.00000000000E+00 0.  1.
         21    1    1    2  503  501 -0.37749509534E+01  0.29935673560E+02  0.75387279743E+02  0.81201211525E+02  0.00000000000E+00 0. -1.
</event>
<event>
 4    1  0.2293753E+005  0.2863417E+02  0.7546771E-02  0.1431849E+00
          2   -1    0    0  502    0  0.00000000000E+00  0.00000000000E+00  0.20521513726E+03  0.20521513726E+03  0.00000000000E+00 0. -1.
         21   -1    0    0  503  502 -0.00000000000E+00 -0.00000000000E+00 -0.58514775408E+01  0.58514775408E+01  0.00000000000E+00 0.  1.
          2    1    1    2  501    0  0.17602197982E+02  0.22584915144E+02  0.15911861187E+03  0.16167451379E+03  0.00000000000E+00 0. -1.
         21    1    1    2  503  501 -0.17602197982E+02 -0.22584915144E+02  0.40245047849E+02  0.49392101010E+02  0.00000000000E+00 0.  1.
</event>
<event>
 4    1  0.2293753E+005  0.2827530E+02  0.7546771E-02  0.1435202E+00
          2   -1    0    0  502    0  0.00000000000E+00  0.00000000000E+00  0.89163481223E+03  0.89163481223E+03  0.00000000000E+00 0.  1.
         21   -1    0    0  503  502 -0.00000000000E+00 -0.00000000000E+00 -0.12492179948E+01  0.12492179948E+01  0.00000000000E+00 0.  1.
          2    1    1    2  501    0  0.31893322751E+00 -0.28273502883E+02  0.68236382358E+03  0.68294939814E+03  0.00000000000E+00 0.  1.
         21    1    1    2  503  501 -0.31893322751E+00  0.28273502883E+02  0.20802177065E+03  0.20993463208E+03  0.00000000000E+00 0.  1.
</event>
<event>
 4    1  0.2293753E+005  0.2023020E+02  0.7546771E-02  0.1530545E+00
          2   -1    0    0  502    0  0.00000000000E+00  0.00000000000E+00  0.26625428076E+03  0.26625428076E+03  0.00000000000E+00 0.  1.
         21   -1    0    0  503  502 -0.00000000000E+00 -0.00000000000E+00 -0.89616196001E+02  0.89616196001E+02  0.00000000000E+00 0. -1.
          2    1    1    2  501    0  0.63401774225E+01  0.19211018404E+02  0.26472169895E+03  0.26549357614E+03  0.00000000000E+00 0.  1.
         21    1    1    2  503  501 -0.63401774225E+01 -0.19211018404E+02 -0.88083614187E+02  0.90376900623E+02  0.00000000000E+00 0. -1.
</event>
<event>
 4    1  0.2293753E+005  0.1374055E+03  0.7546771E-02  0.1111275E+00
          2   -1    0    0  502    0  0.00000000000E+00  0.00000000000E+00  0.78923108813E+03  0.78923108813E+03  0.00000000000E+00 0.  1.
         21   -1    0    0  503  502 -0.00000000000E+00 -0.00000000000E+00 -0.32131318893E+03  0.32131318893E+03  0.00000000000E+00 0. -1.
          2    1    1    2  501    0 -0.69837398799E+02 -0.11833431514E+03  0.76816080273E+03  0.78035331182E+03  0.00000000000E+00 0.  1.
         21    1    1    2  503  501  0.69837398799E+02  0.11833431514E+03 -0.30024290353E+03  0.33019096524E+03  0.00000000000E+00 0. -1.
</event>
<event>
 4    1  0.2293753E+005  0.3354573E+02  0.7546771E-02  0.1391086E+00
          2   -1    0    0  503    0  0.00000000000E+00  0.00000000000E+00  0.18076611329E+03  0.18076611329E+03  0.00000000000E+00 0.  1.
         21   -1    0    0  501  502 -0.00000000000E+00 -0.00000000000E+00 -0.62433536649E+01  0.62433536649E+01  0.00000000000E+00 0. -1.
          2    1    1    2  501    0 -0.30607541394E+02 -0.13729323367E+02  0.82227562321E+02  0.88807026274E+02  0.00000000000E+00 0.  1.
         21    1    1    2  503  502  0.30607541394E+02  0.13729323367E+02  0.92295197300E+02  0.98202440677E+02  0.00000000000E+00 0. -1.
</event>
<event>
 4    1  0.2293753E+005  0.3338674E+02  0.7546771E-02  0.1392274E+00
          2   -1    0    0  502    0  0.00000000000E+00  0.00000000000E+00  0.50778438920E+03  0.50778438920E+03  0.00000000000E+00 0.  1.
         21   -1    0    0  503  502 -0.00000000000E+00 -0.00000000000E+00 -0.17605087420E+02  0.17605087420E+02  0.00000000000E+00 0.  1.
          2    1    1    2  501    0 -0.65975052104E+00  0.33380220514E+02  0.49086164872E+03  0.49199576479E+03  0.00000000000E+00 0.  1.
         21    1    1    2  503  501  0.65975052104E+00 -0.33380220514E+02 -0.68234693760E+00  0.33393711828E+02  0.00000000000E+00 0.  1.
</event>
<event>
 4    1  0.2293753E+005  0.2410247E+02  0.7546771E-02  0.1479100E+00
          2   -1    0    0  502    0  0.00000000000E+00  0.00000000000E+00  0.54339532363E+03  0.54339532363E+03  0.00000000000E+00 0.  1.
         21   -1    0    0  503  502 -0.00000000000E+00 -0.00000000000E+00 -0.33502592236E+01  0.33502592236E+01  0.00000000000E+00 0. -1.
          2    1    1    2  501    0  0.61628802645E+01 -0.23301243419E+02  0.49560040251E+03  0.49618614250E+03  0.00000000000E+00 0.  1.
         21    1    1    2  503  501 -0.61628802645E+01  0.23301243419E+02  0.44444661891E+02  0.50559440351E+02  0.00000000000E+00 0. -1.
</event>
<event>
 4    1  0.2293753E+005  0.2267458E+02  0.7546771E-02  0.1496625E+00
          2   -1    0    0  503    0  0.00000000000E+00  0.00000000000E+00  0.77890596432E+02  0.77890596432E+02  0.00000000000E+00 0.  1.
         21   -1    0    0  501  502 -0.00000000000E+00 -0.00000000000E+00 -0.54776435838E+02  0.54776435838E+02  0.00000000000E+00 0.  1.
          2    1    1    2  501    0  0.14530481712E+02 -0.17406940853E+02  0.73765630290E+02  0.77171916529E+02  0.00000000000E+00 0.  1.
         21    1    1    2  503  502 -0.14530481712E+02  0.17406940853E+02 -0.50651469697E+02  0.55495115741E+02  0.00000000000E+00 0.  1.
</event>
<event>
 4    1  0.2293753E+005  0.2273362E+02  0.7546771E-02  0.1495870E+00
          2   -1    0    0  503    0  0.00000000000E+00  0.00000000000E+00  0.12025048143E+04  0.12025048143E+04  0.00000000000E+00 0. -1.
         21   -1    0    0  501  502 -0.00000000000E+00 -0.00000000000E+00 -0.78708374353E+01  0.78708374353E+01  0.00000000000E+00 0. -1.
          2    1    1    2  501    0 -0.11389199005E+02 -0.19674949372E+02  0.11857498518E+04  0.11859677603E+04  0.00000000000E+00 0. -1.
         21    1    1    2  503  502  0.11389199005E+02  0.19674949372E+02  0.88841251240E+01  0.24407891470E+02  0.00000000000E+00 0. -1.
</event>
<event>
 4    1  0.2293753E+005  0.2566424E+02  0.7546771E-02  0.1461508E+00
          2   -1    0    0  503    0  0.00000000000E+00  0.00000000000E+00  0.95168300545E+01  0.95168300545E+01  0.00000000000E+00 0. -1.
         21   -1    0    0  501  502 -0.00000000000E+00 -0.00000000000E+00 -0.16100751869E+03  0.16100751869E+03  0.00000000000E+00 0. -1.
          2    1    1    2  501    0 -0.20405486245E+02 -0.15565000034E+02 -0.11365419511E+02  0.28068235705E+02  0.00000000000E+00 0. -1.
         21    1    1    2  503  502  0.20405486245E+02  0.15565000034E+02 -0.14012526913E+03  0.14245611304E+03  0.00000000000E+00 0. -1.
</event>
<event>
 4    1  0.2293753E+005  0.2200046E+02  0.7546771E-02  0.1505446E+00
          2   -1    0    0  502    0  0.00000000000E+00  0.00000000000E+00  0.10856371188E+04  0.10856371188E+04  0.00000000000E+00 0.  1.
         21   -1    0    0  503  502 -0.00000000000E+00 -0.00000000000E+00 -0.44670419778E+01  0.44670419778E+01  0.00000000000E+00 0. -1.
          2    1    1    2  501    0 -0.14140196178E+02 -0.16854530205E+02  0.10577224226E+04  0.10579512009E+04  0.00000000000E+00 0.  1.
         21    1    1    2  503  501  0.14140196178E+02  0.16854530205E+02  0.23447654204E+02  0.32152959803E+02  0.00000000000E+00 0. -1.
</event>
<event>
 4    1  0.2293753E+005  0.2612147E+02  0.7546771E-02  0.1456638E+00
          2   -1    0    0  503    0  0.00000000000E+00  0.00000000000E+00  0.14230657638E+02  0.14230657638E+02  0.00000000000E+00 0.  1.
         21   -1    0    0  501  502 -0.00000000000E+00 -0.00000000000E+00 -0.82826846659E+02  0.82826846659E+02  0.00000000000E+00 0. -1.
          2    1    1    2  501    0  0.24956893717E+02  0.77126246483E+01 -0.28064880999E+01  0.26271800441E+02  0.00000000000E+00 0.  1.
         21    1    1    2  503  502 -0.24956893717E+02 -0.77126246483E+01 -0.65789700921E+02  0.70785703855E+02  0.00000000000E+00 0. -1.
</event>
<event>
 4    1  0.2293753E+005  0.2005051E+02  0.7546771E-02  0.1533265E+00
          2   -1    0    0  502    0  0.00000000000E+00  0.00000000000E+00  0.65956505600E+03  0.65956505600E+03  0.00000000000E+00 0.  1.
         21   -1    0    0  503  502 -0.00000000000E+00 -0.00000000000E+00 -0.73706786073E+01  0.73706786073E+01  0.00000000000E+00 0.  1.
          2    1    1    2  501    0 -0.11101674275E+02  0.16696578344E+02  0.64547929643E+03  0.64579063559E+03  0.00000000000E+00 0.  1.
         21    1    1    2  503  501  0.11101674275E+02 -0.16696578344E+02  0.67150809668E+01  0.21145099018E+02  0.00000000000E+00 0.  1.
</event>
<event>
 4    1  0.2293753E+005  0.3183223E+02  0.7546771E-02  0.1404315E+00
          2   -1    0    0  502    0  0.00000000000E+00  0.00000000000E+00  0.71417147442E+02  0.71417147442E+02  0.00000000000E+00 0.  1.
         21   -1    0    0  503  502 -0.00000000000E+00 -0.00000000000E+00 -0.69234791169E+02  0.69234791169E+02  0.00000000000E+00 0.  1.
          2    1    1    2  501    0  0.31399108174E+01 -0.31676995861E+02  0.63798489091E+02  0.71298936296E+02  0.00000000000E+00 0.  1.
         21    1    1    2  503  501 -0.31399108174E+01  0.31676995861E+02 -0.61616132817E+02  0.69353002315E+02  0.00000000000E+00 0.  1.
</event>
<event>
 4    1  0.2293753E+005  0.3019227E+02  0.7546771E-02  0.1417933E+00
          2   -1    0    0  502    0  0.00000000000E+00  0.00000000000E+00  0.19864189770E+03  0.19864189770E+03  0.00000000000E+00 0. -1.
         21   -1    0    0  503  502 -0.00000000000E+00 -0.00000000000E+00 -0.15117837281E+03  0.15117837281E+03  0.00000000000E+00 0.  1.
          2    1    1    2  501    0 -0.20766957826E+02 -0.21915897094E+02  0.19596673704E+03  0.19827893259E+03  0.00000000000E+00 0. -1.
         21    1    1    2  503  501  0.20766957826E+02  0.21915897094E+02 -0.14850321215E+03  0.15154133793E+03  0.00000000000E+00 0.  1.
</event>
<event>
 4    1  0.2293753E+005  0.2241145E+02  0.7546771E-02  0.1500024E+00
          2   -1    0    0  502    0  0.00000000000E+00  0.00000000000E+00  0.61663522316E+02  0.61663522316E+02  0.00000000000E+00 0. -1.
         21   -1    0    0  503  502 -0.00000000000E+00 -0.00000000000E+00 -0.44820606040E+02  0.44820606040E+02  0.00000000000E+00 0. -1.
          2    1    1    2  501    0 -0.13349818392E+02 -0.18001545296E+02  0.56583221277E+02  0.60859955753E+02  0.00000000000E+00 0. -1.
         21    1    1    2  503  501  0.13349818392E+02  0.18001545296E+02 -0.39740305001E+02  0.45624172603E+02  0.00000000000E+00 0. -1.
</event>
<event>
 4    1  0.2293753E+005  0.2061824E+02  0.7546771E-02  0.1524786E+00
          2   -1    0    0  503    0  0.00000000000E+00  0.00000000000E+00  0.67372050702E+03  0.67372050702E+03  0.00000000000E+00 0. -1.
         21   -1    0    0  501  502 -0.00000000000E+00 -0.00000000000E+00 -0.48850443700E+02  0.48850443700E+02  0.00000000000E+00 0.  1.
          2    1    1    2  501    0  0.84163093874E+01 -0.18822258523E+02  0.67137959803E+03  0.67169611903E+03  0.00000000000E+00 0. -1.
         21    1    1    2  503  502 -0.84163093874E+01  0.18822258523E+02 -0.46509534711E+02  0.50874831682E+02  0.00000000000E+00 0.  1.
</event>
<event>
 4    1  0.2293753E+005  0.6932474E+02  0.7546771E-02  0.1231067E+00
          2   -1    0    0  502    0  0.00000000000E+00  0.00000000000E+00  0.20494949084E+03  0.20494949084E+03  0.00000000000E+00 0.  1.
         21   -1    0    0  503  502 -0.00000000000E+00 -0.00000000000E+00 -0.13757995199E+03  0.13757995199E+03  0.00000000000E+00 0.  1.
          2    1    1    2  501    0 -0.21100780695E+02 -0.66035417486E+02  0.18967288468E+03  0.20194485012E+03  0.00000000000E+00 0.  1.
         21    1    1    2  503  501  0.21100780695E+02  0.66035417486E+02 -0.12230334582E+03  0.14058459271E+03  0.00000000000E+00 0.  1.
</event>
<event>
 4    1  0.2293753E+005  0.2187501E+02  0.7546771E-02  0.1507129E+00
          2   -1    0    0  502    0  0.00000000000E+00  0.00000000000E+00  0.68090309314E+03  0.68090309314E+03  0.00000000000E+00 0.  1.
         21   -1    0    0  503  502 -0.00000000000E+00 -0.00000000000E+00 -0.85592468946E+01  0.85592468946E+01  0.00000000000E+00 0.  1.
          2    1    1    2  501    0 -0.21874917323E+02  0.62435228329E-01  0.66644775190E+03  0.66680666007E+03  0.00000000000E+00 0.  1.
         21    1    1    2  503  501  0.21874917323E+02 -0.62435228329E-01  0.58960943481E+01  0.22655679964E+02  0.00000000000E+00 0.  1.
</event>
<event>
 4    1  0.2293753E+005  0.2463046E+02  0.7546771E-02  0.1472980E+00
          2   -1    0    0  503    0  0.00000000000E+00  0.00000000000E+00  0.44215072835E+03  0.44215072835E+03  0.00000000000E+00 0. -1.
         21   -1    0    0  501  502 -0.00000000000E+00 -0.00000000000E+00 -0.15675028005E+01  0.15675028005E+01  0.00000000000E+00 0. -1.
          2    1    1    2  501    0 -0.77821788543E+01  0.23368727308E+02  0.29863041624E+03  0.29964443133E+03  0.00000000000E+00 0. -1.
         21    1    1    2  503  502  0.77821788543E+01 -0.23368727308E+02  0.14195280931E+03  0.14407379982E+03  0.00000000000E+00 0. -1.
</event>
<event>
 4    1  0.2293753E+005  0.2540916E+02  0.7546771E-02  0.1464278E+00
          2   -1    0    0  502    0  0.00000000000E+00  0.00000000000E+00  0.11187372985E+04  0.11187372985E+04  0.00000000000E+00 0.  1.
         21   -1    0    0  503  502 -0.00000000000E+00 -0.00000000000E+00 -0.72149140354E+02  0.72149140354E+02  0.00000000000E+00 0.  1.
          2    1    1    2  501    0 -0.25398898388E+02 -0.72192897704E+00  0.11163511216E+04  0.11166402518E+04  0.00000000000E+00 0.  1.
         21    1    1    2  503  501  0.25398898388E+02  0.72192897704E+00 -0.69762963464E+02  0.74246187054E+02  0.00000000000E+00 0.  1.
</event>
<event>
 4    1  0.2293753E+005  0.2341913E+02  0.7546771E-02  0.1487301E+00
          2   -1    0    0  502    0  0.00000000000E+00  0.00000000000E+00  0.29323188576E+03  0.29323188576E+03  0.00000000000E+00 0. -1.
         21   -1    0    0  503  502 -0.00000000000E+00 -0.00000000000E+00 -0.16056029145E+02  0.16056029145E+02  0.00000000000E+00 0.  1.
          2    1    1    2  501    0 -0.55928708631E+00 -0.23412452550E+02  0.28394576559E+03  0.28490990424E+03  0.00000000000E+00 0. -1.
         21    1    1    2  503  501  0.55928708631E+00  0.23412452550E+02 -0.67699089765E+01  0.24378010665E+02  0.00000000000E+00 0.  1.
</event>
<event>
 4    1  0.2293753E+005  0.2231698E+02  0.7546771E-02  0.1501258E+00
          2   -1    0    0  502    0  0.00000000000E+00  0.00000000000E+00  0.23941218466E+03  0.23941218466E+03  0.00000000000E+00 0. -1.
         21   -1    0    0  503  502 -0.00000000000E+00 -0.00000000000E+00 -0.21855502048E+01  0.21855502048E+01  0.00000000000E+00 0. -1.
          2    1    1    2  501    0  0.17054459772E+02 -0.14394201101E+02  0.14512316608E+03  0.14682908757E+03  0.00000000000E+00 0. -1.
         21    1    1    2  503  501 -0.17054459772E+02  0.14394201101E+02  0.92103468380E+02  0.94768647300E+02  0.00000000000E+00 0. -1.
</event>
<event>
 4    1  0.2293753E+005  0.2218370E+02  0.7546771E-02  0.1503011E+00
          2   -1    0    0  503    0  0.00000000000E+00  0.00000000000E+00  0.12958539441E+02  0.12958539441E+02  0.00000000000E+00 0.  1.
         21   -1    0    0  501  502 -0.00000000000E+00 -0.00000000000E+00 -0.39347532609E+03  0.39347532609E+03  0.00000000000E+00 0. -1.
          2    1    1    2  501    0 -0.15905878071E+02  0.15463496153E+02  0.29030230605E+01  0.22372845446E+02  0.00000000000E+00 0.  1.
         21    1    1    2  503  502  0.15905878071E+02 -0.15463496153E+02 -0.38341980971E+03  0.38406102009E+03  0.00000000000E+00 0. -1.
</event>
<event>
 4    1  0.2293753E+005  0.2531563E+02  0.7546771E-02  0.1465303E+00
          2   -1    0    0  503    0  0.00000000000E+00  0.00000000000E+00  0.14809914377E+02  0.14809914377E+02  0.00000000000E+00 0. -1.
         21   -1    0    0  501  502 -0.00000000000E+00 -0.00000000000E+00 -0.43427834536E+02  0.43427834536E+02  0.00000000000E+00 0. -1.
          2    1    1    2  501    0 -0.16469958167E+02 -0.19225549638E+02 -0.12574761706E+02  0.28266692641E+02  0.00000000000E+00 0. -1.
         21    1    1    2  503  502  0.16469958167E+02  0.19225549638E+02 -0.16043158453E+02  0.29971056272E+02  0.00000000000E+00 0. -1.
</event>
<event>
 4    1  0.2293753E+005  0.2212217E+02  0.7546771E-02  0.1503825E+00
          2   -1    0    0  502    0  0.00000000000E+00  0.00000000000E+00  0.28012295284E+03  0.28012295284E+03  0.00000000000E+00 0.  1.
         21   -1    0    0  503  502 -0.00000000000E+00 -0.00000000000E+00 -0.34054364472E+01  0.34054364472E+01  0.00000000000E+00 0.  1.
          2    1    1    2  501    0 -0.17513648445E+02  0.13515274920E+02  0.23728744059E+03  0.23831642831E+03  0.00000000000E+00 0.  1.
         21    1    1    2  503  501  0.17513648445E+02 -0.13515274920E+02  0.39430075795E+02  0.45211960975E+02  0.00000000000E+00 0.  1.
</event>
<event>
 4    1  0.2293753E+005  0.2200859E+02  0.7546771E-02  0.1505337E+00
          2   -1    0    0  502    0  0.00000000000E+00  0.00000000000E+00  0.11971837665E+03  0.11971837665E+03  0.00000000000E+00 0.  1.
         21   -1    0    0  503  502 -0.00000000000E+00 -0.00000000000E+00 -0.48478407132E+02  0.48478407132E+02  0.00000000000E+00 0. -1.
          2    1    1    2  501    0 -0.21726650392E+02  0.35115096192E+01  0.11613252777E+03  0.11819958563E+03  0.00000000000E+00 0.  1.
         21    1    1    2  503  501  0.21726650392E+02 -0.35115096192E+01 -0.44892558249E+02  0.49997198153E+02  0.00000000000E+00 0. -1.
</event>
<event>
 4    1  0.2293753E+005  0.2216393E+02  0.7546771E-02  0.1503272E+00
          2   -1    0    0  503    0  0.00000000000E+00  0.00000000000E+00  0.71928136653E+03  0.71928136653E+03  0.00000000000E+00 0.  1.
         21   -1    0    0  501  502 -0.00000000000E+00 -0.00000000000E+00 -0.69150919867E+00  0.69150919867E+00  0.00000000000E+00 0.  1.
          2    1    1    2  501    0  0.11495884972E+02 -0.18949520642E+02  0.39932390820E+03  0.39993852449E+03  0.00000000000E+00 0.  1.
         21    1    1    2  503  502 -0.11495884972E+02  0.18949520642E+02  0.31926594913E+03  0.32003435125E+03  0.00000000000E+00 0.  1.
</event>
<event>
 4    1  0.2293753E+005  0.3342973E+02  0.7546771E-02  0.1391952E+00
          2   -1    0    0  502    0  0.00000000000E+00  0.00000000000E+00  0.64467703282E+02  0.64467703282E+02  0.00000000000E+00 0. -1.
         21   -1    0    0  503  502 -0.00000000000E+00 -0.00000000000E+00 -0.70073819277E+02  0.70073819277E+02  0.00000000000E+00 0. -1.
          2    1    1    2  501    0  0.25593350695E+02  0.21506450870E+02  0.55556727660E+02  0.64839008453E+02  0.00000000000E+00 0. -1.
         21    1    1    2  503  501 -0.25593350695E+02 -0.21506450870E+02 -0.61162843654E+02  0.69702514106E+02  0.00000000000E+00 0. -1.
</event>
<event>
 4    1  0.2293753E+005  0.2853738E+02  0.7546771E-02  0.1432747E+00
          2   -1    0    0  502    0  0.00000000000E+00  0.00000000000E+00  0.24758267563E+02  0.24758267563E+02  0.00000000000E+00 0.  1.
         21   -1    0    0  503  502 -0.00000000000E+00 -0.00000000000E+00 -0.96011678268E+02  0.96011678268E+02  0.00000000000E+00 0.  1.
          2    1    1    2  501    0  0.27603792145E+02 -0.72396799474E+01  0.13333653990E+02  0.31498708469E+02  0.00000000000E+00 0.  1.
         21    1    1    2  503  501 -0.27603792145E+02  0.72396799474E+01 -0.84587064694E+02  0.89271237362E+02  0.00000000000E+00 0.  1.
</event>
<event>
 4    1  0.2293753E+005  0.2699740E+02  0.7546771E-02  0.1447634E+00
          2   -1    0    0  503    0  0.00000000000E+00  0.00000000000E+00  0.39051281611E+01  0.39051281611E+01  0.00000000000E+00 0. -1.
         21   -1    0    0  501  502 -0.00000000000E+00 -0.00000000000E+00 -0.22361230347E+03  0.22361230347E+03  0.00000000000E+00 0.  1.
          2    1    1    2  501    0 -0.18405187576E+02 -0.19751173410E+02 -0.63597907668E+02  0.69090908523E+02  0.00000000000E+00 0. -1.
         21    1    1    2  503  502  0.18405187576E+02  0.19751173410E+02 -0.15610926764E+03  0.15842652311E+03  0.00000000000E+00 0.  1.
</event>
<event>
 4    1  0.2293753E+005  0.2658422E+02  0.7546771E-02  0.1451830E+00
          2   -1    0    0  503    0  0.00000000000E+00  0.00000000000E+00  0.12667519189E+03  0.12667519189E+03  0.00000000000E+00 0.  1.
         21   -1    0    0  501  502 -0.00000000000E+00 -0.00000000000E+00 -0.30786351683E+03  0.30786351683E+03  0.00000000000E+00 0.  1.
          2    1    1    2  501    0  0.24195870860E+02  0.11012746197E+02  0.12469755041E+03  0.12749980323E+03  0.00000000000E+00 0.  1.
         21    1    1    2  503  502 -0.24195870860E+02 -0.11012746197E+02 -0.30588587535E+03  0.30703890549E+03  0.00000000000E+00 0.  1.
</event>
<event>
 4    1  0.2293753E+005  0.2512928E+02  0.7546771E-02  0.1467362E+00
          2   -1    0    0  502    0  0.00000000000E+00  0.00000000000E+00  0.29813514101E+02  0.29813514101E+02  0.00000000000E+00 0.  1.
         21   -1    0    0  503  502 -0.00000000000E+00 -0.00000000000E+00 -0.11891871684E+03  0.11891871684E+03  0.00000000000E+00 0.  1.
          2    1    1    2  501    0  0.33666267367E+01  0.24902742456E+02  0.22866200613E+02  0.33975636681E+02  0.00000000000E+00 0.  1.
         21    1    1    2  503  501 -0.33666267367E+01 -0.24902742456E+02 -0.11197140335E+03  0.11475659426E+03  0.00000000000E+00 0.  1.
</event>
<event>
 4    1  0.2293753E+005  0.2511554E+02  0.7546771E-02  0.1467515E+00
          2   -1    0    0  503    0  0.00000000000E+00  0.00000000000E+00  0.39116178589E+02  0.39116178589E+02  0.00000000000E+00 0. -1.
         21   -1    0    0  501  502 -0.00000000000E+00 -0.00000000000E+00 -0.18756051184E+03  0.18756051184E+03  0.00000000000E+00 0. -1.
          2    1    1    2  501    0 -0.11500845608E+02  0.22327587194E+02  0.34134388610E+02  0.42378615898E+02  0.00000000000E+00 0. -1.
         21    1    1    2  503  502  0.11500845608E+02 -0.22327587194E+02 -0.18257872186E+03  0.18429807453E+03  0.00000000000E+00 0. -1.
</event>
<event>
 4    1  0.2293753E+005  0.2694353E+02  0.7546771E-02  0.1448176E+00
          2   -1    0    0  502    0  0.00000000000E+00  0.00000000000E+00  0.67497468876E+02  0.67497468876E+02  0.00000000000E+00 0.  1.
         21   -1    0    0  503  502 -0.00000000000E+00 -0.00000000000E+00 -0.37449808923E+02  0.37449808923E+02  0.00000000000E+00 0.  1.
          2    1    1    2  501    0  0.26606378961E+02 -0.42490386015E+01  0.59326261576E+02  0.65157954564E+02  0.00000000000E+00 0.  1.
         21    1    1    2  503  501 -0.26606378961E+02  0.42490386015E+01 -0.29278601623E+02  0.39789323235E+02  0.00000000000E+00 0.  1.
</event>
<event>
 4    1  0.2293753E+005  0.2586920E+02  0.7546771E-02  0.1459310E+00
          2   -1    0    0  503    0  0.00000000000E+00  0.00000000000E+00  0.43461274593E+01  0.43461274593E+01  0.00000000000E+00 0.  1.
         21   -1    0    0  501  502 -0.00000000000E+00 -0.00000000000E+00 -0.28386237069E+03  0.28386237069E+03  0.00000000000E+00 0.  1.
          2    1    1    2  501    0 -0.14690752103E+02 -0.21293131694E+02 -0.42281968398E+02  0.49567938290E+02  0.00000000000E+00 0.  1.
         21    1    1    2  503  502  0.14690752103E+02  0.21293131694E+02 -0.23723427483E+03  0.23864055986E+03  0.00000000000E+00 0.  1.
</event>
<event>
 4    1  0.2293753E+005  0.2861050E+02  0.7546771E-02  0.1432068E+00
          2   -1    0    0  502    0  0.00000000000E+00  0.00000000000E+00  0.62133412507E+02  0.62133412507E+02  0.00000000000E+00 0. -1.
         21   -1    0    0  503  502 -0.00000000000E+00 -0.00000000000E+00 -0.35403729427E+02  0.35403729427E+02  0.00000000000E+00 0.  1.
          2    1    1    2  501    0  0.67788016680E+00 -0.28602468995E+02  0.52008677115E+02  0.59358767250E+02  0.00000000000E+00 0. -1.
         21    1    1    2  503  501 -0.67788016680E+00  0.28602468995E+02 -0.25278994035E+02  0.38178374685E+02  0.00000000000E+00 0.  1.
</event>
<event>
 4    1  0.2293753E+005  0.3170971E+02  0.7546771E-02  0.1405299E+00
          2   -1    0    0  502    0  0.00000000000E+00  0.00000000000E+00  0.66740559879E+03  0.66740559879E+03  0.00000000000E+00 0.  1.
         21   -1    0    0  503  502 -0.00000000000E+00 -0.00000000000E+00 -0.27099363405E+01  0.27099363405E+01  0.00000000000E+00 0.  1.
          2    1    1    2  501    0 -0.31691134714E+02 -0.10852810635E+01  0.55562055409E+03  0.55652466790E+03  0.00000000000E+00 0.  1.
         21    1    1    2  503  501  0.31691134714E+02  0.10852810635E+01  0.10907510836E+03  0.11359086723E+03  0.00000000000E+00 0.  1.
</event>
<event>
 4    1  0.2293753E+005  0.4071501E+02  0.7546771E-02  0.1344346E+00
          2   -1    0    0  502    0  0.00000000000E+00  0.00000000000E+00  0.53876175425E+02  0.53876175425E+02  0.00000000000E+00 0. -1.
         21   -1    0    0  503  502 -0.00000000000E+00 -0.00000000000E+00 -0.31196816075E+02  0.31196816075E+02  0.00000000000E+00 0. -1.
          2    1    1    2  501    0  0.23184091809E+02 -0.33469540312E+02  0.16321303371E+02  0.43864532204E+02  0.00000000000E+00 0. -1.
         21    1    1    2  503  501 -0.23184091809E+02  0.33469540312E+02  0.63580559797E+01  0.41208459296E+02  0.00000000000E+00 0. -1.
</event>
<event>
 4    1  0.2293753E+005  0.3038246E+02  0.7546771E-02  0.1416301E+00
          2   -1    0    0  503    0  0.00000000000E+00  0.00000000000E+00  0.14379771696E+04  0.14379771696E+04  0.00000000000E+00 0.  1.
         21   -1    0    0  501  502 -0.00000000000E+00 -0.00000000000E+00 -0.48846647457E+01  0.48846647457E+01  0.00000000000E+00 0.  1.
          2    1    1    2  501    0 -0.29545093868E+02  0.70838801495E+01  0.13889031093E+04  0.13892353800E+04  0.00000000000E+00 0.  1.
         21    1    1    2  503  502  0.29545093868E+02 -0.70838801495E+01  0.44189395548E+02  0.53626454372E+02  0.00000000000E+00 0.  1.
</event>
<event>
 4    1  0.2293753E+005  0.2497439E+02  0.7546771E-02  0.1469090E+00
          2   -1    0    0  503    0  0.00000000000E+00  0.00000000000E+00  0.28843446732E+03  0.28843446732E+03  0.00000000000E+00 0.  1.
         21   -1    0    0  501  502 -0.00000000000E+00 -0.00000000000E+00 -0.13311710225E+02  0.13311710225E+02  0.00000000000E+00 0. -1.
          2    1    1    2  501    0  0.24862171212E+02 -0.23649106300E+01  0.27563737977E+03  0.27676648187E+03  0.00000000000E+00 0.  1.
         21    1    1    2  503  502 -0.24862171212E+02  0.23649106300E+01 -0.51462267288E+00  0.24979695678E+02  0.00000000000E+00 0. -1.
</event>
<event>
 4    1  0.2293753E+005  0.4149129E+02  0.7546771E-02  0.1339962E+00
          2   -1    0    0  503    0  0.00000000000E+00  0.00000000000E+00  0.10638710302E+03  0.10638710302E+03  0.00000000000E+00 0.  1.
         21   -1    0    0  501  502 -0.00000000000E+00 -0.00000000000E+00 -0.18182687017E+02  0.18182687017E+02  0.00000000000E+00 0.  1.
          2    1    1    2  501    0 -0.38950405390E+02 -0.14296614216E+02  0.64764224591E+02  0.76915096340E+02  0.00000000000E+00 0.  1.
         21    1    1    2  503  502  0.38950405390E+02  0.14296614216E+02  0.23440191417E+02  0.47654693701E+02  0.00000000000E+00 0.  1.
</event>
<event>
 4    1  0.2293753E+005  0.2012393E+02  0.7546771E-02  0.1532150E+00
          2   -1    0    0  503    0  0.00000000000E+00  0.00000000000E+00  0.12765455923E+02  0.12765455923E+02  0.00000000000E+00 0.  1.
         21   -1    0    0  501  502 -0.00000000000E+00 -0.00000000000E+00 -0.37304249712E+03  0.37304249712E+03  0.00000000000E+00 0. -1.
          2    1    1    2  501    0 -0.18948145562E+02 -0.67779244549E+01  0.43808141632E+01  0.20595242482E+02  0.00000000000E+00 0.  1.
         21    1    1    2  503  502  0.18948145562E+02  0.67779244549E+01 -0.36465785536E+03  0.36521271056E+03  0.00000000000E+00 0. -1.
</event>
<event>
 4    1  0.2293753E+005  0.2630042E+02  0.7546771E-02  0.1454765E+00
          2   -1    0    0  503    0  0.00000000000E+00  0.00000000000E+00  0.43618324870E+03  0.43618324870E+03  0.00000000000E+00 0.  1.
         21   -1    0    0  501  502 -0.00000000000E+00 -0.00000000000E+00 -0.26309073299E+01  0.26309073299E+01  0.00000000000E+00 0.  1.
          2    1    1    2  501    0  0.92726701005E+01 -0.24611572406E+02  0.35506030181E+03  0.35603304598E+03  0.00000000000E+00 0.  1.
         21    1    1    2  503  502 -0.92726701005E+01  0.24611572406E+02  0.78492039558E+02  0.82781110050E+02  0.00000000000E+00 0.  1.
</event>
<event>
 4    1  0.2293753E+005  0.2235993E+02  0.7546771E-02  0.1500696E+00
          2   -1    0    0  503    0  0.00000000000E+00  0.00000000000E+00  0.12263183066E+03  0.12263183066E+03  0.00000000000E+00 0. -1.
         21   -1    0    0  501  502 -0.00000000000E+00 -0.00000000000E+00 -0.41002887519E+01  0.41002887519E+01  0.00000000000E+00 0. -1.
          2    1    1    2  501    0 -0.70303253832E+01 -0.21225955269E+02  0.64044088297E+02  0.67835181859E+02  0.00000000000E+00 0. -1.
         21    1    1    2  503  502  0.70303253832E+01  0.21225955269E+02  0.54487453614E+02  0.58896937555E+02  0.00000000000E+00 0. -1.
</event>
<event>
 4    1  0.2293753E+005  0.5371723E+02  0.7546771E-02  0.1282813E+00
          2   -1    0    0  503    0  0.00000000000E+00  0.00000000000E+00  0.11357845331E+04  0.11357845331E+04  0.00000000000E+00 0. -1.
         21   -1    0    0  501  502 -0.00000000000E+00 -0.00000000000E+00 -0.65563532594E+01  0.65563532594E+01  0.00000000000E+00 0. -1.
          2    1    1    2  501    0  0.39720086494E+02  0.36164279630E+02  0.10116265943E+04  0.10130517789E+04  0.00000000000E+00 0. -1.
         21    1    1    2  503  502 -0.39720086494E+02 -0.36164279630E+02  0.11760158556E+03  0.12928910750E+03  0.00000000000E+00 0. -1.
</event>
<event>
 4    1  0.2293753E+005  0.2018633E+02  0.7546771E-02  0.1531206E+00
          2   -1    0    0  503    0  0.00000000000E+00  0.00000000000E+00  0.10944101115E+04  0.10944101115E+04  0.00000000000E+00 0. -1.
         21   -1    0    0  501  502 -0.00000000000E+00 -0.00000000000E+00 -0.69487971599E+00  0.69487971599E+00  0.00000000000E+00 0.  1.
          2    1    1    2  501    0  0.37182499079E+01  0.19840928785E+02  0.91990629988E+03  0.92012775656E+03  0.00000000000E+00 0. -1.
         21    1    1    2  503  502 -0.37182499079E+01 -0.19840928785E+02  0.17380893189E+03  0.17497723464E+03  0.00000000000E+00 0.  1.
</event>
<event>
 4    1  0.2293753E+005  0.4432418E+02  0.7546771E-02  0.1324854E+00
          2   -1    0    0  503    0  0.00000000000E+00  0.00000000000E+00  0.12964312540E+04  0.12964312540E+04  0.00000000000E+00 0. -1.
         21   -1    0    0  501  502 -0.00000000000E+00 -0.00000000000E+00 -0.15895836878E+01  0.15895836878E+01  0.00000000000E+00 0. -1.
          2    1    1    2  501    0  0.40497862285E+02  0.18015429185E+02  0.78761102583E+03  0.78885724979E+03  0.00000000000E+00 0. -1.
         21    1    1    2  503  502 -0.40497862285E+02 -0.18015429185E+02  0.50723064445E+03  0.50916358786E+03  0.00000000000E+00 0. -1.
</event>
<event>
 4    1  0.2293753E+005  0.2344447E+02  0.7546771E-02  0.1486991E+00
          2   -1    0    0  503    0  0.00000000000E+00  0.00000000000E+00  0.77626081511E+03  0.77626081511E+03  0.00000000000E+00 0. -1.
         21   -1    0    0  501  502 -0.00000000000E+00 -0.00000000000E+00 -0.11701079374E+01  0.11701079374E+01  0.00000000000E+00 0. -1.
          2    1    1    2  501    0 -0.17932370085E+02  0.15102100619E+02  0.63180958945E+03  0.63224441528E+03  0.00000000000E+00 0. -1.
         21    1    1    2  503  502  0.17932370085E+02 -0.15102100619E+02  0.14328111773E+03  0.14518650776E+03  0.00000000000E+00 0. -1.
</event>
<event>
 4    1  0.2293753E+005  0.2136869E+02  0.7546771E-02  0.1514066E+00
          2   -1    0    0  503    0  0.00000000000E+00  0.00000000000E+00  0.70535097032E+01  0.70535097032E+01  0.00000000000E+00 0. -1.
         21   -1    0    0  501  502 -0.00000000000E+00 -0.00000000000E+00 -0.14550688104E+03  0.14550688104E+03  0.00000000000E+00 0. -1.
          2    1    1    2  501    0 -0.18380732714E+02 -0.10898146012E+02 -0.12394341910E+02  0.24703049062E+02  0.00000000000E+00 0. -1.
         21    1    1    2  503  502  0.18380732714E+02  0.10898146012E+02 -0.12605902942E+03  0.12785734168E+03  0.00000000000E+00 0. -1.
</event>
<event>
 4    1  0.2293753E+005  0.2256335E+02  0.7546771E-02  0.1498055E+00
          2   -1    0    0  503    0  0.00000000000E+00  0.00000000000E+00  0.72970142427E+02  0.72970142427E+02  0.00000000000E+00 0.  1.
         21   -1    0    0  501  502 -0.00000000000E+00 -0.00000000000E+00 -0.70668329422E+01  0.70668329422E+01  0.00000000000E+00 0.  1.
          2    1    1    2  501    0 -0.64781439458E+01 -0.21613387516E+02  0.37466312090E+02  0.43735905278E+02  0.00000000000E+00 0.  1.
         21    1    1    2  503  502  0.64781439458E+01  0.21613387516E+02  0.28436997395E+02  0.36301070091E+02  0.00000000000E+00 0.  1.
</event>
<event>
 4    1  0.2293753E+005  0.2026053E+02  0.7546771E-02  0.1530090E+00
          2   -1    0    0  503    0  0.00000000000E+00  0.00000000000E+00  0.25536870304E+02  0.25536870304E+02  0.00000000000E+00 0.  1.
         21   -1    0    0  501  502 -0.00000000000E+00 -0.00000000000E+00 -0.18194680948E+02  0.18194680948E+02  0.00000000000E+00 0. -1.
          2    1    1    2  501    0  0.72099202039E+01  0.18934262627E+02  0.11135442130E+02  0.23118981854E+02  0.00000000000E+00 0.  1.
         21    1    1    2  503  502 -0.72099202039E+01 -0.18934262627E+02 -0.37932527739E+01  0.20612569397E+02  0.00000000000E+00 0. -1.
</event>
<event>
 4    1  0.2293753E+005  0.2977691E+02  0.7546771E-02  0.1421545E+00
          2   -1    0    0  502    0  0.00000000000E+00  0.00000000000E+00  0.95367024282E+01  0.95367024282E+01  0.00000000000E+00 0. -1.
         21   -1    0    0  503  502 -0.00000000000E+00 -0.00000000000E+00 -0.30057941683E+03  0.30057941683E+03  0.00000000000E+00 0.  1.
          2    1    1    2  501    0  0.28747786712E+02 -0.77607394126E+01 -0.16656593322E+02  0.34119003769E+02  0.00000000000E+00 0. -1.
         21    1    1    2  503  501 -0.28747786712E+02  0.77607394126E+01 -0.27438612108E+03  0.27599711549E+03  0.00000000000E+00 0.  1.
</event>
<event>
 4    1  0.2293753E+005  0.4633582E+02  0.7546771E-02  0.1314892E+00
          2   -1    0    0  503    0  0.00000000000E+00  0.00000000000E+00  0.89553289169E+02  0.89553289169E+02  0.00000000000E+00 0.  1.
         21   -1    0    0  501  502 -0.00000000000E+00 -0.00000000000E+00 -0.40857606826E+02  0.40857606826E+02  0.00000000000E+00 0.  1.
          2    1    1    2  501    0  0.13236398330E+02 -0.44405017765E+02  0.66263066754E+02  0.80856674797E+02  0.00000000000E+00 0.  1.
         21    1    1    2  503  502 -0.13236398330E+02  0.44405017765E+02 -0.17567384412E+02  0.49554221198E+02  0.00000000000E+00 0.  1.
</event>
<event>
 4    1  0.2293753E+005  0.2858287E+02  0.7546771E-02  0.1432325E+00
          2   -1    0    0  502    0  0.00000000000E+00  0.00000000000E+00  0.10622425077E+04  0.10622425077E+04  0.00000000000E+00 0.  1.
         21   -1    0    0  503  502 -0.00000000000E+00 -0.00000000000E+00 -0.18109647659E+01  0.18109647659E+01  0.00000000000E+00 0. -1.
          2    1    1    2  501    0 -0.28295598869E+02 -0.40421863194E+01  0.93375176161E+03  0.93418913101E+03  0.00000000000E+00 0.  1.
         21    1    1    2  503  501  0.28295598869E+02  0.40421863194E+01  0.12667978131E+03  0.12986434145E+03  0.00000000000E+00 0. -1.
</event>
<event>
 4    1  0.2293753E+005  0.2477507E+02  0.7546771E-02  0.1471335E+00
          2   -1    0    0  503    0  0.00000000000E+00  0.00000000000E+00  0.49558867762E+03  0.49558867762E+03  0.00000000000E+00 0.  1.
         21   -1    0    0  501  502 -0.00000000000E+00 -0.00000000000E+00 -0.19162119380E+02  0.19162119380E+02  0.00000000000E+00 0. -1.
          2    1    1    2  501    0 -0.92106683799E+01  0.22999297382E+02  0.48713207390E+03  0.48776168517E+03  0.00000000000E+00 0.  1.
         21    1    1    2  503  502  0.92106683799E+01 -0.22999297382E+02 -0.10705515661E+02  0.26989111835E+02  0.00000000000E+00 0. -1.
</event>
<event>
 4    1  0.2293753E+005  0.2564764E+02  0.7546771E-02  0.1461687E+00
          2   -1    0    0  503    0  0.00000000000E+00  0.00000000000E+00  0.50579417143E+03  0.50579417143E+03  0.00000000000E+00 0.  1.
         21   -1    0    0  501  502 -0.00000000000E+00 -0.00000000000E+00 -0.20706989726E+01  0.20706989726E+01  0.00000000000E+00 0.  1.
          2    1    1    2  501    0  0.20062881478E+02 -0.15977556201E+02  0.40672632845E+03  0.40753417988E+03  0.00000000000E+00 0.  1.
         21    1    1    2  503  502 -0.20062881478E+02  0.15977556201E+02  0.96997144012E+02  0.10033069053E+03  0.00000000000E+00 0.  1.
</event>
<event>
 4    1  0.2293753E+005  0.2162382E+02  0.7546771E-02  0.1510542E+00
          2   -1    0    0  503    0  0.00000000000E+00  0.00000000000E+00  0.46949398273E+03  0.46949398273E+03  0.00000000000E+00 0.  1.
         21   -1    0    0  501  502 -0.00000000000E+00 -0.00000000000E+00 -0.14089169334E+01  0.14089169334E+01  0.00000000000E+00 0.  1.
          2    1    1    2  501    0 -0.69772755700E+01  0.20467223270E+02  0.36151594029E+03  0.36216206964E+03  0.00000000000E+00 0.  1.
         21    1    1    2  503  502  0.69772755700E+01 -0.20467223270E+02  0.10656912550E+03  0.10874083002E+03  0.00000000000E+00 0.  1.
</event>
<event>
 4    1  0.2293753E+005  0.4180564E+02  0.7546771E-02  0.1338218E+00
          2   -1    0    0  502    0  0.00000000000E+00  0.00000000000E+00  0.45255162910E+01  0.45255162910E+01  0.00000000000E+00 0.  1.
         21   -1    0    0  503  502 -0.00000000000E+00 -0.00000000000E+00 -0.43003285448E+03  0.43003285448E+03  0.00000000000E+00 0.  1.
          2    1    1    2  501    0  0.37420387948E+02 -0.18639374855E+02 -0.14337693056E+03  0.14934743368E+03  0.00000000000E+00 0.  1.
         21    1    1    2  503  501 -0.37420387948E+02  0.18639374855E+02 -0.28213040763E+03  0.28521093709E+03  0.00000000000E+00 0.  1.
</event>
<event>
 4    1  0.2293753E+005  0.2141824E+02  0.7546771E-02  0.1513377E+00
          2   -1    0    0  503    0  0.00000000000E+00  0.00000000000E+00  0.51925504378E+02  0.51925504378E+02  0.00000000000E+00 0. -1.
         21   -1    0    0  501  502 -0.00000000000E+00 -0.00000000000E+00 -0.25966668613E+02  0.25966668613E+02  0.00000000000E+00 0. -1.
          2    1    1    2  501    0 -0.21413153897E+02  0.46667919297E+00  0.44613893225E+02  0.49488790831E+02  0.00000000000E+00 0. -1.
         21    1    1    2  503  502  0.21413153897E+02 -0.46667919297E+00 -0.18655057460E+02  0.28403382160E+02  0.00000000000E+00 0. -1.
</event>
<event>
 4    1  0.2293753E+005  0.2205652E+02  0.7546771E-02  0.1504698E+00
          2   -1    0    0  502    0  0.00000000000E+00  0.00000000000E+00  0.98435629908E+03  0.98435629908E+03  0.00000000000E+00 0. -1.
         21   -1    0    0  503  502 -0.00000000000E+00 -0.00000000000E+00 -0.19830630535E+01  0.19830630535E+01  0.00000000000E+00 0.  1.
          2    1    1    2  501    0 -0.12112255555E+02  0.18433207502E+02  0.91850578595E+03  0.91877057457E+03  0.00000000000E+00 0. -1.
         21    1    1    2  503  501  0.12112255555E+02 -0.18433207502E+02  0.63867450077E+02  0.67568787564E+02  0.00000000000E+00 0.  1.
</event>
<event>
 4    1  0.2293753E+005  0.3295784E+02  0.7546771E-02  0.1395518E+00
          2   -1    0    0  503    0  0.00000000000E+00  0.00000000000E+00  0.13359389836E+04  0.13359389836E+04  0.00000000000E+00 0. -1.
         21   -1    0    0  501  502 -0.00000000000E+00 -0.00000000000E+00 -0.28547556166E+02  0.28547556166E+02  0.00000000000E+00 0. -1.
          2    1    1    2  501    0 -0.85267348072E+01  0.31835734310E+02  0.13261531671E+04  0.13265626415E+04  0.00000000000E+00 0. -1.
         21    1    1    2  503  502  0.85267348072E+01 -0.31835734310E+02 -0.18761739663E+02  0.37923898280E+02  0.00000000000E+00 0. -1.
</event>
<event>
 4    1  0.2293753E+005  0.2007859E+02  0.7546771E-02  0.1532838E+00
          2   -1    0    0  503    0  0.00000000000E+00  0.00000000000E+00  0.34028140546E+03  0.34028140546E+03  0.00000000000E+00 0. -1.
         21   -1    0    0  501  502 -0.00000000000E+00 -0.00000000000E+00 -0.11856536824E+01  0.11856536824E+01  0.00000000000E+00 0.  1.
          2    1    1    2  501    0  0.15590528575E+02  0.12652476033E+02  0.17425117278E+03  0.17540416457E+03  0.00000000000E+00 0. -1.
         21    1    1    2  503  502 -0.15590528575E+02 -0.12652476033E+02  0.16484457900E+03  0.16606289458E+03  0.00000000000E+00 0.  1.
</event>
<event>
 4    1  0.2293753E+005  0.2117362E+02  0.7546771E-02  0.1516800E+00
          2   -1    0    0  503    0  0.00000000000E+00  0.00000000000E+00  0.53251270897E+02  0.53251270897E+02  0.00000000000E+00 0. -1.
         21   -1    0    0  501  502 -0.00000000000E+00 -0.00000000000E+00 -0.14656953002E+02  0.14656953002E+02  0.00000000000E+00 0.  1.
          2    1    1    2  501    0  0.20691282645E+02 -0.44936854552E+01  0.41448071323E+02  0.46543152051E+02  0.00000000000E+00 0. -1.
         21    1    1    2  503  502 -0.20691282645E+02  0.44936854552E+01 -0.28537534271E+01  0.21365071848E+02  0.00000000000E+00 0.  1.
</event>
<event>
 4    1  0.2293753E+005  0.3256416E+02  0.7546771E-02  0.1398547E+00
          2   -1    0    0  503    0  0.00000000000E+00  0.00000000000E+00  0.13753148460E+04  0.13753148460E+04  0.00000000000E+00 0.  1.
         21   -1    0    0  501  502 -0.00000000000E+00 -0.00000000000E+00 -0.29002689340E+02  0.29002689340E+02  0.00000000000E+00 0. -1.
          2    1    1    2  501    0 -0.20486566042E+02 -0.25312550084E+02  0.13659184705E+04  0.13663065880E+04  0.00000000000E+00 0.  1.
         21    1    1    2  503  502  0.20486566042E+02  0.25312550084E+02 -0.19606313747E+02  0.38010947353E+02  0.00000000000E+00 0. -1.
</event>
<event>
 4    1  0.2293753E+005  0.2726536E+02  0.7546771E-02  0.1444961E+00
          2   -1    0    0  502    0  0.00000000000E+00  0.00000000000E+00  0.16464342267E+04  0.16464342267E+04  0.00000000000E+00 0. -1.
         21   -1    0    0  503  502 -0.00000000000E+00 -0.00000000000E+00 -0.17669728865E+01  0.17669728865E+01  0.00000000000E+00 0.  1.
          2    1    1    2  501    0  0.37342256485E+00  0.27262803889E+02  0.15333878862E+04  0.15336302715E+04  0.00000000000E+00 0. -1.
         21    1    1    2  503  501 -0.37342256485E+00 -0.27262803889E+02  0.11127936754E+03  0.11457092807E+03  0.00000000000E+00 0.  1.
</event>
<event>
 4    1  0.2293753E+005  0.3180770E+02  0.7546771E-02  0.1404512E+00
          2   -1    0    0  503    0  0.00000000000E+00  0.00000000000E+00  0.32186048495E+03  0.32186048495E+03  0.00000000000E+00 0. -1.
         21   -1    0    0  501  502 -0.00000000000E+00 -0.00000000000E+00 -0.36944898341E+03  0.36944898341E+03  0.00000000000E+00 0.  1.
          2    1    1    2  501    0  0.35851236403E+01 -0.31605005331E+02  0.32038687849E+03  0.32196192536E+03  0.00000000000E+00 0. -1.
         21    1    1    2  503  502 -0.35851236403E+01  0.31605005331E+02 -0.36797537695E+03  0.36934754299E+03  0.00000000000E+00 0.  1.
</event>
<event>
 4    1  0.2293753E+005  0.2025585E+02  0.7546771E-02  0.1530160E+00
          2   -1    0    0  502    0  0.00000000000E+00  0.00000000000E+00  0.69097329814E+02  0.69097329814E+02  0.00000000000E+00 0. -1.
         21   -1    0    0  503  502 -0.00000000000E+00 -0.00000000000E+00 -0.21526285576E+03  0.21526285576E+03  0.00000000000E+00 0.  1.
          2    1    1    2  501    0  0.20218224468E+02 -0.12340744376E+01  0.67122608027E+02  0.70112367302E+02  0.00000000000E+00 0. -1.
         21    1    1    2  503  501 -0.20218224468E+02  0.12340744376E+01 -0.21328813398E+03  0.21424781827E+03  0.00000000000E+00 0.  1.
</event>
<event>
 4    1  0.2293753E+005  0.2284922E+02  0.7546771E-02  0.1494400E+00
          2   -1    0    0  503    0  0.00000000000E+00  0.00000000000E+00  0.13974447485E+04  0.13974447485E+04  0.00000000000E+00 0.  1.
         21   -1    0    0  501  502 -0.00000000000E+00 -0.00000000000E+00 -0.13162031829E+02  0.13162031829E+02  0.00000000000E+00 0. -1.
          2    1    1    2  501    0  0.99481600315E+01 -0.20569907689E+02  0.13873627546E+04  0.13875508999E+04  0.00000000000E+00 0.  1.
         21    1    1    2  503  502 -0.99481600315E+01  0.20569907689E+02 -0.30800378884E+01  0.23055880459E+02  0.00000000000E+00 0. -1.
</event>
<event>
 4    1  0.2293753E+005  0.2201203E+02  0.7546771E-02  0.1505291E+00
          2   -1    0    0  502    0  0.00000000000E+00  0.00000000000E+00  0.72843607792E+02  0.72843607792E+02  0.00000000000E+00 0. -1.
         21   -1    0    0  503  502 -0.00000000000E+00 -0.00000000000E+00 -0.11190911072E+02  0.11190911072E+02  0.00000000000E+00 0. -1.
          2    1    1    2  501    0 -0.32646090760E+01  0.21768591772E+02  0.57586476409E+02  0.61650073198E+02  0.00000000000E+00 0. -1.
         21    1    1    2  503  501  0.32646090760E+01 -0.21768591772E+02  0.40662203106E+01  0.22384445666E+02  0.00000000000E+00 0. -1.
</event>
<event>
 4    1  0.2293753E+005  0.6408242E+02  0.7546771E-02  0.1246559E+00
          2   -1    0    0  503    0  0.00000000000E+00  0.00000000000E+00  0.18239271842E+03  0.18239271842E+03  0.00000000000E+00 0. -1.
         21   -1    0    0  501  502 -0.00000000000E+00 -0.00000000000E+00 -0.81881236067E+02  0.81881236067E+02  0.00000000000E+00 0. -1.
          2    1    1    2  501    0  0.25123247522E+02  0.58952345625E+02  0.16276862067E+03  0.17492907276E+03  0.00000000000E+00 0. -1.
         21    1    1    2  503  502 -0.25123247522E+02 -0.58952345625E+02 -0.62257138314E+02  0.89344881733E+02  0.00000000000E+00 0. -1.
</event>
<event>
 4    1  0.2293753E+005  0.2746473E+02  0.7546771E-02  0.1442995E+00
          2   -1    0    0  503    0  0.00000000000E+00  0.00000000000E+00  0.15601606750E+04  0.15601606750E+04  0.00000000000E+00 0. -1.
         21   -1    0    0  501  502 -0.00000000000E+00 -0.00000000000E+00 -0.16038628637E+02  0.16038628637E+02  0.00000000000E+00 0. -1.
          2    1    1    2  501    0 -0.50597163015E+01  0.26994638412E+02  0.15481911827E+04  0.15484347740E+04  0.00000000000E+00 0. -1.
         21    1    1    2  503  502  0.50597163015E+01 -0.26994638412E+02 -0.40691363644E+01  0.27764529580E+02  0.00000000000E+00 0. -1.
</event>
<event>
 4    1  0.2293753E+005  0.2163737E+02  0.7546771E-02  0.1510356E+00
          2   -1    0    0  502    0  0.00000000000E+00  0.00000000000E+00  0.15175849176E+04  0.15175849176E+04  0.00000000000E+00 0. -1.
         21   -1    0    0  503  502 -0.00000000000E+00 -0.00000000000E+00 -0.38174959705E+00  0.38174959705E+00  0.00000000000E+00 0.  1.
          2    1    1    2  501    0  0.21552312320E+02 -0.19166221898E+01  0.10910653168E+04  0.10912798454E+04  0.00000000000E+00 0. -1.
         21    1    1    2  503  501 -0.21552312320E+02  0.19166221898E+01  0.42613785122E+03  0.42668682175E+03  0.00000000000E+00 0.  1.
</event>
<event>
 4    1  0.2293753E+005  0.5282824E+02  0.7546771E-02  0.1286355E+00
          2   -1    0    0  503    0  0.00000000000E+00  0.00000000000E+00  0.95683264956E+03  0.95683264956E+03  0.00000000000E+00 0. -1.
         21   -1    0    0  501  502 -0.00000000000E+00 -0.00000000000E+00 -0.23589325252E+02  0.23589325252E+02  0.00000000000E+00 0. -1.
          2    1    1    2  501    0 -0.16875076862E+01  0.52801277224E+02  0.92552665416E+03  0.92703312245E+03  0.00000000000E+00 0. -1.
         21    1    1    2  503  502  0.16875076862E+01 -0.52801277224E+02  0.77166701506E+01  0.53388852366E+02  0.00000000000E+00 0. -1.
</event>
<event>
 4    1  0.2293753E+005  0.2336041E+02  0.7546771E-02  0.1488021E+00
          2   -1    0    0  502    0  0.00000000000E+00  0.00000000000E+00  0.53313962050E+03  0.53313962050E+03  0.00000000000E+00 0.  1.
         21   -1    0    0  503  502 -0.00000000000E+00 -0.00000000000E+00 -0.41730405515E+01  0.41730405515E+01  0.00000000000E+00 0. -1.
          2    1    1    2  501    0 -0.19505974915E+01  0.23278831497E+02  0.49787700155E+03  0.49842473605E+03  0.00000000000E+00 0.  1.
         21    1    1    2  503  501  0.19505974915E+01 -0.23278831497E+02  0.31089578394E+02  0.38887925005E+02  0.00000000000E+00 0. -1.
</event>
<event>
 4    1  0.2293753E+005  0.2125316E+02  0.7546771E-02  0.1515681E+00
          2   -1    0    0  502    0  0.00000000000E+00  0.00000000000E+00  0.10973911682E+04  0.10973911682E+04  0.00000000000E+00 0.  1.
         21   -1    0    0  503  502 -0.00000000000E+00 -0.00000000000E+00 -0.10309934526E+03  0.10309934526E+03  0.00000000000E+00 0.  1.
          2    1    1    2  501    0 -0.41532399517E+01  0.20843402584E+02  0.10961917724E+04  0.10963977831E+04  0.00000000000E+00 0.  1.
         21    1    1    2  503  501  0.41532399517E+01 -0.20843402584E+02 -0.10189994943E+03  0.10409273043E+03  0.00000000000E+00 0.  1.
</event>
<event>
 4    1  0.2293753E+005  0.2470003E+02  0.7546771E-02  0.1472187E+00
          2   -1    0    0  503    0  0.00000000000E+00  0.00000000000E+00  0.14762415886E+03  0.14762415886E+03  0.00000000000E+00 0.  1.
         21   -1    0    0  501  502 -0.00000000000E+00 -0.00000000000E+00 -0.76959199726E+01  0.76959199726E+01  0.00000000000E+00 0.  1.
          2    1    1    2  501    0 -0.21312625960E+02 -0.12484522508E+02  0.12280701439E+03  0.12526633271E+03  0.00000000000E+00 0.  1.
         21    1    1    2  503  502  0.21312625960E+02  0.12484522508E+02  0.17121224495E+02  0.30053746119E+02  0.00000000000E+00 0.  1.
</event>
<event>
 4    1  0.2293753E+005  0.2872957E+02  0.7546771E-02  0.1430967E+00
          2   -1    0    0  503    0  0.00000000000E+00  0.00000000000E+00  0.12970202383E+03  0.12970202383E+03  0.00000000000E+00 0. -1.
         21   -1    0    0  501  502 -0.00000000000E+00 -0.00000000000E+00 -0.37165200811E+02  0.37165200811E+02  0.00000000000E+00 0. -1.
          2    1    1    2  501    0  0.74538791686E+01  0.27745769349E+02  0.12222379608E+03  0.12555494558E+03  0.00000000000E+00 0. -1.
         21    1    1    2  503  502 -0.74538791686E+01 -0.27745769349E+02 -0.29686973063E+02  0.41312279059E+02  0.00000000000E+00 0. -1.
</event>
<event>
 4    1  0.2293753E+005  0.2293702E+02  0.7546771E-02  0.1493290E+00
          2   -1    0    0  502    0  0.00000000000E+00  0.00000000000E+00  0.63888124341E+03  0.63888124341E+03  0.00000000000E+00 0. -1.
         21   -1    0    0  503  502 -0.00000000000E+00 -0.00000000000E+00 -0.14321683590E+01  0.14321683590E+01  0.00000000000E+00 0. -1.
          2    1    1    2  501    0 -0.14912481167E+02 -0.17427707813E+02  0.52744374231E+03  0.52794223964E+03  0.00000000000E+00 0. -1.
         21    1    1    2  503  501  0.14912481167E+02  0.17427707813E+02  0.11000533274E+03  0.11237117213E+03  0.00000000000E+00 0. -1.
</event>
<event>
 4    1  0.2293753E+005  0.3869689E+02  0.7546771E-02  0.1356296E+00
          2   -1    0    0  503    0  0.00000000000E+00  0.00000000000E+00  0.23981213108E+04  0.23981213108E+04  0.00000000000E+00 0.  1.
         21   -1    0    0  501  502 -0.00000000000E+00 -0.00000000000E+00 -0.63168794782E+00  0.63168794782E+00  0.00000000000E+00 0.  1.
          2    1    1    2  501    0 -0.32560821457E+02 -0.20910329037E+02  0.10701465548E+04  0.10708459729E+04  0.00000000000E+00 0.  1.
         21    1    1    2  503  502  0.32560821457E+02  0.20910329037E+02  0.13273430681E+04  0.13279070258E+04  0.00000000000E+00 0.  1.
</event>
<event>
 4    1  0.2293753E+005  0.2043411E+02  0.7546771E-02  0.1527500E+00
          2   -1    0    0  502    0  0.00000000000E+00  0.00000000000E+00  0.14262501497E+04  0.14262501497E+04  0.00000000000E+00 0. -1.
         21   -1    0    0  503  502 -0.00000000000E+00 -0.00000000000E+00 -0.96939354758E+01  0.96939354758E+01  0.00000000000E+00 0.  1.
          2    1    1    2  501    0 -0.17343971962E+02 -0.10804607710E+02  0.14153254379E+04  0.14154729415E+04  0.00000000000E+00 0. -1.
         21    1    1    2  503  501  0.17343971962E+02  0.10804607710E+02  0.12307762603E+01  0.20471143626E+02  0.00000000000E+00 0.  1.
</event>
<event>
 4    1  0.2293753E+005  0.4029607E+02  0.7546771E-02  0.1346760E+00
          2   -1    0    0  502    0  0.00000000000E+00  0.00000000000E+00  0.87790329795E+03  0.87790329795E+03  0.00000000000E+00 0. -1.
         21   -1    0    0  503  502 -0.00000000000E+00 -0.00000000000E+00 -0.37032219379E+02  0.37032219379E+02  0.00000000000E+00 0. -1.
          2    1    1    2  501    0  0.48607615700E+01 -0.40001826717E+02  0.86633267595E+03  0.86726932296E+03  0.00000000000E+00 0. -1.
         21    1    1    2  503  501 -0.48607615700E+01  0.40001826717E+02 -0.25461597378E+02  0.47666194361E+02  0.00000000000E+00 0. -1.
</event>
<event>
 4    1  0.2293753E+005  0.2614406E+02  0.7546771E-02  0.1456401E+00
          2   -1    0    0  503    0  0.00000000000E+00  0.00000000000E+00  0.65958269848E+03  0.65958269848E+03  0.00000000000E+00 0. -1.
         21   -1    0    0  501  502 -0.00000000000E+00 -0.00000000000E+00 -0.10642318681E+01  0.10642318681E+01  0.00000000000E+00 0. -1.
          2    1    1    2  501    0  0.25819517266E+02 -0.41066153378E+01  0.38279373333E+03  0.38368548844E+03  0.00000000000E+00 0. -1.
         21    1    1    2  503  502 -0.25819517266E+02  0.41066153378E+01  0.27572473328E+03  0.27696144191E+03  0.00000000000E+00 0. -1.
</event>
<event>
 4    1  0.2293753E+005  0.2263742E+02  0.7546771E-02  0.1497102E+00
          2   -1    0    0  503    0  0.00000000000E+00  0.00000000000E+00  0.58796358972E+03  0.58796358972E+03  0.00000000000E+00 0. -1.
         21   -1    0    0  501  502 -0.00000000000E+00 -0.00000000000E+00 -0.53898205460E+01  0.53898205460E+01  0.00000000000E+00 0. -1.
          2    1    1    2  501    0 -0.93687774948E+01  0.20607740280E+02  0.56291913053E+03  0.56337412122E+03  0.00000000000E+00 0. -1.
         21    1    1    2  503  502  0.93687774948E+01 -0.20607740280E+02  0.19654638650E+02  0.29979289046E+02  0.00000000000E+00 0. -1.
</event>
<event>
 4    1  0.2293753E+005  0.5732410E+02  0.7546771E-02  0.1269206E+00
          2   -1    0    0  502    0  0.00000000000E+00  0.00000000000E+00  0.17676372114E+04  0.17676372114E+04  0.00000000000E+00 0.  1.
         21   -1    0    0  503  502 -0.00000000000E+00 -0.00000000000E+00 -0.63251931420E+01  0.63251931420E+01  0.00000000000E+00 0. -1.
          2    1    1    2  501    0  0.22213533796E+02 -0.52845162169E+02  0.16259813148E+04  0.16269914837E+04  0.00000000000E+00 0.  1.
         21    1    1    2  503  501 -0.22213533796E+02  0.52845162169E+02  0.13533070347E+03  0.14697092076E+03  0.00000000000E+00 0. -1.
</event>
<event>
 4    1  0.2293753E+005  0.2038765E+02  0.7546771E-02  0.1528190E+00
          2   -1    0    0  503    0  0.00000000000E+00  0.00000000000E+00  0.17284444635E+03  0.17284444635E+03  0.00000000000E+00 0. -1.
         21   -1    0    0  501  502 -0.00000000000E+00 -0.00000000000E+00 -0.24532950750E+01  0.24532950750E+01  0.00000000000E+00 0. -1.
          2    1    1    2  501    0 -0.19345684436E+02 -0.64343380442E+01  0.72872385318E+02  0.75670606938E+02  0.00000000000E+00 0. -1.
         21    1    1    2  503  502  0.19345684436E+02  0.64343380442E+01  0.97518765953E+02  0.99627134484E+02  0.00000000000E+00 0. -1.
</event>
<event>
 4    1  0.2293753E+005  0.2227825E+02  0.7546771E-02  0.1501766E+00
          2   -1    0    0  502    0  0.00000000000E+00  0.00000000000E+00  0.38584012275E+03  0.38584012275E+03  0.00000000000E+00 0. -1.
         21   -1    0    0  503  502 -0.00000000000E+00 -0.00000000000E+00 -0.47047446517E+01  0.47047446517E+01  0.00000000000E+00 0.  1.
          2    1    1    2  501    0  0.17340047674E+02  0.13987244941E+02  0.35701809599E+03  0.35771251186E+03  0.00000000000E+00 0. -1.
         21    1    1    2  503  501 -0.17340047674E+02 -0.13987244941E+02  0.24117282110E+02  0.32832355547E+02  0.00000000000E+00 0.  1.
</event>
<event>
 4    1  0.2293753E+005  0.2460579E+02  0.7546771E-02  0.1473262E+00
          2   -1    0    0  503    0  0.00000000000E+00  0.00000000000E+00  0.27416344631E+03  0.27416344631E+03  0.00000000000E+00 0. -1.
         21   -1    0    0  501  502 -0.00000000000E+00 -0.00000000000E+00 -0.75485965241E+01  0.75485965241E+01  0.00000000000E+00 0. -1.
          2    1    1    2  501    0  0.68854842079E+01  0.23622766343E+02  0.14833292490E+02  0.28731020667E+02  0.00000000000E+00 0. -1.
         21    1    1    2  503  502 -0.68854842079E+01 -0.23622766343E+02  0.25178155729E+03  0.25298102216E+03  0.00000000000E+00 0. -1.
</event>
<event>
 4    1  0.2293753E+005  0.2111265E+02  0.7546771E-02  0.1517663E+00
          2   -1    0    0  502    0  0.00000000000E+00  0.00000000000E+00  0.17780924080E+01  0.17780924080E+01  0.00000000000E+00 0.  1.
         21   -1    0    0  503  502 -0.00000000000E+00 -0.00000000000E+00 -0.40293498528E+03  0.40293498528E+03  0.00000000000E+00 0.  1.
          2    1    1    2  501    0 -0.50168991911E+01 -0.20507914173E+02 -0.76191101721E+02  0.79062176815E+02  0.00000000000E+00 0.  1.
         21    1    1    2  503  501  0.50168991911E+01  0.20507914173E+02 -0.32496579115E+03  0.32565090087E+03  0.00000000000E+00 0.  1.
</event>
<event>
 4    1  0.2293753E+005  0.2739414E+02  0.7546771E-02  0.1443689E+00
          2   -1    0    0  502    0  0.00000000000E+00  0.00000000000E+00  0.15854632339E+04  0.15854632339E+04  0.00000000000E+00 0.  1.
         21   -1    0    0  503  502 -0.00000000000E+00 -0.00000000000E+00 -0.48151706187E+00  0.48151706187E+00  0.00000000000E+00 0.  1.
          2    1    1    2  501    0  0.21084304454E+02  0.17489743880E+02  0.89592280041E+03  0.89634151043E+03  0.00000000000E+00 0.  1.
         21    1    1    2  503  501 -0.21084304454E+02 -0.17489743880E+02  0.68905891639E+03  0.68960324049E+03  0.00000000000E+00 0.  1.
</event>
<event>
 4    1  0.2293753E+005  0.2514959E+02  0.7546771E-02  0.1467137E+00
          2   -1    0    0  502    0  0.00000000000E+00  0.00000000000E+00  0.63782239559E+03  0.63782239559E+03  0.00000000000E+00 0. -1.
         21   -1    0    0  503  502 -0.00000000000E+00 -0.00000000000E+00 -0.12224903172E+02  0.12224903172E+02  0.00000000000E+00 0. -1.
          2    1    1    2  501    0  0.57090530970E+01 -0.24493027008E+02  0.62436102225E+03  0.62486733613E+03  0.00000000000E+00 0. -1.
         21    1    1    2  503  501 -0.57090530970E+01  0.24493027008E+02  0.12364701624E+01  0.25179962624E+02  0.00000000000E+00 0. -1.
</event>
<event>
 4    1  0.2293753E+005  0.3318784E+02  0.7546771E-02  0.1393771E+00
          2   -1    0    0  502    0  0.00000000000E+00  0.00000000000E+00  0.79396354707E+03  0.79396354707E+03  0.00000000000E+00 0.  1.
         21   -1    0    0  503  502 -0.00000000000E+00 -0.00000000000E+00 -0.46223866129E+02  0.46223866129E+02  0.00000000000E+00 0. -1.
          2    1    1    2  501    0  0.72170134336E+01 -0.32393634681E+02  0.78761165435E+03  0.78831056756E+03  0.00000000000E+00 0.  1.
         21    1    1    2  503  501 -0.72170134336E+01  0.32393634681E+02 -0.39871973407E+02  0.51876845646E+02  0.00000000000E+00 0. -1.
</event>
<event>
 4    1  0.2293753E+005  0.2493554E+02  0.7546771E-02  0.1469526E+00
          2   -1    0    0  503    0  0.00000000000E+00  0.00000000000E+00  0.66076433800E+02  0.66076433800E+02  0.00000000000E+00 0. -1.
         21   -1    0    0  501  502 -0.00000000000E+00 -0.00000000000E+00 -0.22509921667E+02  0.22509921667E+02  0.00000000000E+00 0. -1.
          2    1    1    2  501    0 -0.24763428233E+02 -0.29247020964E+01  0.55572905835E+02  0.60910829277E+02  0.00000000000E+00 0. -1.
         21    1    1    2  503  502  0.24763428233E+02  0.29247020964E+01 -0.12006393702E+02  0.27675526191E+02  0.00000000000E+00 0. -1.
</event>
<event>
 4    1  0.2293753E+005  0.2165187E+02  0.7546771E-02  0.1510158E+00
          2   -1    0    0  502    0  0.00000000000E+00  0.00000000000E+00  0.26881474155E+02  0.26881474155E+02  0.00000000000E+00 0. -1.
         21   -1    0    0  503  502 -0.00000000000E+00 -0.00000000000E+00 -0.27396981180E+02  0.27396981180E+02  0.00000000000E+00 0. -1.
          2    1    1    2  501    0  0.57454710293E+01 -0.20875658177E+02  0.16103537575E+02  0.26983837090E+02  0.00000000000E+00 0. -1.
         21    1    1    2  503  501 -0.57454710293E+01  0.20875658177E+02 -0.16619044601E+02  0.27294618245E+02  0.00000000000E+00 0. -1.
</event>
<event>
 4    1  0.2293753E+005  0.3520113E+02  0.7546771E-02  0.1379155E+00
          2   -1    0    0  503    0  0.00000000000E+00  0.00000000000E+00  0.27895960080E+03  0.27895960080E+03  0.00000000000E+00 0.  1.
         21   -1    0    0  501  502 -0.00000000000E+00 -0.00000000000E+00 -0.59328445397E+01  0.59328445397E+01  0.00000000000E+00 0. -1.
          2    1    1    2  501    0 -0.97352162719E+01 -0.33828169440E+02  0.20792116707E+03  0.21087989757E+03  0.00000000000E+00 0.  1.
         21    1    1    2  503  502  0.97352162719E+01  0.33828169440E+02  0.65105589192E+02  0.74012547771E+02  0.00000000000E+00 0. -1.
</event>
<event>
 4    1  0.2293753E+005  0.2579924E+02  0.7546771E-02  0.1460058E+00
          2   -1    0    0  502    0  0.00000000000E+00  0.00000000000E+00  0.18680191294E+04  0.18680191294E+04  0.00000000000E+00 0. -1.
         21   -1    0    0  503  502 -0.00000000000E+00 -0.00000000000E+00 -0.16441743076E+01  0.16441743076E+01  0.00000000000E+00 0.  1.
          2    1    1    2  501    0  0.16215466831E+01  0.25748231118E+02  0.17605463116E+04  0.17607353339E+04  0.00000000000E+00 0. -1.
         21    1    1    2  503  501 -0.16215466831E+01 -0.25748231118E+02  0.10582864355E+03  0.10892796985E+03  0.00000000000E+00 0.  1.
</event>
<event>
 4    1  0.2293753E+005  0.2664270E+02  0.7546771E-02  0.1451231E+00
          2   -1    0    0  503    0  0.00000000000E+00  0.00000000000E+00  0.10008036817E+01  0.10008036817E+01  0.00000000000E+00 0. -1.
         21   -1    0    0  501  502 -0.00000000000E+00 -0.00000000000E+00 -0.72083153194E+03  0.72083153194E+03  0.00000000000E+00 0. -1.
          2    1    1    2  501    0 -0.91312837871E+01  0.25029048215E+02 -0.40563657911E+03  0.40651060000E+03  0.00000000000E+00 0. -1.
         21    1    1    2  503  502  0.91312837871E+01 -0.25029048215E+02 -0.31419414915E+03  0.31532173563E+03  0.00000000000E+00 0. -1.
</event>
<event>
 4    1  0.2293753E+005  0.2434857E+02  0.7546771E-02  0.1476224E+00
          2   -1    0    0  502    0  0.00000000000E+00  0.00000000000E+00  0.98234139755E+02  0.98234139755E+02  0.00000000000E+00 0.  1.
         21   -1    0    0  503  502 -0.00000000000E+00 -0.00000000000E+00 -0.63463769294E+01  0.63463769294E+01  0.00000000000E+00 0.  1.
          2    1    1    2  501    0  0.24227319080E+02  0.24269499360E+01  0.57524446934E+02  0.62465310940E+02  0.00000000000E+00 0.  1.
         21    1    1    2  503  501 -0.24227319080E+02 -0.24269499360E+01  0.34363315891E+02  0.42115205744E+02  0.00000000000E+00 0.  1.
</event>
<event>
 4    1  0.2293753E+005  0.2051180E+02  0.7546771E-02  0.1526351E+00
          2   -1    0    0  503    0  0.00000000000E+00  0.00000000000E+00  0.30539556646E+03  0.30539556646E+03  0.00000000000E+00 0. -1.
         21   -1    0    0  501  502 -0.00000000000E+00 -0.00000000000E+00 -0.80190761050E+01  0.80190761050E+01  0.00000000000E+00 0.  1.
          2    1    1    2  501    0  0.20441612139E+02  0.16953608241E+01  0.29130061519E+03  0.29202188645E+03  0.00000000000E+00 0. -1.
         21    1    1    2  503  502 -0.20441612139E+02 -0.16953608241E+01  0.60758751639E+01  0.21392756115E+02  0.00000000000E+00 0.  1.
</event>
<event>
 4    1  0.2293753E+005  0.2489399E+02  0.7546771E-02  0.1469993E+00
          2   -1    0    0  503    0  0.00000000000E+00  0.00000000000E+00  0.14996007439E+02  0.14996007439E+02  0.00000000000E+00 0. -1.
         21   -1    0    0  501  502 -0.00000000000E+00 -0.00000000000E+00 -0.62359040369E+03  0.62359040369E+03  0.00000000000E+00 0. -1.
          2    1    1    2  501    0 -0.21857311114E+02  0.11915057459E+02  0.42349641386E+01  0.25251644791E+02  0.00000000000E+00 0. -1.
         21    1    1    2  503  502  0.21857311114E+02 -0.11915057459E+02 -0.61282936039E+03  0.61333476633E+03  0.00000000000E+00 0. -1.
</event>
<event>
 4    1  0.2293753E+005  0.2130580E+02  0.7546771E-02  0.1514943E+00
          2   -1    0    0  503    0  0.00000000000E+00  0.00000000000E+00  0.95623961605E+03  0.95623961605E+03  0.00000000000E+00 0. -1.
         21   -1    0    0  501  502 -0.00000000000E+00 -0.00000000000E+00 -0.65443923028E+00  0.65443923028E+00  0.00000000000E+00 0. -1.
          2    1    1    2  501    0 -0.17576549813E+02  0.12041670242E+02  0.72852358567E+03  0.72883506489E+03  0.00000000000E+00 0. -1.
         21    1    1    2  503  502  0.17576549813E+02 -0.12041670242E+02  0.22706159114E+03  0.22805899039E+03  0.00000000000E+00 0. -1.
</event>
<event>
 4    1  0.2293753E+005  0.2249979E+02  0.7546771E-02  0.1498877E+00
          2   -1    0    0  502    0  0.00000000000E+00  0.00000000000E+00  0.16638143048E+03  0.16638143048E+03  0.00000000000E+00 0.  1.
         21   -1    0    0  503  502 -0.00000000000E+00 -0.00000000000E+00 -0.45218256040E+01  0.45218256040E+01  0.00000000000E+00 0.  1.
          2    1    1    2  501    0  0.17626690604E+02  0.13983570929E+02  0.12980328526E+03  0.13173888318E+03  0.00000000000E+00 0.  1.
         21    1    1    2  503  501 -0.17626690604E+02 -0.13983570929E+02  0.32056319619E+02  0.39164372906E+02  0.00000000000E+00 0.  1.
</event>
<event>
 4    1  0.2293753E+005  0.3203108E+02  0.7546771E-02  0.1402730E+00
          2   -1    0    0  503    0  0.00000000000E+00  0.00000000000E+00  0.14547325784E+04  0.14547325784E+04  0.00000000000E+00 0.  1.
         21   -1    0    0  501  502 -0.00000000000E+00 -0.00000000000E+00 -0.12201705970E+01  0.12201705970E+01  0.00000000000E+00 0.  1.
          2    1    1    2  501    0  0.30130410384E+02 -0.10869624962E+02  0.11996520271E+04  0.12000795709E+04  0.00000000000E+00 0.  1.
         21    1    1    2  503  502 -0.30130410384E+02  0.10869624962E+02  0.25386038072E+03  0.25587317811E+03  0.00000000000E+00 0.  1.
</event>
<event>
 4    1  0.2293753E+005  0.3209328E+02  0.7546771E-02  0.1402237E+00
          2   -1    0    0  503    0  0.00000000000E+00  0.00000000000E+00  0.14229073869E+03  0.14229073869E+03  0.00000000000E+00 0.  1.
         21   -1    0    0  501  502 -0.00000000000E+00 -0.00000000000E+00 -0.38804731441E+02  0.38804731441E+02  0.00000000000E+00 0. -1.
          2    1    1    2  501    0  0.25627874845E+02  0.19318139861E+02  0.13340994320E+03  0.13721585711E+03  0.00000000000E+00 0.  1.
         21    1    1    2  503  502 -0.25627874845E+02 -0.19318139861E+02 -0.29923935948E+02  0.43879613027E+02  0.00000000000E+00 0. -1.
</event>
<event>
 4    1  0.2293753E+005  0.2043035E+02  0.7546771E-02  0.1527555E+00
          2   -1    0    0  503    0  0.00000000000E+00  0.00000000000E+00  0.19426808161E+02  0.19426808161E+02  0.00000000000E+00 0.  1.
         21   -1    0    0  501  502 -0.00000000000E+00 -0.00000000000E+00 -0.36060420545E+02  0.36060420545E+02  0.00000000000E+00 0.  1.
          2    1    1    2  501    0 -0.20358073776E+02 -0.17170151300E+01  0.93211069071E+01  0.22456231714E+02  0.00000000000E+00 0.  1.
         21    1    1    2  503  502  0.20358073776E+02  0.17170151300E+01 -0.25954719292E+02  0.33030996992E+02  0.00000000000E+00 0.  1.
</event>
<event>
 4    1  0.2293753E+005  0.2143553E+02  0.7546771E-02  0.1513137E+00
          2   -1    0    0  503    0  0.00000000000E+00  0.00000000000E+00  0.12479611986E+03  0.12479611986E+03  0.00000000000E+00 0.  1.
         21   -1    0    0  501  502 -0.00000000000E+00 -0.00000000000E+00 -0.70516192567E+01  0.70516192567E+01  0.00000000000E+00 0. -1.
          2    1    1    2  501    0 -0.20306282565E+02 -0.68656174215E+01  0.10444421115E+03  0.10662117546E+03  0.00000000000E+00 0.  1.
         21    1    1    2  503  502  0.20306282565E+02  0.68656174215E+01  0.13300289450E+02  0.25226563651E+02  0.00000000000E+00 0. -1.
</event>
<event>
 4    1  0.2293753E+005  0.3566678E+02  0.7546771E-02  0.1375935E+00
          2   -1    0    0  503    0  0.00000000000E+00  0.00000000000E+00  0.11012884093E+04  0.11012884093E+04  0.00000000000E+00 0. -1.
         21   -1    0    0  501  502 -0.00000000000E+00 -0.00000000000E+00 -0.11328839008E+02  0.11328839008E+02  0.00000000000E+00 0.  1.
          2    1    1    2  501    0  0.29717101362E+02 -0.19723421660E+02  0.10721647001E+04  0.10727577842E+04  0.00000000000E+00 0. -1.
         21    1    1    2  503  502 -0.29717101362E+02  0.19723421660E+02  0.17794870272E+02  0.39859464163E+02  0.00000000000E+00 0.  1.
</event>
<event>
 4    1  0.2293753E+005  0.2190181E+02  0.7546771E-02  0.1506769E+00
          2   -1    0    0  502    0  0.00000000000E+00  0.00000000000E+00  0.24930201931E+03  0.24930201931E+03  0.00000000000E+00 0. -1.
         21   -1    0    0  503  502 -0.00000000000E+00 -0.00000000000E+00 -0.61831701198E+01  0.61831701198E+01  0.00000000000E+00 0.  1.
          2    1    1    2  501    0  0.21682071384E+02 -0.30946871720E+01  0.22757899478E+03  0.22863046204E+03  0.00000000000E+00 0. -1.
         21    1    1    2  503  501 -0.21682071384E+02  0.30946871720E+01  0.15539854417E+02  0.26854727395E+02  0.00000000000E+00 0.  1.
</event>
<event>
 4    1  0.2293753E+005  0.2951170E+02  0.7546771E-02  0.1423888E+00
          2   -1    0    0  503    0  0.00000000000E+00  0.00000000000E+00  0.15363758116E+03  0.15363758116E+03  0.00000000000E+00 0. -1.
         21   -1    0    0  501  502 -0.00000000000E+00 -0.00000000000E+00 -0.56694717488E+01  0.56694717488E+01  0.00000000000E+00 0. -1.
          2    1    1    2  501    0  0.24544789749E+02  0.16385784514E+02  0.73116673727E+02  0.78847882754E+02  0.00000000000E+00 0. -1.
         21    1    1    2  503  502 -0.24544789749E+02 -0.16385784514E+02  0.74851435679E+02  0.80459170150E+02  0.00000000000E+00 0. -1.
</event>
<event>
 4    1  0.2293753E+005  0.2427558E+02  0.7546771E-02  0.1477073E+00
          2   -1    0    0  503    0  0.00000000000E+00  0.00000000000E+00  0.15672897530E+04  0.15672897530E+04  0.00000000000E+00 0.  1.
         21   -1    0    0  501  502 -0.00000000000E+00 -0.00000000000E+00 -0.64503378302E+01  0.64503378302E+01  0.00000000000E+00 0.  1.
          2    1    1    2  501    0  0.22236891322E+02  0.97377754883E+01  0.15440113963E+04  0.15442022198E+04  0.00000000000E+00 0.  1.
         21    1    1    2  503  502 -0.22236891322E+02 -0.97377754883E+01  0.16828018825E+02  0.29537871025E+02  0.00000000000E+00 0.  1.
</event>
<event>
 4    1  0.2293753E+005  0.2410246E+02  0.7546771E-02  0.1479100E+00
          2   -1    0    0  502    0  0.00000000000E+00  0.00000000000E+00  0.48836889165E+03  0.48836889165E+03  0.00000000000E+00 0. -1.
         21   -1    0    0  503  502 -0.00000000000E+00 -0.00000000000E+00 -0.21498466970E+01  0.21498466970E+01  0.00000000000E+00 0.  1.
          2    1    1    2  501    0 -0.12732507443E+02  0.20464892989E+02  0.40702859859E+03  0.40774159545E+03  0.00000000000E+00 0. -1.
         21    1    1    2  503  501  0.12732507443E+02 -0.20464892989E+02  0.79190446361E+02  0.82777142894E+02  0.00000000000E+00 0.  1.
</event>
<event>
 4    1  0.2293753E+005  0.2511747E+02  0.7546771E-02  0.1467493E+00
          2   -1    0    0  503    0  0.00000000000E+00  0.00000000000E+00  0.48064199951E+03  0.48064199951E+03  0.00000000000E+00 0. -1.
         21   -1    0    0  501  502 -0.00000000000E+00 -0.00000000000E+00 -0.23041461835E+01  0.23041461835E+01  0.00000000000E+00 0. -1.
          2    1    1    2  501    0 -0.23850861463E+02  0.78755268200E+01  0.39757492168E+03  0.39836755122E+03  0.00000000000E+00 0. -1.
         21    1    1    2  503  502  0.23850861463E+02 -0.78755268200E+01  0.80762931651E+02  0.84578594479E+02  0.00000000000E+00 0. -1.
</event>
<event>
 4    1  0.2293753E+005  0.2933625E+02  0.7546771E-02  0.1425453E+00
          2   -1    0    0  502    0  0.00000000000E+00  0.00000000000E+00  0.36296800356E+03  0.36296800356E+03  0.00000000000E+00 0.  1.
         21   -1    0    0  503  502 -0.00000000000E+00 -0.00000000000E+00 -0.50202631024E+01  0.50202631024E+01  0.00000000000E+00 0.  1.
          2    1    1    2  501    0  0.66673354246E+01  0.28568550299E+02  0.31263316072E+03  0.31400654231E+03  0.00000000000E+00 0.  1.
         21    1    1    2  503  501 -0.66673354246E+01 -0.28568550299E+02  0.45314579734E+02  0.53981724355E+02  0.00000000000E+00 0.  1.
</event>
<event>
 4    1  0.2293753E+005  0.2048414E+02  0.7546771E-02  0.1526759E+00
          2   -1    0    0  502    0  0.00000000000E+00  0.00000000000E+00  0.15688139058E+04  0.15688139058E+04  0.00000000000E+00 0.  1.
         21   -1    0    0  503  502 -0.00000000000E+00 -0.00000000000E+00 -0.41084669980E+00  0.41084669980E+00  0.00000000000E+00 0.  1.
          2    1    1    2  501    0 -0.13483433607E+02  0.15420662392E+02  0.12477178306E+04  0.12478859662E+04  0.00000000000E+00 0.  1.
         21    1    1    2  503  501  0.13483433607E+02 -0.15420662392E+02  0.32068522848E+03  0.32133878629E+03  0.00000000000E+00 0.  1.
</event>
<event>
 4    1  0.2293753E+005  0.2085056E+02  0.7546771E-02  0.1521409E+00
          2   -1    0    0  503    0  0.00000000000E+00  0.00000000000E+00  0.22538548674E+03  0.22538548674E+03  0.00000000000E+00 0.  1.
         21   -1    0    0  501  502 -0.00000000000E+00 -0.00000000000E+00 -0.43365969132E+01  0.43365969132E+01  0.00000000000E+00 0. -1.
          2    1    1    2  501    0 -0.19246757352E+02 -0.80192331524E+01  0.19610975915E+03  0.19721506890E+03  0.00000000000E+00 0.  1.
         21    1    1    2  503  502  0.19246757352E+02  0.80192331524E+01  0.24939130673E+02  0.32507014745E+02  0.00000000000E+00 0. -1.
</event>
<event>
 4    1  0.2293753E+005  0.2053527E+02  0.7546771E-02  0.1526004E+00
          2   -1    0    0  503    0  0.00000000000E+00  0.00000000000E+00  0.17000114407E+03  0.17000114407E+03  0.00000000000E+00 0. -1.
         21   -1    0    0  501  502 -0.00000000000E+00 -0.00000000000E+00 -0.76079469208E+01  0.76079469208E+01  0.00000000000E+00 0. -1.
          2    1    1    2  501    0  0.16482978557E+02 -0.12247810267E+02  0.15410031263E+03  0.15546254787E+03  0.00000000000E+00 0. -1.
         21    1    1    2  503  502 -0.16482978557E+02  0.12247810267E+02  0.82928845199E+01  0.22146543119E+02  0.00000000000E+00 0. -1.
</event>
<event>
 4    1  0.2293753E+005  0.2047458E+02  0.7546771E-02  0.1526900E+00
          2   -1    0    0  503    0  0.00000000000E+00  0.00000000000E+00  0.94622026667E+02  0.94622026667E+02  0.00000000000E+00 0. -1.
         21   -1    0    0  501  502 -0.00000000000E+00 -0.00000000000E+00 -0.82730580116E+02  0.82730580116E+02  0.00000000000E+00 0.  1.
          2    1    1    2  501    0  0.11063344492E+02  0.17228203843E+02  0.92214982289E+02  0.94460634963E+02  0.00000000000E+00 0. -1.
         21    1    1    2  503  502 -0.11063344492E+02 -0.17228203843E+02 -0.80323535738E+02  0.82891971821E+02  0.00000000000E+00 0.  1.
</event>
<event>
 4    1  0.2293753E+005  0.1098398E+03  0.7546771E-02  0.1147769E+00
          2   -1    0    0  502    0  0.00000000000E+00  0.00000000000E+00  0.71430499346E+03  0.71430499346E+03  0.00000000000E+00 0. -1.
         21   -1    0    0  503  502 -0.00000000000E+00 -0.00000000000E+00 -0.11828482774E+03  0.11828482774E+03  0.00000000000E+00 0. -1.
          2    1    1    2  501    0  0.76201011491E+02 -0.79108755624E+02  0.68343869190E+03  0.69220895325E+03  0.00000000000E+00 0. -1.
         21    1    1    2  503  501 -0.76201011491E+02  0.79108755624E+02 -0.87418526180E+02  0.14038086796E+03  0.00000000000E+00 0. -1.
</event>
<event>
 4    1  0.2293753E+005  0.2128730E+02  0.7546771E-02  0.1515202E+00
          2   -1    0    0  502    0  0.00000000000E+00  0.00000000000E+00  0.31858388225E+03  0.31858388225E+03  0.00000000000E+00 0. -1.
         21   -1    0    0  503  502 -0.00000000000E+00 -0.00000000000E+00 -0.61171835268E+01  0.61171835268E+01  0.00000000000E+00 0.  1.
          2    1    1    2  501    0  0.27073894420E+01  0.21114430123E+02  0.29846177958E+03  0.29921995753E+03  0.00000000000E+00 0. -1.
         21    1    1    2  503  501 -0.27073894420E+01 -0.21114430123E+02  0.14004919141E+02  0.25481108240E+02  0.00000000000E+00 0.  1.
</event>
<event>
 4    1  0.2293753E+005  0.3402054E+02  0.7546771E-02  0.1387583E+00
          2   -1    0    0  503    0  0.00000000000E+00  0.00000000000E+00  0.15217823061E+03  0.15217823061E+03  0.00000000000E+00 0.  1.
         21   -1    0    0  501  502 -0.00000000000E+00 -0.00000000000E+00 -0.57357050083E+02  0.57357050083E+02  0.00000000000E+00 0.  1.
          2    1    1    2  501    0 -0.23441491243E+02 -0.24655495513E+02  0.14498521982E+03  0.14892317126E+03  0.00000000000E+00 0.  1.
         21    1    1    2  503  502  0.23441491243E+02  0.24655495513E+02 -0.50164039300E+02  0.60612109431E+02  0.00000000000E+00 0.  1.
</event>
<event>
 4    1  0.2293753E+005  0.2017416E+02  0.7546771E-02  0.1531390E+00
          2   -1    0    0  502    0  0.00000000000E+00  0.00000000000E+00  0.13075087259E+04  0.13075087259E+04  0.00000000000E+00 0. -1.
         21   -1    0    0  503  502 -0.00000000000E+00 -0.00000000000E+00 -0.56684805028E+00  0.56684805028E+00  0.00000000000E+00 0. -1.
          2    1    1    2  501    0 -0.15775159520E+02 -0.12575421050E+02  0.10926338744E+04  0.10928201043E+04  0.00000000000E+00 0. -1.
         21    1    1    2  503  501  0.15775159520E+02  0.12575421050E+02  0.21430800347E+03  0.21525546967E+03  0.00000000000E+00 0. -1.
</event>
<event>
 4    1  0.2293753E+005  0.2002147E+02  0.7546771E-02  0.1533708E+00
          2   -1    0    0  503    0  0.00000000000E+00  0.00000000000E+00  0.37863188502E+03  0.37863188502E+03  0.00000000000E+00 0. -1.
         21   -1    0    0  501  502 -0.00000000000E+00 -0.00000000000E+00 -0.88462550919E+01  0.88462550919E+01  0.00000000000E+00 0.  1.
          2    1    1    2  501    0 -0.10824835539E+02 -0.16842862267E+02  0.36666939875E+03  0.36721561385E+03  0.00000000000E+00 0. -1.
         21    1    1    2  503  502  0.10824835539E+02  0.16842862267E+02  0.31162311768E+01  0.20262526263E+02  0.00000000000E+00 0.  1.
</event>
<event>
 4    1  0.2293753E+005  0.3356398E+02  0.7546771E-02  0.1390950E+00
          2   -1    0    0  503    0  0.00000000000E+00  0.00000000000E+00  0.22357241585E+04  0.22357241585E+04  0.00000000000E+00 0. -1.
         21   -1    0    0  501  502 -0.00000000000E+00 -0.00000000000E+00 -0.93137479353E+00  0.93137479353E+00  0.00000000000E+00 0.  1.
          2    1    1    2  501    0  0.31847218135E+02 -0.10596940558E+02  0.18750512771E+04  0.18753516557E+04  0.00000000000E+00 0. -1.
         21    1    1    2  503  502 -0.31847218135E+02  0.10596940558E+02  0.35974150656E+03  0.36130387764E+03  0.00000000000E+00 0.  1.
</event>
<event>
 4    1  0.2293753E+005  0.2904372E+02  0.7546771E-02  0.1428092E+00
          2   -1    0    0  503    0  0.00000000000E+00  0.00000000000E+00  0.73167849522E+03  0.73167849522E+03  0.00000000000E+00 0. -1.
         21   -1    0    0  501  502 -0.00000000000E+00 -0.00000000000E+00 -0.15406387514E+03  0.15406387514E+03  0.00000000000E+00 0. -1.
          2    1    1    2  501    0  0.15444058972E+02  0.24597126007E+02  0.73001835218E+03  0.73059587467E+03  0.00000000000E+00 0. -1.
         21    1    1    2  503  502 -0.15444058972E+02 -0.24597126007E+02 -0.15240373211E+03  0.15514649569E+03  0.00000000000E+00 0. -1.
</event>
<event>
 4    1  0.2293753E+005  0.3311125E+02  0.7546771E-02  0.1394351E+00
          2   -1    0    0  503    0  0.00000000000E+00  0.00000000000E+00  0.14777944029E+03  0.14777944029E+03  0.00000000000E+00 0. -1.
         21   -1    0    0  501  502 -0.00000000000E+00 -0.00000000000E+00 -0.32938145047E+02  0.32938145047E+02  0.00000000000E+00 0. -1.
          2    1    1    2  501    0 -0.92087842155E+01  0.31804919584E+02  0.13695506845E+03  0.14090083531E+03  0.00000000000E+00 0. -1.
         21    1    1    2  503  502  0.92087842155E+01 -0.31804919584E+02 -0.22113773214E+02  0.39816750021E+02  0.00000000000E+00 0. -1.
</event>
<event>
 4    1  0.2293753E+005  0.5511907E+02  0.7546771E-02  0.1277383E+00
          2   -1    0    0  503    0  0.00000000000E+00  0.00000000000E+00  0.10783569945E+04  0.10783569945E+04  0.00000000000E+00 0.  1.
         21   -1    0    0  501  502 -0.00000000000E+00 -0.00000000000E+00 -0.23478552069E+02  0.23478552069E+02  0.00000000000E+00 0.  1.
          2    1    1    2  501    0  0.25507650723E+02  0.48861765871E+02  0.10442468175E+04  0.10457004964E+04  0.00000000000E+00 0.  1.
         21    1    1    2  503  502 -0.25507650723E+02 -0.48861765871E+02  0.10631624994E+02  0.56135050187E+02  0.00000000000E+00 0.  1.
</event>
<event>
 4    1  0.2293753E+005  0.2304448E+02  0.7546771E-02  0.1491940E+00
          2   -1    0    0  502    0  0.00000000000E+00  0.00000000000E+00  0.11321719707E+03  0.11321719707E+03  0.00000000000E+00 0.  1.
         21   -1    0    0  503  502 -0.00000000000E+00 -0.00000000000E+00 -0.95137148027E+02  0.95137148027E+02  0.00000000000E+00 0. -1.
          2    1    1    2  501    0 -0.21540175273E+02 -0.81895515828E+01  0.11061662740E+03  0.11299153138E+03  0.00000000000E+00 0.  1.
         21    1    1    2  503  501  0.21540175273E+02  0.81895515828E+01 -0.92536578358E+02  0.95362813718E+02  0.00000000000E+00 0. -1.
</event>
<event>
 4    1  0.2293753E+005  0.2120559E+02  0.7546771E-02  0.1516350E+00
          2   -1    0    0  503    0  0.00000000000E+00  0.00000000000E+00  0.23849650707E+03  0.23849650707E+03  0.00000000000E+00 0.  1.
         21   -1    0    0  501  502 -0.00000000000E+00 -0.00000000000E+00 -0.81371504369E+03  0.81371504369E+03  0.00000000000E+00 0. -1.
          2    1    1    2  501    0  0.21177004874E+02 -0.11007003735E+01  0.23788663149E+03  0.23882991127E+03  0.00000000000E+00 0.  1.
         21    1    1    2  503  502 -0.21177004874E+02  0.11007003735E+01 -0.81310516810E+03  0.81338163950E+03  0.00000000000E+00 0. -1.
</event>
<event>
 4    1  0.2293753E+005  0.3248108E+02  0.7546771E-02  0.1399193E+00
          2   -1    0    0  502    0  0.00000000000E+00  0.00000000000E+00  0.33623329469E+02  0.33623329469E+02  0.00000000000E+00 0.  1.
         21   -1    0    0  503  502 -0.00000000000E+00 -0.00000000000E+00 -0.20674394749E+03  0.20674394749E+03  0.00000000000E+00 0. -1.
          2    1    1    2  501    0 -0.25187627577E+02 -0.20508633483E+02  0.24128070173E+02  0.40462135393E+02  0.00000000000E+00 0.  1.
         21    1    1    2  503  501  0.25187627577E+02  0.20508633483E+02 -0.19724868819E+03  0.19990514156E+03  0.00000000000E+00 0. -1.
</event>
<event>
 4    1  0.2293753E+005  0.2335757E+02  0.7546771E-02  0.1488056E+00
          2   -1    0    0  503    0  0.00000000000E+00  0.00000000000E+00  0.80864775363E+03  0.80864775363E+03  0.00000000000E+00 0.  1.
         21   -1    0    0  501  502 -0.00000000000E+00 -0.00000000000E+00 -0.79874172370E+01  0.79874172370E+01  0.00000000000E+00 0. -1.
          2    1    1    2  501    0  0.15498870910E+02 -0.17474580246E+02  0.79102257929E+03  0.79136735901E+03  0.00000000000E+00 0.  1.
         21    1    1    2  503  502 -0.15498870910E+02  0.17474580246E+02  0.96377571030E+01  0.25267811861E+02  0.00000000000E+00 0. -1.
</event>
<event>
 4    1  0.2293753E+005  0.2950604E+02  0.7546771E-02  0.1423938E+00
          2   -1    0    0  502    0  0.00000000000E+00  0.00000000000E+00  0.37462298384E+03  0.37462298384E+03  0.00000000000E+00 0. -1.
         21   -1    0    0  503  502 -0.00000000000E+00 -0.00000000000E+00 -0.23607266241E+03  0.23607266241E+03  0.00000000000E+00 0. -1.
          2    1    1    2  501    0 -0.26577479863E+02 -0.12815781097E+02  0.37311630911E+03  0.37428116010E+03  0.00000000000E+00 0. -1.
         21    1    1    2  503  501  0.26577479863E+02  0.12815781097E+02 -0.23456598768E+03  0.23641448614E+03  0.00000000000E+00 0. -1.
</event>
<event>
 4    1  0.2293753E+005  0.2603996E+02  0.7546771E-02  0.1457498E+00
          2   -1    0    0  503    0  0.00000000000E+00  0.00000000000E+00  0.70118405798E+03  0.70118405798E+03  0.00000000000E+00 0.  1.
         21   -1    0    0  501  502 -0.00000000000E+00 -0.00000000000E+00 -0.14002161742E+02  0.14002161742E+02  0.00000000000E+00 0.  1.
          2    1    1    2  501    0  0.10168246099E+02 -0.23972619998E+02  0.68861469219E+03  0.68910686693E+03  0.00000000000E+00 0.  1.
         21    1    1    2  503  502 -0.10168246099E+02  0.23972619998E+02 -0.14327959523E+01  0.26079352801E+02  0.00000000000E+00 0.  1.
</event>
<event>
 4    1  0.2293753E+005  0.2627823E+02  0.7546771E-02  0.1454996E+00
          2   -1    0    0  503    0  0.00000000000E+00  0.00000000000E+00  0.26637653423E+03  0.26637653423E+03  0.00000000000E+00 0. -1.
         21   -1    0    0  501  502 -0.00000000000E+00 -0.00000000000E+00 -0.14725730046E+03  0.14725730046E+03  0.00000000000E+00 0.  1.
          2    1    1    2  501    0 -0.21925932577E+02 -0.14484443329E+02  0.26454801408E+03  0.26584995274E+03  0.00000000000E+00 0. -1.
         21    1    1    2  503  502  0.21925932577E+02  0.14484443329E+02 -0.14542878032E+03  0.14778388194E+03  0.00000000000E+00 0.  1.
</event>
<event>
 4    1  0.2293753E+005  0.4996684E+02  0.7546771E-02  0.1298316E+00
          2   -1    0    0  503    0  0.00000000000E+00  0.00000000000E+00  0.71082326461E+03  0.71082326461E+03  0.00000000000E+00 0. -1.
         21   -1    0    0  501  502 -0.00000000000E+00 -0.00000000000E+00 -0.36695908059E+01  0.36695908059E+01  0.00000000000E+00 0.  1.
          2    1    1    2  501    0  0.43553558036E+02 -0.24490265492E+02  0.42751902510E+03  0.43042909096E+03  0.00000000000E+00 0. -1.
         21    1    1    2  503  502 -0.43553558036E+02  0.24490265492E+02  0.27963464871E+03  0.28406376446E+03  0.00000000000E+00 0.  1.
</event>
<event>
 4    1  0.2293753E+005  0.2456792E+02  0.7546771E-02  0.1473696E+00
          2   -1    0    0  502    0  0.00000000000E+00  0.00000000000E+00  0.93953559898E+03  0.93953559898E+03  0.00000000000E+00 0. -1.
         21   -1    0    0  503  502 -0.00000000000E+00 -0.00000000000E+00 -0.27119512290E+02  0.27119512290E+02  0.00000000000E+00 0.  1.
          2    1    1    2  501    0  0.53584017670E+01  0.23976447449E+02  0.93377658399E+03  0.93409972236E+03  0.00000000000E+00 0. -1.
         21    1    1    2  503  501 -0.53584017670E+01 -0.23976447449E+02 -0.21360497304E+02  0.32555388907E+02  0.00000000000E+00 0.  1.
</event>
<event>
 4    1  0.2293753E+005  0.3096038E+02  0.7546771E-02  0.1411430E+00
          2   -1    0    0  503    0  0.00000000000E+00  0.00000000000E+00  0.16499465982E+04  0.16499465982E+04  0.00000000000E+00 0.  1.
         21   -1    0    0  501  502 -0.00000000000E+00 -0.00000000000E+00 -0.92125426952E+00  0.92125426952E+00  0.00000000000E+00 0. -1.
          2    1    1    2  501    0 -0.29634131381E+02 -0.89645693064E+01  0.13261881412E+04  0.13265494831E+04  0.00000000000E+00 0.  1.
         21    1    1    2  503  502  0.29634131381E+02  0.89645693064E+01  0.32283720271E+03  0.32431836936E+03  0.00000000000E+00 0. -1.
</event>
<event>
 4    1  0.2293753E+005  0.2791302E+02  0.7546771E-02  0.1438646E+00
          2   -1    0    0  502    0  0.00000000000E+00  0.00000000000E+00  0.61872978169E+01  0.61872978169E+01  0.00000000000E+00 0. -1.
         21   -1    0    0  503  502 -0.00000000000E+00 -0.00000000000E+00 -0.13179492885E+03  0.13179492885E+03  0.00000000000E+00 0. -1.
          2    1    1    2  501    0 -0.39688327764E+01 -0.27629420520E+02 -0.48244061493E+02  0.55737114934E+02  0.00000000000E+00 0. -1.
         21    1    1    2  503  501  0.39688327764E+01  0.27629420520E+02 -0.77363569536E+02  0.82245111728E+02  0.00000000000E+00 0. -1.
</event>
<event>
 4    1  0.2293753E+005  0.2343769E+02  0.7546771E-02  0.1487074E+00
          2   -1    0    0  503    0  0.00000000000E+00  0.00000000000E+00  0.12718409546E+04  0.12718409546E+04  0.00000000000E+00 0. -1.
         21   -1    0    0  501  502 -0.00000000000E+00 -0.00000000000E+00 -0.16861463703E+01  0.16861463703E+01  0.00000000000E+00 0.  1.
          2    1    1    2  501    0 -0.21161991460E+02 -0.10074494570E+02  0.11842636382E+04  0.11844955425E+04  0.00000000000E+00 0. -1.
         21    1    1    2  503  502  0.21161991460E+02  0.10074494570E+02  0.85891170039E+02  0.89031558528E+02  0.00000000000E+00 0.  1.
</event>
<event>
 4    1  0.2293753E+005  0.3341652E+02  0.7546771E-02  0.1392051E+00
          2   -1    0    0  503    0  0.00000000000E+00  0.00000000000E+00  0.10787450600E+03  0.10787450600E+03  0.00000000000E+00 0.  1.
         21   -1    0    0  501  502 -0.00000000000E+00 -0.00000000000E+00 -0.36852838886E+02  0.36852838886E+02  0.00000000000E+00 0.  1.
          2    1    1    2  501    0  0.29398931370E+02  0.15886058877E+02  0.96875580891E+02  0.10247703257E+03  0.00000000000E+00 0.  1.
         21    1    1    2  503  502 -0.29398931370E+02 -0.15886058877E+02 -0.25853913781E+02  0.42250312308E+02  0.00000000000E+00 0.  1.
</event>
<event>
 4    1  0.2293753E+005  0.2459563E+02  0.7546771E-02  0.1473378E+00
          2   -1    0    0  502    0  0.00000000000E+00  0.00000000000E+00  0.16486784723E+04  0.16486784723E+04  0.00000000000E+00 0. -1.
         21   -1    0    0  503  502 -0.00000000000E+00 -0.00000000000E+00 -0.15229023647E+01  0.15229023647E+01  0.00000000000E+00 0.  1.
          2    1    1    2  501    0  0.10409236187E+02  0.22284365988E+02  0.15424391589E+04  0.15426352466E+04  0.00000000000E+00 0. -1.
         21    1    1    2  503  501 -0.10409236187E+02 -0.22284365988E+02  0.10471641107E+03  0.10756612810E+03  0.00000000000E+00 0.  1.
</event>
<event>
 4    1  0.2293753E+005  0.2479445E+02  0.7546771E-02  0.1471116E+00
          2   -1    0    0  502    0  0.00000000000E+00  0.00000000000E+00  0.55033884592E+02  0.55033884592E+02  0.00000000000E+00 0.  1.
         21   -1    0    0  503  502 -0.00000000000E+00 -0.00000000000E+00 -0.19383825267E+02  0.19383825267E+02  0.00000000000E+00 0.  1.
          2    1    1    2  501    0  0.22358271118E+02 -0.10717860195E+02  0.42045459284E+02  0.48811734869E+02  0.00000000000E+00 0.  1.
         21    1    1    2  503  501 -0.22358271118E+02  0.10717860195E+02 -0.63953999592E+01  0.25605974989E+02  0.00000000000E+00 0.  1.
</event>
<event>
 4    1  0.2293753E+005  0.2194737E+02  0.7546771E-02  0.1506157E+00
          2   -1    0    0  503    0  0.00000000000E+00  0.00000000000E+00  0.10963412417E+04  0.10963412417E+04  0.00000000000E+00 0.  1.
         21   -1    0    0  501  502 -0.00000000000E+00 -0.00000000000E+00 -0.96797918857E+02  0.96797918857E+02  0.00000000000E+00 0. -1.
          2    1    1    2  501    0  0.15377007913E+02 -0.15659969416E+02  0.10949858091E+04  0.10952057383E+04  0.00000000000E+00 0.  1.
         21    1    1    2  503  502 -0.15377007913E+02  0.15659969416E+02 -0.95442486265E+02  0.97933422277E+02  0.00000000000E+00 0. -1.
</event>
<event>
 4    1  0.2293753E+005  0.2291686E+02  0.7546771E-02  0.1493545E+00
          2   -1    0    0  503    0  0.00000000000E+00  0.00000000000E+00  0.20767665521E+03  0.20767665521E+03  0.00000000000E+00 0. -1.
         21   -1    0    0  501  502 -0.00000000000E+00 -0.00000000000E+00 -0.55903044147E+03  0.55903044147E+03  0.00000000000E+00 0.  1.
          2    1    1    2  501    0 -0.15744930660E+02  0.16651712264E+02  0.20680859776E+03  0.20807445416E+03  0.00000000000E+00 0. -1.
         21    1    1    2  503  502  0.15744930660E+02 -0.16651712264E+02 -0.55816238402E+03  0.55863264253E+03  0.00000000000E+00 0.  1.
</event>
<event>
 4    1  0.2293753E+005  0.2429189E+02  0.7546771E-02  0.1476883E+00
          2   -1    0    0  503    0  0.00000000000E+00  0.00000000000E+00  0.14043539605E+04  0.14043539605E+04  0.00000000000E+00 0.  1.
         21   -1    0    0  501  502 -0.00000000000E+00 -0.00000000000E+00 -0.16345029717E+01  0.16345029717E+01  0.00000000000E+00 0.  1.
          2    1    1    2  501    0 -0.19642874253E+02  0.14291722367E+02  0.13072921314E+04  0.13075178059E+04  0.00000000000E+00 0.  1.
         21    1    1    2  503  502  0.19642874253E+02 -0.14291722367E+02  0.95427326115E+02  0.98470657592E+02  0.00000000000E+00 0.  1.
</event>
<event>
 4    1  0.2293753E+005  0.2876646E+02  0.7546771E-02  0.1430627E+00
          2   -1    0    0  503    0  0.00000000000E+00  0.00000000000E+00  0.27511744008E+03  0.27511744008E+03  0.00000000000E+00 0.  1.
         21   -1    0    0  501  502 -0.00000000000E+00 -0.00000000000E+00 -0.18314089926E+02  0.18314089926E+02  0.00000000000E+00 0. -1.
          2    1    1    2  501    0 -0.26691031443E+02  0.10728371033E+02  0.26252938776E+03  0.26410071667E+03  0.00000000000E+00 0.  1.
         21    1    1    2  503  502  0.26691031443E+02 -0.10728371033E+02 -0.57260376092E+01  0.29330813340E+02  0.00000000000E+00 0. -1.
</event>
<event>
 4    1  0.2293753E+005  0.2740438E+02  0.7546771E-02  0.1443588E+00
          2   -1    0    0  502    0  0.00000000000E+00  0.00000000000E+00  0.18820363216E+02  0.18820363216E+02  0.00000000000E+00 0.  1.
         21   -1    0    0  503  502 -0.00000000000E+00 -0.00000000000E+00 -0.18830974460E+03  0.18830974460E+03  0.00000000000E+00 0. -1.
          2    1    1    2  501    0  0.39631426136E+01  0.27116294566E+02  0.71949504565E+01  0.28333147415E+02  0.00000000000E+00 0.  1.
         21    1    1    2  503  501 -0.39631426136E+01 -0.27116294566E+02 -0.17668433184E+03  0.17879696040E+03  0.00000000000E+00 0. -1.
</event>
<event>
 4    1  0.2293753E+005  0.4416689E+02  0.7546771E-02  0.1325658E+00
          2   -1    0    0  502    0  0.00000000000E+00  0.00000000000E+00  0.43960660717E+03  0.43960660717E+03  0.00000000000E+00 0.  1.
         21   -1    0    0  503  502 -0.00000000000E+00 -0.00000000000E+00 -0.20085515319E+03  0.20085515319E+03  0.00000000000E+00 0.  1.
          2    1    1    2  501    0  0.31160373613E+02 -0.31300889148E+02  0.43604948699E+03  0.43828058325E+03  0.00000000000E+00 0.  1.
         21    1    1    2  503  501 -0.31160373613E+02  0.31300889148E+02 -0.19729803302E+03  0.20218117711E+03  0.00000000000E+00 0.  1.
</event>
<event>
 4    1  0.2293753E+005  0.2037005E+02  0.7546771E-02  0.1528452E+00
          2   -1    0    0  503    0  0.00000000000E+00  0.00000000000E+00  0.33694585961E+03  0.33694585961E+03  0.00000000000E+00 0.  1.
         21   -1    0    0  501  502 -0.00000000000E+00 -0.00000000000E+00 -0.12629964270E+02  0.12629964270E+02  0.00000000000E+00 0.  1.
          2    1    1    2  501    0 -0.98151745942E+01  0.17849406691E+02  0.32820610539E+03  0.32883762951E+03  0.00000000000E+00 0.  1.
         21    1    1    2  503  502  0.98151745942E+01 -0.17849406691E+02 -0.38902100422E+01  0.20738194369E+02  0.00000000000E+00 0.  1.
</event>
<event>
 4    1  0.2293753E+005  0.3926084E+02  0.7546771E-02  0.1352873E+00
          2   -1    0    0  502    0  0.00000000000E+00  0.00000000000E+00  0.70678947608E+03  0.70678947608E+03  0.00000000000E+00 0.  1.
         21   -1    0    0  503  502 -0.00000000000E+00 -0.00000000000E+00 -0.39138641038E+01  0.39138641038E+01  0.00000000000E+00 0. -1.
          2    1    1    2  501    0 -0.36253378413E+01  0.39093101545E+02  0.58789603931E+03  0.58920553858E+03  0.00000000000E+00 0.  1.
         21    1    1    2  503  501  0.36253378413E+01 -0.39093101545E+02  0.11497957267E+03  0.12149780160E+03  0.00000000000E+00 0. -1.
</event>
<event>
 4    1  0.2293753E+005  0.3336495E+02  0.7546771E-02  0.1392437E+00
          2   -1    0    0  503    0  0.00000000000E+00  0.00000000000E+00  0.15391179103E+03  0.15391179103E+03  0.00000000000E+00 0. -1.
         21   -1    0    0  501  502 -0.00000000000E+00 -0.00000000000E+00 -0.14071165531E+03  0.14071165531E+03  0.00000000000E+00 0.  1.
          2    1    1    2  501    0 -0.33356418463E+02 -0.75430542233E+00  0.15007579767E+03  0.15373992544E+03  0.00000000000E+00 0. -1.
         21    1    1    2  503  502  0.33356418463E+02  0.75430542233E+00 -0.13687566195E+03  0.14088352090E+03  0.00000000000E+00 0.  1.
</event>
<event>
 4    1  0.2293753E+005  0.3070601E+02  0.7546771E-02  0.1413558E+00
          2   -1    0    0  503    0  0.00000000000E+00  0.00000000000E+00  0.13385930607E+04  0.13385930607E+04  0.00000000000E+00 0.  1.
         21   -1    0    0  501  502 -0.00000000000E+00 -0.00000000000E+00 -0.71556371965E+00  0.71556371965E+00  0.00000000000E+00 0.  1.
          2    1    1    2  501    0 -0.29418905545E+02  0.87969944910E+01  0.75271019322E+03  0.75333624238E+03  0.00000000000E+00 0.  1.
         21    1    1    2  503  502  0.29418905545E+02 -0.87969944910E+01  0.58516730376E+03  0.58597238203E+03  0.00000000000E+00 0.  1.
</event>
<event>
 4    1  0.2293753E+005  0.2227569E+02  0.7546771E-02  0.1501799E+00
          2   -1    0    0  502    0  0.00000000000E+00  0.00000000000E+00  0.14540077748E+04  0.14540077748E+04  0.00000000000E+00 0.  1.
         21   -1    0    0  503  502 -0.00000000000E+00 -0.00000000000E+00 -0.73846064553E+02  0.73846064553E+02  0.00000000000E+00 0.  1.
          2    1    1    2  501    0  0.14298722670E+02  0.17080773250E+02  0.14522405467E+04  0.14524113783E+04  0.00000000000E+00 0.  1.
         21    1    1    2  503  501 -0.14298722670E+02 -0.17080773250E+02 -0.72078836396E+02  0.75442461128E+02  0.00000000000E+00 0.  1.
</event>
<event>
 4    1  0.2293753E+005  0.2279215E+02  0.7546771E-02  0.1495125E+00
          2   -1    0    0  503    0  0.00000000000E+00  0.00000000000E+00  0.12334749556E+04  0.12334749556E+04  0.00000000000E+00 0. -1.
         21   -1    0    0  501  502 -0.00000000000E+00 -0.00000000000E+00 -0.19425156377E+01  0.19425156377E+01  0.00000000000E+00 0.  1.
          2    1    1    2  501    0  0.22141490213E+02 -0.54070979728E+01  0.11624268315E+04  0.11626502574E+04  0.00000000000E+00 0. -1.
         21    1    1    2  503  502 -0.22141490213E+02  0.54070979728E+01  0.69105608406E+02  0.72767213843E+02  0.00000000000E+00 0.  1.
</event>
<event>
 4    1  0.2293753E+005  0.2118365E+02  0.7546771E-02  0.1516659E+00
          2   -1    0    0  502    0  0.00000000000E+00  0.00000000000E+00  0.33877258911E+03  0.33877258911E+03  0.00000000000E+00 0. -1.
         21   -1    0    0  503  502 -0.00000000000E+00 -0.00000000000E+00 -0.11042370571E+02  0.11042370571E+02  0.00000000000E+00 0. -1.
          2    1    1    2  501    0  0.16982003957E+02 -0.12663273519E+02  0.32794674049E+03  0.32863020487E+03  0.00000000000E+00 0. -1.
         21    1    1    2  503  501 -0.16982003957E+02  0.12663273519E+02 -0.21652195303E+00  0.21184754810E+02  0.00000000000E+00 0. -1.
</event>
<event>
 4    1  0.2293753E+005  0.3867529E+02  0.7546771E-02  0.1356428E+00
          2   -1    0    0  502    0  0.00000000000E+00  0.00000000000E+00  0.42110192909E+02  0.42110192909E+02  0.00000000000E+00 0. -1.
         21   -1    0    0  503  502 -0.00000000000E+00 -0.00000000000E+00 -0.44935247067E+02  0.44935247067E+02  0.00000000000E+00 0. -1.
          2    1    1    2  501    0  0.16477589839E+02  0.34989530536E+02  0.18509112976E+02  0.42876164441E+02  0.00000000000E+00 0. -1.
         21    1    1    2  503  501 -0.16477589839E+02 -0.34989530536E+02 -0.21334167133E+02  0.44169275535E+02  0.00000000000E+00 0. -1.
</event>
<event>
 4    1  0.2293753E+005  0.2728795E+02  0.7546771E-02  0.1444737E+00
          2   -1    0    0  502    0  0.00000000000E+00  0.00000000000E+00  0.86894018796E+03  0.86894018796E+03  0.00000000000E+00 0. -1.
         21   -1    0    0  503  502 -0.00000000000E+00 -0.00000000000E+00 -0.41844258134E+01  0.41844258134E+01  0.00000000000E+00 0. -1.
          2    1    1    2  501    0  0.20699406704E+02 -0.17781084287E+02  0.82167948769E+03  0.82213247892E+03  0.00000000000E+00 0. -1.
         21    1    1    2  503  501 -0.20699406704E+02  0.17781084287E+02  0.43076274454E+02  0.50992134856E+02  0.00000000000E+00 0. -1.
</event>
<event>
 4    1  0.2293753E+005  0.2152888E+02  0.7546771E-02  0.1511846E+00
          2   -1    0    0  502    0  0.00000000000E+00  0.00000000000E+00  0.17158647840E+04  0.17158647840E+04  0.00000000000E+00 0.  1.
         21   -1    0    0  503  502 -0.00000000000E+00 -0.00000000000E+00 -0.75561062561E+00  0.75561062561E+00  0.00000000000E+00 0.  1.
          2    1    1    2  501    0  0.18568915221E+02 -0.10894404745E+02  0.15455488475E+04  0.15456987846E+04  0.00000000000E+00 0.  1.
         21    1    1    2  503  501 -0.18568915221E+02  0.10894404745E+02  0.16956032583E+03  0.17092161000E+03  0.00000000000E+00 0.  1.
</event>
<event>
 4    1  0.2293753E+005  0.2074947E+02  0.7546771E-02  0.1522872E+00
          2   -1    0    0  503    0  0.00000000000E+00  0.00000000000E+00  0.25368615862E+03  0.25368615862E+03  0.00000000000E+00 0.  1.
         21   -1    0    0  501  502 -0.00000000000E+00 -0.00000000000E+00 -0.28343822459E+03  0.28343822459E+03  0.00000000000E+00 0. -1.
          2    1    1    2  501    0 -0.63926096202E-01  0.20749367097E+02  0.25288091909E+03  0.25373076196E+03  0.00000000000E+00 0.  1.
         21    1    1    2  503  502  0.63926096202E-01 -0.20749367097E+02 -0.28263298506E+03  0.28339362125E+03  0.00000000000E+00 0. -1.
</event>
<event>
 4    1  0.2293753E+005  0.2090872E+02  0.7546771E-02  0.1520572E+00
          2   -1    0    0  502    0  0.00000000000E+00  0.00000000000E+00  0.81812276206E+02  0.81812276206E+02  0.00000000000E+00 0. -1.
         21   -1    0    0  503  502 -0.00000000000E+00 -0.00000000000E+00 -0.12641965387E+02  0.12641965387E+02  0.00000000000E+00 0. -1.
          2    1    1    2  501    0 -0.19131192040E+02 -0.84363428949E+01  0.70468765724E+02  0.73505246976E+02  0.00000000000E+00 0. -1.
         21    1    1    2  503  501  0.19131192040E+02  0.84363428949E+01 -0.12984549048E+01  0.20948994617E+02  0.00000000000E+00 0. -1.
</event>
<event>
 4    1  0.2293753E+005  0.5303849E+02  0.7546771E-02  0.1285510E+00
          2   -1    0    0  503    0  0.00000000000E+00  0.00000000000E+00  0.34620746300E+03  0.34620746300E+03  0.00000000000E+00 0.  1.
         21   -1    0    0  501  502 -0.00000000000E+00 -0.00000000000E+00 -0.25063332538E+02  0.25063332538E+02  0.00000000000E+00 0.  1.
          2    1    1    2  501    0 -0.45052042780E+02 -0.27989189676E+02  0.31317796309E+03  0.31763739997E+03  0.00000000000E+00 0.  1.
         21    1    1    2  503  502  0.45052042780E+02  0.27989189676E+02  0.79661673748E+01  0.53633395567E+02  0.00000000000E+00 0.  1.
</event>
<event>
 4    1  0.2293753E+005  0.5087969E+02  0.7546771E-02  0.1294403E+00
          2   -1    0    0  503    0  0.00000000000E+00  0.00000000000E+00  0.83305915280E+02  0.83305915280E+02  0.00000000000E+00 0.  1.
         21   -1    0    0  501  502 -0.00000000000E+00 -0.00000000000E+00 -0.12152922247E+03  0.12152922247E+03  0.00000000000E+00 0.  1.
          2    1    1    2  501    0  0.50714236974E+02  0.40998361256E+01  0.69246819733E+02  0.85929415983E+02  0.00000000000E+00 0.  1.
         21    1    1    2  503  502 -0.50714236974E+02 -0.40998361256E+01 -0.10747012693E+03  0.11890572177E+03  0.00000000000E+00 0.  1.
</event>
<event>
 4    1  0.2293753E+005  0.5013015E+02  0.7546771E-02  0.1297609E+00
          2   -1    0    0  503    0  0.00000000000E+00  0.00000000000E+00  0.15884972796E+04  0.15884972796E+04  0.00000000000E+00 0.  1.
         21   -1    0    0  501  502 -0.00000000000E+00 -0.00000000000E+00 -0.29088592356E+01  0.29088592356E+01  0.00000000000E+00 0.  1.
          2    1    1    2  501    0 -0.50106615356E+02  0.15360760485E+01  0.13301959188E+04  0.13311401935E+04  0.00000000000E+00 0.  1.
         21    1    1    2  503  502  0.50106615356E+02 -0.15360760485E+01  0.25539250159E+03  0.26026594533E+03  0.00000000000E+00 0.  1.
</event>
<event>
 4    1  0.2293753E+005  0.2696957E+02  0.7546771E-02  0.1447914E+00
          2   -1    0    0  503    0  0.00000000000E+00  0.00000000000E+00  0.81994447662E+02  0.81994447662E+02  0.00000000000E+00 0. -1.
         21   -1    0    0  501  502 -0.00000000000E+00 -0.00000000000E+00 -0.11531947409E+02  0.11531947409E+02  0.00000000000E+00 0.  1.
          2    1    1    2  501    0 -0.24842357267E+02  0.10498344427E+02  0.57695180408E+02  0.63687453965E+02  0.00000000000E+00 0. -1.
         21    1    1    2  503  502  0.24842357267E+02 -0.10498344427E+02  0.12767319845E+02  0.29838941106E+02  0.00000000000E+00 0.  1.
</event>
<event>
 4    1  0.2293753E+005  0.3060180E+02  0.7546771E-02  0.1414437E+00
          2   -1    0    0  502    0  0.00000000000E+00  0.00000000000E+00  0.43693854188E+03  0.43693854188E+03  0.00000000000E+00 0. -1.
         21   -1    0    0  503  502 -0.00000000000E+00 -0.00000000000E+00 -0.18557388182E+03  0.18557388182E+03  0.00000000000E+00 0. -1.
          2    1    1    2  501    0 -0.29522751249E+02 -0.80546628127E+01  0.43513592134E+03  0.43621066067E+03  0.00000000000E+00 0. -1.
         21    1    1    2  503  501  0.29522751249E+02  0.80546628127E+01 -0.18377126128E+03  0.18630176303E+03  0.00000000000E+00 0. -1.
</event>
<event>
 4    1  0.2293753E+005  0.2740804E+02  0.7546771E-02  0.1443552E+00
          2   -1    0    0  503    0  0.00000000000E+00  0.00000000000E+00  0.59403629752E+02  0.59403629752E+02  0.00000000000E+00 0. -1.
         21   -1    0    0  501  502 -0.00000000000E+00 -0.00000000000E+00 -0.44310948057E+02  0.44310948057E+02  0.00000000000E+00 0.  1.
          2    1    1    2  501    0  0.27356948516E+02  0.16727137706E+01  0.51383834923E+02  0.58236578667E+02  0.00000000000E+00 0. -1.
         21    1    1    2  503  502 -0.27356948516E+02 -0.16727137706E+01 -0.36291153227E+02  0.45477999143E+02  0.00000000000E+00 0.  1.
</event>
<event>
 4    1  0.2293753E+005  0.2178229E+02  0.7546771E-02  0.1508383E+00
          2   -1    0    0  503    0  0.00000000000E+00  0.00000000000E+00  0.30555490257E+01  0.30555490257E+01  0.00000000000E+00 0.  1.
         21   -1    0    0  501  502 -0.00000000000E+00 -0.00000000000E+00 -0.19698227268E+03  0.19698227268E+03  0.00000000000E+00 0.  1.
          2    1    1    2  501    0 -0.19921709602E+02  0.88087135703E+01 -0.50943585970E+02  0.55405025943E+02  0.00000000000E+00 0.  1.
         21    1    1    2  503  502  0.19921709602E+02 -0.88087135703E+01 -0.14298313769E+03  0.14463279576E+03  0.00000000000E+00 0.  1.
</event>
<event>
 4    1  0.2293753E+005  0.2266247E+02  0.7546771E-02  0.1496781E+00
          2   -1    0    0  503    0  0.00000000000E+00  0.00000000000E+00  0.52977308288E+03  0.52977308288E+03  0.00000000000E+00 0.  1.
         21   -1    0    0  501  502 -0.00000000000E+00 -0.00000000000E+00 -0.47827268358E+01  0.47827268358E+01  0.00000000000E+00 0. -1.
          2    1    1    2  501    0 -0.38282145767E+01 -0.22336794262E+02  0.50115237487E+03  0.50166451982E+03  0.00000000000E+00 0.  1.
         21    1    1    2  503  502  0.38282145767E+01  0.22336794262E+02  0.23837981172E+02  0.32891289897E+02  0.00000000000E+00 0. -1.
</event>
<event>
 4    1  0.2293753E+005  0.2011919E+02  0.7546771E-02  0.1532222E+00
          2   -1    0    0  503    0  0.00000000000E+00  0.00000000000E+00  0.14110969291E+02  0.14110969291E+02  0.00000000000E+00 0. -1.
         21   -1    0    0  501  502 -0.00000000000E+00 -0.00000000000E+00 -0.55715554182E+03  0.55715554182E+03  0.00000000000E+00 0.  1.
          2    1    1    2  501    0 -0.19030585384E+02  0.65282791660E+01  0.66607789688E+01  0.21193102307E+02  0.00000000000E+00 0. -1.
         21    1    1    2  503  502  0.19030585384E+02 -0.65282791660E+01 -0.54970535149E+03  0.55007340880E+03  0.00000000000E+00 0.  1.
</event>
<event>
 4    1  0.2293753E+005  0.2228838E+02  0.7546771E-02  0.1501633E+00
          2   -1    0    0  502    0  0.00000000000E+00  0.00000000000E+00  0.97409831808E+03  0.97409831808E+03  0.00000000000E+00 0. -1.
         21   -1    0    0  503  502 -0.00000000000E+00 -0.00000000000E+00 -0.69929707417E+01  0.69929707417E+01  0.00000000000E+00 0. -1.
          2    1    1    2  501    0  0.22286008003E+02  0.32517555022E+00  0.95587255500E+03  0.95613237226E+03  0.00000000000E+00 0. -1.
         21    1    1    2  503  501 -0.22286008003E+02 -0.32517555022E+00  0.11232792335E+02  0.24958916553E+02  0.00000000000E+00 0. -1.
</event>
<event>
 4    1  0.2293753E+005  0.3885621E+02  0.7546771E-02  0.1355322E+00
          2   -1    0    0  503    0  0.00000000000E+00  0.00000000000E+00  0.35193076990E+03  0.35193076990E+03  0.00000000000E+00 0.  1.
         21   -1    0    0  501  502 -0.00000000000E+00 -0.00000000000E+00 -0.19000441916E+02  0.19000441916E+02  0.00000000000E+00 0. -1.
          2    1    1    2  501    0 -0.23102638452E+02  0.31242173035E+02  0.32965513193E+03  0.33193720986E+03  0.00000000000E+00 0.  1.
         21    1    1    2  503  502  0.23102638452E+02 -0.31242173035E+02  0.32751960499E+01  0.38994001956E+02  0.00000000000E+00 0. -1.
</event>
<event>
 4    1  0.2293753E+005  0.5908064E+02  0.7546771E-02  0.1262989E+00
          2   -1    0    0  502    0  0.00000000000E+00  0.00000000000E+00  0.27744550720E+04  0.27744550720E+04  0.00000000000E+00 0.  1.
         21   -1    0    0  503  502 -0.00000000000E+00 -0.00000000000E+00 -0.12788337110E+01  0.12788337110E+01  0.00000000000E+00 0.  1.
          2    1    1    2  501    0  0.37011252962E+02  0.46050942572E+02  0.15633358825E+04  0.15644518541E+04  0.00000000000E+00 0.  1.
         21    1    1    2  503  501 -0.37011252962E+02 -0.46050942572E+02  0.12098403558E+04  0.12112820516E+04  0.00000000000E+00 0.  1.
</event>
<event>
 4    1  0.2293753E+005  0.2526051E+02  0.7546771E-02  0.1465910E+00
          2   -1    0    0  502    0  0.00000000000E+00  0.00000000000E+00  0.12226919826E+04  0.12226919826E+04  0.00000000000E+00 0.  1.
         21   -1    0    0  503  502 -0.00000000000E+00 -0.00000000000E+00 -0.48029730718E+01  0.48029730718E+01  0.00000000000E+00 0.  1.
          2    1    1    2  501    0  0.25219441754E+02 -0.14399156874E+01  0.11883894549E+04  0.11886578945E+04  0.00000000000E+00 0.  1.
         21    1    1    2  503  501 -0.25219441754E+02  0.14399156874E+01  0.29499554686E+02  0.38837061246E+02  0.00000000000E+00 0.  1.
</event>
<event>
 4    1  0.2293753E+005  0.2916775E+02  0.7546771E-02  0.1426969E+00
          2   -1    0    0  502    0  0.00000000000E+00  0.00000000000E+00  0.20770872230E+04  0.20770872230E+04  0.00000000000E+00 0. -1.
         21   -1    0    0  503  502 -0.00000000000E+00 -0.00000000000E+00 -0.71700759381E+00  0.71700759381E+00  0.00000000000E+00 0.  1.
          2    1    1    2  501    0  0.59364478279E+01  0.28557248261E+02  0.17184465555E+04  0.17186940746E+04  0.00000000000E+00 0. -1.
         21    1    1    2  503  501 -0.59364478279E+01 -0.28557248261E+02  0.35792365987E+03  0.35911015599E+03  0.00000000000E+00 0.  1.
</event>
<event>
 4    1  0.2293753E+005  0.2010546E+02  0.7546771E-02  0.1532430E+00
          2   -1    0    0  502    0  0.00000000000E+00  0.00000000000E+00  0.64059371631E+02  0.64059371631E+02  0.00000000000E+00 0.  1.
         21   -1    0    0  503  502 -0.00000000000E+00 -0.00000000000E+00 -0.70051225989E+01  0.70051225989E+01  0.00000000000E+00 0.  1.
          2    1    1    2  501    0 -0.32961181651E+01  0.19833438586E+02  0.17336041366E+02  0.26547467136E+02  0.00000000000E+00 0.  1.
         21    1    1    2  503  501  0.32961181651E+01 -0.19833438586E+02  0.39718207666E+02  0.44517027094E+02  0.00000000000E+00 0.  1.
</event>
<event>
 4    1  0.2293753E+005  0.2175031E+02  0.7546771E-02  0.1508816E+00
          2   -1    0    0  503    0  0.00000000000E+00  0.00000000000E+00  0.68946096607E+03  0.68946096607E+03  0.00000000000E+00 0.  1.
         21   -1    0    0  501  502 -0.00000000000E+00 -0.00000000000E+00 -0.63614547347E+01  0.63614547347E+01  0.00000000000E+00 0. -1.
          2    1    1    2  501    0 -0.12078045749E+02  0.18088579586E+02  0.67016270236E+03  0.67051556547E+03  0.00000000000E+00 0.  1.
         21    1    1    2  503  502  0.12078045749E+02 -0.18088579586E+02  0.12936808974E+02  0.25306855336E+02  0.00000000000E+00 0. -1.
</event>
<event>
 4    1  0.2293753E+005  0.3433682E+02  0.7546771E-02  0.1385286E+00
          2   -1    0    0  503    0  0.00000000000E+00  0.00000000000E+00  0.75451742143E+03  0.75451742143E+03  0.00000000000E+00 0. -1.
         21   -1    0    0  501  502 -0.00000000000E+00 -0.00000000000E+00 -0.63325116488E+01  0.63325116488E+01  0.00000000000E+00 0. -1.
          2    1    1    2  501    0  0.27891693476E+02 -0.20026751548E+02  0.70426098161E+03  0.70509754471E+03  0.00000000000E+00 0. -1.
         21    1    1    2  503  502 -0.27891693476E+02  0.20026751548E+02  0.43923928175E+02  0.55752388369E+02  0.00000000000E+00 0. -1.
</event>
<event>
 4    1  0.2293753E+005  0.2312184E+02  0.7546771E-02  0.1490974E+00
          2   -1    0    0  503    0  0.00000000000E+00  0.00000000000E+00  0.15493055510E+03  0.15493055510E+03  0.00000000000E+00 0.  1.
         21   -1    0    0  501  502 -0.00000000000E+00 -0.00000000000E+00 -0.29668073630E+02  0.29668073630E+02  0.00000000000E+00 0. -1.
          2    1    1    2  501    0 -0.87921599423E+01 -0.21384977529E+02  0.14939699913E+03  0.15117566832E+03  0.00000000000E+00 0.  1.
         21    1    1    2  503  502  0.87921599423E+01  0.21384977529E+02 -0.24134517661E+02  0.33422960418E+02  0.00000000000E+00 0. -1.
</event>
<event>
 4    1  0.2293753E+005  0.2449633E+02  0.7546771E-02  0.1474517E+00
          2   -1    0    0  502    0  0.00000000000E+00  0.00000000000E+00  0.10676314308E+03  0.10676314308E+03  0.00000000000E+00 0. -1.
         21   -1    0    0  503  502 -0.00000000000E+00 -0.00000000000E+00 -0.25143832191E+03  0.25143832191E+03  0.00000000000E+00 0.  1.
          2    1    1    2  501    0 -0.18203828025E+02 -0.16391791356E+02  0.10475004835E+03  0.10757621860E+03  0.00000000000E+00 0. -1.
         21    1    1    2  503  501  0.18203828025E+02  0.16391791356E+02 -0.24942522718E+03  0.25062524639E+03  0.00000000000E+00 0.  1.
</event>
<event>
 4    1  0.2293753E+005  0.2375246E+02  0.7546771E-02  0.1483260E+00
          2   -1    0    0  502    0  0.00000000000E+00  0.00000000000E+00  0.10381428785E+02  0.10381428785E+02  0.00000000000E+00 0.  1.
         21   -1    0    0  503  502 -0.00000000000E+00 -0.00000000000E+00 -0.12567339498E+03  0.12567339498E+03  0.00000000000E+00 0.  1.
          2    1    1    2  501    0 -0.97022953739E+01 -0.21680520716E+02 -0.63960531895E+01  0.24598557081E+02  0.00000000000E+00 0.  1.
         21    1    1    2  503  501  0.97022953739E+01  0.21680520716E+02 -0.10889591301E+03  0.11145626669E+03  0.00000000000E+00 0.  1.
</event>
<event>
 4    1  0.2293753E+005  0.3500951E+02  0.7546771E-02  0.1380496E+00
          2   -1    0    0  502    0  0.00000000000E+00  0.00000000000E+00  0.92671602489E+03  0.92671602489E+03  0.00000000000E+00 0. -1.
         21   -1    0    0  503  502 -0.00000000000E+00 -0.00000000000E+00 -0.43927946262E+02  0.43927946262E+02  0.00000000000E+00 0. -1.
          2    1    1    2  501    0 -0.20798099551E+02 -0.28162119382E+02  0.91935410651E+03  0.92002045578E+03  0.00000000000E+00 0. -1.
         21    1    1    2  503  501  0.20798099551E+02  0.28162119382E+02 -0.36566027879E+02  0.50623515365E+02  0.00000000000E+00 0. -1.
</event>
<event>
 4    1  0.2293753E+005  0.2775347E+02  0.7546771E-02  0.1440183E+00
          2   -1    0    0  503    0  0.00000000000E+00  0.00000000000E+00  0.24847998631E+03  0.24847998631E+03  0.00000000000E+00 0.  1.
         21   -1    0    0  501  502 -0.00000000000E+00 -0.00000000000E+00 -0.71540619311E+01  0.71540619311E+01  0.00000000000E+00 0.  1.
          2    1    1    2  501    0  0.24327330359E+02  0.13357996286E+02  0.21688280287E+03  0.21865133260E+03  0.00000000000E+00 0.  1.
         21    1    1    2  503  502 -0.24327330359E+02 -0.13357996286E+02  0.24443121512E+02  0.36982715644E+02  0.00000000000E+00 0.  1.
</event>
<event>
 4    1  0.2293753E+005  0.4072671E+02  0.7546771E-02  0.1344279E+00
          2   -1    0    0  503    0  0.00000000000E+00  0.00000000000E+00  0.94359544103E+02  0.94359544103E+02  0.00000000000E+00 0. -1.
         21   -1    0    0  501  502 -0.00000000000E+00 -0.00000000000E+00 -0.35017170708E+02  0.35017170708E+02  0.00000000000E+00 0. -1.
          2    1    1    2  501    0  0.12201755168E+02 -0.38855910462E+02  0.75321825212E+02  0.85627343532E+02  0.00000000000E+00 0. -1.
         21    1    1    2  503  502 -0.12201755168E+02  0.38855910462E+02 -0.15979451817E+02  0.43749371280E+02  0.00000000000E+00 0. -1.
</event>
<event>
 4    1  0.2293753E+005  0.2385380E+02  0.7546771E-02  0.1482046E+00
          2   -1    0    0  503    0  0.00000000000E+00  0.00000000000E+00  0.34220241715E+03  0.34220241715E+03  0.00000000000E+00 0.  1.
         21   -1    0    0  501  502 -0.00000000000E+00 -0.00000000000E+00 -0.23117099407E+02  0.23117099407E+02  0.00000000000E+00 0. -1.
          2    1    1    2  501    0 -0.14808223620E+02 -0.18700815286E+02  0.33551065101E+03  0.33635754922E+03  0.00000000000E+00 0.  1.
         21    1    1    2  503  502  0.14808223620E+02  0.18700815286E+02 -0.16425333264E+02  0.28961967336E+02  0.00000000000E+00 0. -1.
</event>
<event>
 4    1  0.2293753E+005  0.2513114E+02  0.7546771E-02  0.1467342E+00
          2   -1    0    0  502    0  0.00000000000E+00  0.00000000000E+00  0.64060327407E+03  0.64060327407E+03  0.00000000000E+00 0.  1.
         21   -1    0    0  503  502 -0.00000000000E+00 -0.00000000000E+00 -0.18868938296E+01  0.18868938296E+01  0.00000000000E+00 0.  1.
          2    1    1    2  501    0 -0.12532543930E+02  0.21783235271E+02  0.54134258838E+03  0.54192561482E+03  0.00000000000E+00 0.  1.
         21    1    1    2  503  501  0.12532543930E+02 -0.21783235271E+02  0.97373791853E+02  0.10056455308E+03  0.00000000000E+00 0.  1.
</event>
<event>
 4    1  0.2293753E+005  0.4428954E+02  0.7546771E-02  0.1325030E+00
          2   -1    0    0  502    0  0.00000000000E+00  0.00000000000E+00  0.41301082373E+02  0.41301082373E+02  0.00000000000E+00 0. -1.
         21   -1    0    0  503  502 -0.00000000000E+00 -0.00000000000E+00 -0.81104964466E+02  0.81104964466E+02  0.00000000000E+00 0.  1.
          2    1    1    2  501    0 -0.31924660495E+01 -0.44174330468E+02  0.19497324557E+02  0.48391207638E+02  0.00000000000E+00 0. -1.
         21    1    1    2  503  501  0.31924660495E+01  0.44174330468E+02 -0.59301206649E+02  0.74014839200E+02  0.00000000000E+00 0.  1.
</event>
<event>
 4    1  0.2293753E+005  0.2882439E+02  0.7546771E-02  0.1430095E+00
          2   -1    0    0  503    0  0.00000000000E+00  0.00000000000E+00  0.94620770546E+03  0.94620770546E+03  0.00000000000E+00 0. -1.
         21   -1    0    0  501  502 -0.00000000000E+00 -0.00000000000E+00 -0.63006945719E+02  0.63006945719E+02  0.00000000000E+00 0.  1.
          2    1    1    2  501    0 -0.22899280602E+02  0.17506233982E+02  0.94267920742E+03  0.94311978739E+03  0.00000000000E+00 0. -1.
         21    1    1    2  503  502  0.22899280602E+02 -0.17506233982E+02 -0.59478447677E+02  0.66094863782E+02  0.00000000000E+00 0.  1.
</event>
<event>
 4    1  0.2293753E+005  0.2152889E+02  0.7546771E-02  0.1511846E+00
          2   -1    0    0  503    0  0.00000000000E+00  0.00000000000E+00  0.49049967079E+02  0.49049967079E+02  0.00000000000E+00 0. -1.
         21   -1    0    0  501  502 -0.00000000000E+00 -0.00000000000E+00 -0.18839752755E+02  0.18839752755E+02  0.00000000000E+00 0. -1.
          2    1    1    2  501    0  0.91999314932E+01  0.19464178256E+02  0.39070098322E+02  0.44609030000E+02  0.00000000000E+00 0. -1.
         21    1    1    2  503  502 -0.91999314932E+01 -0.19464178256E+02 -0.88598839987E+01  0.23280689834E+02  0.00000000000E+00 0. -1.
</event>
<event>
 4    1  0.2293753E+005  0.2300909E+02  0.7546771E-02  0.1492384E+00
          2   -1    0    0  502    0  0.00000000000E+00  0.00000000000E+00  0.27262778664E+03  0.27262778664E+03  0.00000000000E+00 0.  1.
         21   -1    0    0  503  502 -0.00000000000E+00 -0.00000000000E+00 -0.12894950122E+03  0.12894950122E+03  0.00000000000E+00 0.  1.
          2    1    1    2  501    0  0.34114616996E+00 -0.23006559756E+02  0.27111016825E+03  0.27208480571E+03  0.00000000000E+00 0.  1.
         21    1    1    2  503  501 -0.34114616996E+00  0.23006559756E+02 -0.12743188283E+03  0.12949248215E+03  0.00000000000E+00 0.  1.
</event>
<event>
 4    1  0.2293753E+005  0.2093637E+02  0.7546771E-02  0.1520175E+00
          2   -1    0    0  502    0  0.00000000000E+00  0.00000000000E+00  0.17283831551E+03  0.17283831551E+03  0.00000000000E+00 0. -1.
         21   -1    0    0  503  502 -0.00000000000E+00 -0.00000000000E+00 -0.10521135981E+02  0.10521135981E+02  0.00000000000E+00 0. -1.
          2    1    1    2  501    0  0.13502449117E+02  0.16000478752E+02  0.16102810071E+03  0.16238343718E+03  0.00000000000E+00 0. -1.
         21    1    1    2  503  501 -0.13502449117E+02 -0.16000478752E+02  0.12890788265E+01  0.20976014318E+02  0.00000000000E+00 0. -1.
</event>
<event>
 4    1  0.2293753E+005  0.2236034E+02  0.7546771E-02  0.1500690E+00
          2   -1    0    0  503    0  0.00000000000E+00  0.00000000000E+00  0.56240448140E+03  0.56240448140E+03  0.00000000000E+00 0.  1.
         21   -1    0    0  501  502 -0.00000000000E+00 -0.00000000000E+00 -0.88957628183E+00  0.88957628183E+00  0.00000000000E+00 0.  1.
          2    1    1    2  501    0 -0.87300168337E+01  0.20585717653E+02  0.27367100677E+03  0.27458296544E+03  0.00000000000E+00 0.  1.
         21    1    1    2  503  502  0.87300168337E+01 -0.20585717653E+02  0.28784389835E+03  0.28871109224E+03  0.00000000000E+00 0.  1.
</event>
<event>
 4    1  0.2293753E+005  0.4092874E+02  0.7546771E-02  0.1343128E+00
          2   -1    0    0  502    0  0.00000000000E+00  0.00000000000E+00  0.69562364851E+03  0.69562364851E+03  0.00000000000E+00 0. -1.
         21   -1    0    0  503  502 -0.00000000000E+00 -0.00000000000E+00 -0.64993596320E+01  0.64993596320E+01  0.00000000000E+00 0.  1.
          2    1    1    2  501    0  0.38677188491E+02 -0.13387933249E+02  0.62309352315E+03  0.62443630601E+03  0.00000000000E+00 0. -1.
         21    1    1    2  503  501 -0.38677188491E+02  0.13387933249E+02  0.66030765729E+02  0.77686702137E+02  0.00000000000E+00 0.  1.
</event>
<event>
 4    1  0.2293753E+005  0.2004215E+02  0.7546771E-02  0.1533392E+00
          2   -1    0    0  502    0  0.00000000000E+00  0.00000000000E+00  0.87727641418E+02  0.87727641418E+02  0.00000000000E+00 0.  1.
         21   -1    0    0  503  502 -0.00000000000E+00 -0.00000000000E+00 -0.47135510588E+02  0.47135510588E+02  0.00000000000E+00 0. -1.
          2    1    1    2  501    0  0.69249576537E+00  0.20030178798E+02  0.84368792843E+02  0.86716669787E+02  0.00000000000E+00 0.  1.
         21    1    1    2  503  501 -0.69249576537E+00 -0.20030178798E+02 -0.43776662013E+02  0.48146482219E+02  0.00000000000E+00 0. -1.
</event>
<event>
 4    1  0.2293753E+005  0.2374880E+02  0.7546771E-02  0.1483304E+00
          2   -1    0    0  502    0  0.00000000000E+00  0.00000000000E+00  0.54191570157E+03  0.54191570157E+03  0.00000000000E+00 0.  1.
         21   -1    0    0  503  502 -0.00000000000E+00 -0.00000000000E+00 -0.90945967969E+01  0.90945967969E+01  0.00000000000E+00 0.  1.
          2    1    1    2  501    0 -0.15310680491E+02  0.18154576818E+02  0.52567283334E+03  0.52620902055E+03  0.00000000000E+00 0.  1.
         21    1    1    2  503  501  0.15310680491E+02 -0.18154576818E+02  0.71482714234E+01  0.24801277807E+02  0.00000000000E+00 0.  1.
</event>
<event>
 4    1  0.2293753E+005  0.2713026E+02  0.7546771E-02  0.1446304E+00
          2   -1    0    0  502    0  0.00000000000E+00  0.00000000000E+00  0.11414750626E+03  0.11414750626E+03  0.00000000000E+00 0.  1.
         21   -1    0    0  503  502 -0.00000000000E+00 -0.00000000000E+00 -0.70750637009E+01  0.70750637009E+01  0.00000000000E+00 0. -1.
          2    1    1    2  501    0  0.14973156701E+02  0.22624223863E+02  0.35495255999E+02  0.44676214314E+02  0.00000000000E+00 0.  1.
         21    1    1    2  503  501 -0.14973156701E+02 -0.22624223863E+02  0.71577186558E+02  0.76546355645E+02  0.00000000000E+00 0. -1.
</event>
<event>
 4    1  0.2293753E+005  0.2740286E+02  0.7546771E-02  0.1443603E+00
          2   -1    0    0  502    0  0.00000000000E+00  0.00000000000E+00  0.96992568192E+03  0.96992568192E+03  0.00000000000E+00 0. -1.
         21   -1    0    0  503  502 -0.00000000000E+00 -0.00000000000E+00 -0.18700949454E+01  0.18700949454E+01  0.00000000000E+00 0.  1.
          2    1    1    2  501    0 -0.17714977675E+02 -0.20906850422E+02  0.85598893409E+03  0.85642744708E+03  0.00000000000E+00 0. -1.
         21    1    1    2  503  501  0.17714977675E+02  0.20906850422E+02  0.11206665289E+03  0.11536832979E+03  0.00000000000E+00 0.  1.
</event>
<event>
 4    1  0.2293753E+005  0.2500693E+02  0.7546771E-02  0.1468726E+00
          2   -1    0    0  503    0  0.00000000000E+00  0.00000000000E+00  0.14728925182E+04  0.14728925182E+04  0.00000000000E+00 0. -1.
         21   -1    0    0  501  502 -0.00000000000E+00 -0.00000000000E+00 -0.17293291693E+01  0.17293291693E+01  0.00000000000E+00 0.  1.
          2    1    1    2  501    0  0.10164867854E+02 -0.22847797396E+02  0.13760194100E+04  0.13762466215E+04  0.00000000000E+00 0. -1.
         21    1    1    2  503  502 -0.10164867854E+02  0.22847797396E+02  0.95143779023E+02  0.98375225901E+02  0.00000000000E+00 0.  1.
</event>
<event>
 4    1  0.2293753E+005  0.2081758E+02  0.7546771E-02  0.1521885E+00
          2   -1    0    0  503    0  0.00000000000E+00  0.00000000000E+00  0.87431411926E+03  0.87431411926E+03  0.00000000000E+00 0.  1.
         21   -1    0    0  501  502 -0.00000000000E+00 -0.00000000000E+00 -0.12836067107E+01  0.12836067107E+01  0.00000000000E+00 0.  1.
          2    1    1    2  501    0  0.18599527984E+02 -0.93503555173E+01  0.77952322504E+03  0.77980114771E+03  0.00000000000E+00 0.  1.
         21    1    1    2  503  502 -0.18599527984E+02  0.93503555173E+01  0.93507287503E+02  0.95796578257E+02  0.00000000000E+00 0.  1.
</event>
<event>
 4    1  0.2293753E+005  0.2324035E+02  0.7546771E-02  0.1489502E+00
          2   -1    0    0  503    0  0.00000000000E+00  0.00000000000E+00  0.68431707303E+02  0.68431707303E+02  0.00000000000E+00 0. -1.
         21   -1    0    0  501  502 -0.00000000000E+00 -0.00000000000E+00 -0.17724253061E+02  0.17724253061E+02  0.00000000000E+00 0. -1.
          2    1    1    2  501    0  0.23218728472E+02 -0.10021910296E+01  0.57437210924E+02  0.61960850038E+02  0.00000000000E+00 0. -1.
         21    1    1    2  503  502 -0.23218728472E+02  0.10021910296E+01 -0.67297566811E+01  0.24195110326E+02  0.00000000000E+00 0. -1.
</event>
<event>
 4    1  0.2293753E+005  0.2782911E+02  0.7546771E-02  0.1439453E+00
          2   -1    0    0  503    0  0.00000000000E+00  0.00000000000E+00  0.21615686511E+04  0.21615686511E+04  0.00000000000E+00 0. -1.
         21   -1    0    0  501  502 -0.00000000000E+00 -0.00000000000E+00 -0.36719918389E+00  0.36719918389E+00  0.00000000000E+00 0. -1.
          2    1    1    2  501    0 -0.24541378056E+02  0.13121741288E+02  0.91218466373E+03  0.91260907298E+03  0.00000000000E+00 0. -1.
         21    1    1    2  503  502  0.24541378056E+02 -0.13121741288E+02  0.12490167882E+04  0.12493267774E+04  0.00000000000E+00 0. -1.
</event>
<event>
 4    1  0.2293753E+005  0.2843309E+02  0.7546771E-02  0.1433720E+00
          2   -1    0    0  503    0  0.00000000000E+00  0.00000000000E+00  0.12017112742E+04  0.12017112742E+04  0.00000000000E+00 0.  1.
         21   -1    0    0  501  502 -0.00000000000E+00 -0.00000000000E+00 -0.77410434634E+00  0.77410434634E+00  0.00000000000E+00 0.  1.
          2    1    1    2  501    0 -0.12786528511E+02  0.25395773957E+02  0.38290301659E+03  0.38395723820E+03  0.00000000000E+00 0.  1.
         21    1    1    2  503  502  0.12786528511E+02 -0.25395773957E+02  0.81803415322E+03  0.81852814031E+03  0.00000000000E+00 0.  1.
</event>
<event>
 4    1  0.2293753E+005  0.2857756E+02  0.7546771E-02  0.1432374E+00
          2   -1    0    0  502    0  0.00000000000E+00  0.00000000000E+00  0.10343955801E+03  0.10343955801E+03  0.00000000000E+00 0. -1.
         21   -1    0    0  503  502 -0.00000000000E+00 -0.00000000000E+00 -0.16085784930E+02  0.16085784930E+02  0.00000000000E+00 0.  1.
          2    1    1    2  501    0  0.14166226328E+02  0.24819245880E+02  0.86321687618E+02  0.90929152023E+02  0.00000000000E+00 0. -1.
         21    1    1    2  503  501 -0.14166226328E+02 -0.24819245880E+02  0.10320854607E+01  0.28596190915E+02  0.00000000000E+00 0.  1.
</event>
<event>
 4    1  0.2293753E+005  0.3139220E+02  0.7546771E-02  0.1407872E+00
          2   -1    0    0  502    0  0.00000000000E+00  0.00000000000E+00  0.11981719848E+04  0.11981719848E+04  0.00000000000E+00 0.  1.
         21   -1    0    0  503  502 -0.00000000000E+00 -0.00000000000E+00 -0.67459244589E+01  0.67459244589E+01  0.00000000000E+00 0.  1.
          2    1    1    2  501    0  0.61958530243E+01  0.30774692744E+02  0.11602520362E+04  0.11606766379E+04  0.00000000000E+00 0.  1.
         21    1    1    2  503  501 -0.61958530243E+01 -0.30774692744E+02  0.31174024131E+02  0.44241271328E+02  0.00000000000E+00 0.  1.
</event>
<event>
 4    1  0.2293753E+005  0.4555368E+02  0.7546771E-02  0.1318694E+00
          2   -1    0    0  503    0  0.00000000000E+00  0.00000000000E+00  0.62655911490E+03  0.62655911490E+03  0.00000000000E+00 0.  1.
         21   -1    0    0  501  502 -0.00000000000E+00 -0.00000000000E+00 -0.37343910920E+01  0.37343910920E+01  0.00000000000E+00 0.  1.
          2    1    1    2  501    0  0.43765020786E+02 -0.12639649594E+02  0.20541827284E+03  0.21040866095E+03  0.00000000000E+00 0.  1.
         21    1    1    2  503  502 -0.43765020786E+02  0.12639649594E+02  0.41740645097E+03  0.41988484504E+03  0.00000000000E+00 0.  1.
</event>
<event>
 4    1  0.2293753E+005  0.2637921E+02  0.7546771E-02  0.1453946E+00
          2   -1    0    0  502    0  0.00000000000E+00  0.00000000000E+00  0.50164173260E+01  0.50164173260E+01  0.00000000000E+00 0.  1.
         21   -1    0    0  503  502 -0.00000000000E+00 -0.00000000000E+00 -0.33024681449E+03  0.33024681449E+03  0.00000000000E+00 0. -1.
          2    1    1    2  501    0  0.19937102880E+02  0.17273529478E+02 -0.34955243528E+02  0.43791916400E+02  0.00000000000E+00 0.  1.
         21    1    1    2  503  501 -0.19937102880E+02 -0.17273529478E+02 -0.29027515364E+03  0.29147131542E+03  0.00000000000E+00 0. -1.
</event>
<event>
 4    1  0.2293753E+005  0.2540063E+02  0.7546771E-02  0.1464371E+00
          2   -1    0    0  502    0  0.00000000000E+00  0.00000000000E+00  0.21580422939E+04  0.21580422939E+04  0.00000000000E+00 0.  1.
         21   -1    0    0  503  502 -0.00000000000E+00 -0.00000000000E+00 -0.46203101609E+00  0.46203101609E+00  0.00000000000E+00 0.  1.
          2    1    1    2  501    0  0.15867370913E+02  0.19834783559E+02  0.17199422483E+04  0.17201298002E+04  0.00000000000E+00 0.  1.
         21    1    1    2  503  501 -0.15867370913E+02 -0.19834783559E+02  0.43763801461E+03  0.43837452473E+03  0.00000000000E+00 0.  1.
</event>
<event>
 4    1  0.2293753E+005  0.2027178E+02  0.7546771E-02  0.1529921E+00
          2   -1    0    0  503    0  0.00000000000E+00  0.00000000000E+00  0.22844798080E+02  0.22844798080E+02  0.00000000000E+00 0. -1.
         21   -1    0    0  501  502 -0.00000000000E+00 -0.00000000000E+00 -0.26135266131E+02  0.26135266131E+02  0.00000000000E+00 0. -1.
          2    1    1    2  501    0  0.19274066913E+02 -0.62813386225E+01  0.12027869190E+02  0.23571476566E+02  0.00000000000E+00 0. -1.
         21    1    1    2  503  502 -0.19274066913E+02  0.62813386225E+01 -0.15318337241E+02  0.25408587645E+02  0.00000000000E+00 0. -1.
</event>
<event>
 4    1  0.2293753E+005  0.3865300E+02  0.7546771E-02  0.1356565E+00
          2   -1    0    0  503    0  0.00000000000E+00  0.00000000000E+00  0.50146151544E+02  0.50146151544E+02  0.00000000000E+00 0. -1.
         21   -1    0    0  501  502 -0.00000000000E+00 -0.00000000000E+00 -0.65346544973E+02  0.65346544973E+02  0.00000000000E+00 0.  1.
          2    1    1    2  501    0 -0.33525641330E+02 -0.19237619834E+02  0.34993813710E+02  0.52140403158E+02  0.00000000000E+00 0. -1.
         21    1    1    2  503  502  0.33525641330E+02  0.19237619834E+02 -0.50194207140E+02  0.63352293359E+02  0.00000000000E+00 0.  1.
</event>
<event>
 4    1  0.2293753E+005  0.4057795E+02  0.7546771E-02  0.1345132E+00
          2   -1    0    0  502    0  0.00000000000E+00  0.00000000000E+00  0.14883218441E+04  0.14883218441E+04  0.00000000000E+00 0. -1.
         21   -1    0    0  503  502 -0.00000000000E+00 -0.00000000000E+00 -0.18583340874E+01  0.18583340874E+01  0.00000000000E+00 0. -1.
          2    1    1    2  501    0 -0.36843365873E+02  0.17004021504E+02  0.12172094582E+04  0.12178856414E+04  0.00000000000E+00 0. -1.
         21    1    1    2  503  501  0.36843365873E+02 -0.17004021504E+02  0.26925405187E+03  0.27229453686E+03  0.00000000000E+00 0. -1.
</event>
<event>
 4    1  0.2293753E+005  0.3043346E+02  0.7546771E-02  0.1415866E+00
          2   -1    0    0  503    0  0.00000000000E+00  0.00000000000E+00  0.24436459297E+01  0.24436459297E+01  0.00000000000E+00 0.  1.
         21   -1    0    0  501  502 -0.00000000000E+00 -0.00000000000E+00 -0.87084860705E+03  0.87084860705E+03  0.00000000000E+00 0. -1.
          2    1    1    2  501    0  0.29713364450E+02  0.65811627154E+01 -0.10605863626E+03  0.11033870606E+03  0.00000000000E+00 0.  1.
         21    1    1    2  503  502 -0.29713364450E+02 -0.65811627154E+01 -0.76234632487E+03  0.76295354693E+03  0.00000000000E+00 0. -1.
</event>
<event>
 4    1  0.2293753E+005  0.3038501E+02  0.7546771E-02  0.1416280E+00
          2   -1    0    0  503    0  0.00000000000E+00  0.00000000000E+00  0.47333584183E+03  0.47333584183E+03  0.00000000000E+00 0. -1.
         21   -1    0    0  501  502 -0.00000000000E+00 -0.00000000000E+00 -0.31112897526E+02  0.31112897526E+02  0.00000000000E+00 0. -1.
          2    1    1    2  501    0 -0.10806435566E+02 -0.28398409328E+02  0.46530172052E+03  0.46629276192E+03  0.00000000000E+00 0. -1.
         21    1    1    2  503  502  0.10806435566E+02  0.28398409328E+02 -0.23078776219E+02  0.38155977431E+02  0.00000000000E+00 0. -1.
</event>
<event>
 4    1  0.2293753E+005  0.2212571E+02  0.7546771E-02  0.1503778E+00
          2   -1    0    0  502    0  0.00000000000E+00  0.00000000000E+00  0.13928139999E+02  0.13928139999E+02  0.00000000000E+00 0.  1.
         21   -1    0    0  503  502 -0.00000000000E+00 -0.00000000000E+00 -0.21911343052E+03  0.21911343052E+03  0.00000000000E+00 0. -1.
          2    1    1    2  501    0 -0.32359589707E+01 -0.21887794929E+02  0.41743331600E+01  0.22516039941E+02  0.00000000000E+00 0.  1.
         21    1    1    2  503  501  0.32359589707E+01  0.21887794929E+02 -0.20935962368E+03  0.21052553058E+03  0.00000000000E+00 0. -1.
</event>
<event>
 4    1  0.2293753E+005  0.2047920E+02  0.7546771E-02  0.1526832E+00
          2   -1    0    0  502    0  0.00000000000E+00  0.00000000000E+00  0.12605677892E+02  0.12605677892E+02  0.00000000000E+00 0.  1.
         21   -1    0    0  503  502 -0.00000000000E+00 -0.00000000000E+00 -0.36099643850E+02  0.36099643850E+02  0.00000000000E+00 0.  1.
          2    1    1    2  501    0  0.20409019231E+02  0.16940074529E+01 -0.49295746681E+01  0.21064150437E+02  0.00000000000E+00 0.  1.
         21    1    1    2  503  501 -0.20409019231E+02 -0.16940074529E+01 -0.18564391290E+02  0.27641171306E+02  0.00000000000E+00 0.  1.
</event>
<event>
 4    1  0.2293753E+005  0.2701760E+02  0.7546771E-02  0.1447431E+00
          2   -1    0    0  502    0  0.00000000000E+00  0.00000000000E+00  0.14046816487E+04  0.14046816487E+04  0.00000000000E+00 0. -1.
         21   -1    0    0  503  502 -0.00000000000E+00 -0.00000000000E+00 -0.20357212302E+02  0.20357212302E+02  0.00000000000E+00 0. -1.
          2    1    1    2  501    0  0.22373864882E+02  0.15144668354E+02  0.13955286678E+04  0.13957901753E+04  0.00000000000E+00 0. -1.
         21    1    1    2  503  501 -0.22373864882E+02 -0.15144668354E+02 -0.11204231460E+02  0.29248685644E+02  0.00000000000E+00 0. -1.
</event>
<event>
 4    1  0.2293753E+005  0.3026633E+02  0.7546771E-02  0.1417296E+00
          2   -1    0    0  503    0  0.00000000000E+00  0.00000000000E+00  0.13124945028E+04  0.13124945028E+04  0.00000000000E+00 0. -1.
         21   -1    0    0  501  502 -0.00000000000E+00 -0.00000000000E+00 -0.24562587753E+02  0.24562587753E+02  0.00000000000E+00 0.  1.
          2    1    1    2  501    0 -0.24839096432E+02 -0.17293643306E+02  0.13029279288E+04  0.13032794169E+04  0.00000000000E+00 0. -1.
         21    1    1    2  503  502  0.24839096432E+02  0.17293643306E+02 -0.14996013754E+02  0.33777673675E+02  0.00000000000E+00 0.  1.
</event>
<event>
 4    1  0.2293753E+005  0.2595276E+02  0.7546771E-02  0.1458421E+00
          2   -1    0    0  503    0  0.00000000000E+00  0.00000000000E+00  0.10170648051E+04  0.10170648051E+04  0.00000000000E+00 0.  1.
         21   -1    0    0  501  502 -0.00000000000E+00 -0.00000000000E+00 -0.20730206784E+01  0.20730206784E+01  0.00000000000E+00 0.  1.
          2    1    1    2  501    0 -0.21539250245E+02 -0.14477795739E+02  0.92786435062E+03  0.92822723459E+03  0.00000000000E+00 0.  1.
         21    1    1    2  503  502  0.21539250245E+02  0.14477795739E+02  0.87127433800E+02  0.90910591193E+02  0.00000000000E+00 0.  1.
</event>
<event>
 4    1  0.2293753E+005  0.2593662E+02  0.7546771E-02  0.1458593E+00
          2   -1    0    0  502    0  0.00000000000E+00  0.00000000000E+00  0.14185812781E+04  0.14185812781E+04  0.00000000000E+00 0. -1.
         21   -1    0    0  503  502 -0.00000000000E+00 -0.00000000000E+00 -0.12233101405E+02  0.12233101405E+02  0.00000000000E+00 0. -1.
          2    1    1    2  501    0  0.24427375355E+01  0.25821333699E+02  0.14045779712E+04  0.14048174207E+04  0.00000000000E+00 0. -1.
         21    1    1    2  503  501 -0.24427375355E+01 -0.25821333699E+02  0.17702054864E+01  0.25996958824E+02  0.00000000000E+00 0. -1.
</event>
<event>
 4    1  0.2293753E+005  0.2344820E+02  0.7546771E-02  0.1486945E+00
          2   -1    0    0  503    0  0.00000000000E+00  0.00000000000E+00  0.13411179299E+04  0.13411179299E+04  0.00000000000E+00 0. -1.
         21   -1    0    0  501  502 -0.00000000000E+00 -0.00000000000E+00 -0.44103014110E+00  0.44103014110E+00  0.00000000000E+00 0. -1.
          2    1    1    2  501    0 -0.12700472823E+02 -0.19710812869E+02  0.84834957959E+03  0.84867356937E+03  0.00000000000E+00 0. -1.
         21    1    1    2  503  502  0.12700472823E+02  0.19710812869E+02  0.49232732013E+03  0.49288539064E+03  0.00000000000E+00 0. -1.
</event>
<event>
 4    1  0.2293753E+005  0.2248217E+02  0.7546771E-02  0.1499105E+00
          2   -1    0    0  502    0  0.00000000000E+00  0.00000000000E+00  0.84595601486E+03  0.84595601486E+03  0.00000000000E+00 0. -1.
         21   -1    0    0  503  502 -0.00000000000E+00 -0.00000000000E+00 -0.12327792604E+03  0.12327792604E+03  0.00000000000E+00 0. -1.
          2    1    1    2  501    0  0.22187103847E+02 -0.36305018478E+01  0.84478019907E+03  0.84507930567E+03  0.00000000000E+00 0. -1.
         21    1    1    2  503  501 -0.22187103847E+02  0.36305018478E+01 -0.12210211026E+03  0.12415463524E+03  0.00000000000E+00 0. -1.
</event>
<event>
 4    1  0.2293753E+005  0.3278121E+02  0.7546771E-02  0.1396871E+00
          2   -1    0    0  503    0  0.00000000000E+00  0.00000000000E+00  0.83955814470E+02  0.83955814470E+02  0.00000000000E+00 0. -1.
         21   -1    0    0  501  502 -0.00000000000E+00 -0.00000000000E+00 -0.13260965421E+02  0.13260965421E+02  0.00000000000E+00 0. -1.
          2    1    1    2  501    0 -0.48187124359E+01  0.32425112929E+02  0.26281618837E+02  0.42015847328E+02  0.00000000000E+00 0. -1.
         21    1    1    2  503  502  0.48187124359E+01 -0.32425112929E+02  0.44413230212E+02  0.55200932564E+02  0.00000000000E+00 0. -1.
</event>
<event>
 4    1  0.2293753E+005  0.3629026E+02  0.7546771E-02  0.1371712E+00
          2   -1    0    0  502    0  0.00000000000E+00  0.00000000000E+00  0.18329730853E+04  0.18329730853E+04  0.00000000000E+00 0. -1.
         21   -1    0    0  503  502 -0.00000000000E+00 -0.00000000000E+00 -0.50120159580E+01  0.50120159580E+01  0.00000000000E+00 0.  1.
          2    1    1    2  501    0  0.15098298034E+02 -0.33000365991E+02  0.17645553921E+04  0.17649285295E+04  0.00000000000E+00 0. -1.
         21    1    1    2  503  501 -0.15098298034E+02  0.33000365991E+02  0.63405677303E+02  0.73056571733E+02  0.00000000000E+00 0.  1.
</event>
<event>
 4    1  0.2293753E+005  0.2421954E+02  0.7546771E-02  0.1477727E+00
          2   -1    0    0  503    0  0.00000000000E+00  0.00000000000E+00  0.10111230246E+04  0.10111230246E+04  0.00000000000E+00 0. -1.
         21   -1    0    0  501  502 -0.00000000000E+00 -0.00000000000E+00 -0.27490265286E+01  0.27490265286E+01  0.00000000000E+00 0. -1.
          2    1    1    2  501    0  0.17469422655E+02 -0.16775144526E+02  0.95446711591E+03  0.95477435112E+03  0.00000000000E+00 0. -1.
         21    1    1    2  503  502 -0.17469422655E+02  0.16775144526E+02  0.53906882137E+02  0.59097699985E+02  0.00000000000E+00 0. -1.
</event>
<event>
 4    1  0.2293753E+005  0.2363884E+02  0.7546771E-02  0.1484628E+00
          2   -1    0    0  503    0  0.00000000000E+00  0.00000000000E+00  0.23975898572E+01  0.23975898572E+01  0.00000000000E+00 0.  1.
         21   -1    0    0  501  502 -0.00000000000E+00 -0.00000000000E+00 -0.33774114408E+03  0.33774114408E+03  0.00000000000E+00 0.  1.
          2    1    1    2  501    0  0.27027411344E+01  0.23483819248E+02 -0.72991894220E+02  0.76724254300E+02  0.00000000000E+00 0.  1.
         21    1    1    2  503  502 -0.27027411344E+01 -0.23483819248E+02 -0.26235166001E+03  0.26341447964E+03  0.00000000000E+00 0.  1.
</event>
<event>
 4    1  0.2293753E+005  0.2553193E+02  0.7546771E-02  0.1462940E+00
          2   -1    0    0  503    0  0.00000000000E+00  0.00000000000E+00  0.14145782583E+01  0.14145782583E+01  0.00000000000E+00 0.  1.
         21   -1    0    0  501  502 -0.00000000000E+00 -0.00000000000E+00 -0.58572103475E+03  0.58572103475E+03  0.00000000000E+00 0.  1.
          2    1    1    2  501    0  0.59855982529E+01  0.24820396668E+02 -0.42771255813E+03  0.42847393370E+03  0.00000000000E+00 0.  1.
         21    1    1    2  503  502 -0.59855982529E+01 -0.24820396668E+02 -0.15659389837E+03  0.15866167931E+03  0.00000000000E+00 0.  1.
</event>
<event>
 4    1  0.2293753E+005  0.5349409E+02  0.7546771E-02  0.1283695E+00
          2   -1    0    0  503    0  0.00000000000E+00  0.00000000000E+00  0.42790188682E+03  0.42790188682E+03  0.00000000000E+00 0.  1.
         21   -1    0    0  501  502 -0.00000000000E+00 -0.00000000000E+00 -0.29037690265E+02  0.29037690265E+02  0.00000000000E+00 0. -1.
          2    1    1    2  501    0  0.25381437438E+02  0.47089278497E+02  0.39987367986E+03  0.40343596438E+03  0.00000000000E+00 0.  1.
         21    1    1    2  503  502 -0.25381437438E+02 -0.47089278497E+02 -0.10094832993E+01  0.53503612703E+02  0.00000000000E+00 0. -1.
</event>
<event>
 4    1  0.2293753E+005  0.2114420E+02  0.7546771E-02  0.1517216E+00
          2   -1    0    0  503    0  0.00000000000E+00  0.00000000000E+00  0.10794427284E+03  0.10794427284E+03  0.00000000000E+00 0. -1.
         21   -1    0    0  501  502 -0.00000000000E+00 -0.00000000000E+00 -0.42915584464E+01  0.42915584464E+01  0.00000000000E+00 0.  1.
          2    1    1    2  501    0 -0.10926264245E+02 -0.18102320945E+02  0.62311503494E+02  0.65801221429E+02  0.00000000000E+00 0. -1.
         21    1    1    2  503  502  0.10926264245E+02  0.18102320945E+02  0.41341210904E+02  0.46434609861E+02  0.00000000000E+00 0.  1.
</event>
<event>
 4    1  0.2293753E+005  0.2421296E+02  0.7546771E-02  0.1477804E+00
          2   -1    0    0  502    0  0.00000000000E+00  0.00000000000E+00  0.34024375714E+03  0.34024375714E+03  0.00000000000E+00 0. -1.
         21   -1    0    0  503  502 -0.00000000000E+00 -0.00000000000E+00 -0.53401103060E+01  0.53401103060E+01  0.00000000000E+00 0.  1.
          2    1    1    2  501    0  0.23809963591E+02 -0.43991946533E+01  0.30965994926E+03  0.31060513752E+03  0.00000000000E+00 0. -1.
         21    1    1    2  503  501 -0.23809963591E+02  0.43991946533E+01  0.25243697573E+02  0.34978729923E+02  0.00000000000E+00 0.  1.
</event>
<event>
 4    1  0.2293753E+005  0.2251885E+02  0.7546771E-02  0.1498630E+00
          2   -1    0    0  503    0  0.00000000000E+00  0.00000000000E+00  0.37140732297E+03  0.37140732297E+03  0.00000000000E+00 0.  1.
         21   -1    0    0  501  502 -0.00000000000E+00 -0.00000000000E+00 -0.17176705525E+02  0.17176705525E+02  0.00000000000E+00 0.  1.
          2    1    1    2  501    0 -0.21233021755E+02 -0.75004880990E+01  0.36352550268E+03  0.36422230799E+03  0.00000000000E+00 0.  1.
         21    1    1    2  503  502  0.21233021755E+02  0.75004880990E+01 -0.92948852374E+01  0.24361720509E+02  0.00000000000E+00 0.  1.
</event>
<event>
 4    1  0.2293753E+005  0.2408118E+02  0.7546771E-02  0.1479350E+00
          2   -1    0    0  503    0  0.00000000000E+00  0.00000000000E+00  0.25961532461E+02  0.25961532461E+02  0.00000000000E+00 0. -1.
         21   -1    0    0  501  502 -0.00000000000E+00 -0.00000000000E+00 -0.40525070879E+03  0.40525070879E+03  0.00000000000E+00 0.  1.
          2    1    1    2  501    0  0.11354363158E+02 -0.21236328830E+02  0.19935317713E+02  0.31262119526E+02  0.00000000000E+00 0. -1.
         21    1    1    2  503  502 -0.11354363158E+02  0.21236328830E+02 -0.39922449404E+03  0.39995012172E+03  0.00000000000E+00 0.  1.
</event>
<event>
 4    1  0.2293753E+005  0.2930032E+02  0.7546771E-02  0.1425776E+00
          2   -1    0    0  503    0  0.00000000000E+00  0.00000000000E+00  0.59035286436E+03  0.59035286436E+03  0.00000000000E+00 0.  1.
         21   -1    0    0  501  502 -0.00000000000E+00 -0.00000000000E+00 -0.21536404975E+01  0.21536404975E+01  0.00000000000E+00 0.  1.
          2    1    1    2  501    0 -0.19732831179E+02  0.21659277775E+02  0.46292686180E+03  0.46385319694E+03  0.00000000000E+00 0.  1.
         21    1    1    2  503  502  0.19732831179E+02 -0.21659277775E+02  0.12527236206E+03  0.12865330791E+03  0.00000000000E+00 0.  1.
</event>
<event>
 4    1  0.2293753E+005  0.2675793E+02  0.7546771E-02  0.1450055E+00
          2   -1    0    0  503    0  0.00000000000E+00  0.00000000000E+00  0.27453509564E+04  0.27453509564E+04  0.00000000000E+00 0.  1.
         21   -1    0    0  501  502 -0.00000000000E+00 -0.00000000000E+00 -0.28777224662E+00  0.28777224662E+00  0.00000000000E+00 0.  1.
          2    1    1    2  501    0 -0.76103820797E+01  0.25652854593E+02  0.95224120716E+03  0.95261708125E+03  0.00000000000E+00 0.  1.
         21    1    1    2  503  502  0.76103820797E+01 -0.25652854593E+02  0.17928219770E+04  0.17930216474E+04  0.00000000000E+00 0.  1.
</event>
<event>
 4    1  0.2293753E+005  0.2162807E+02  0.7546771E-02  0.1510483E+00
          2   -1    0    0  503    0  0.00000000000E+00  0.00000000000E+00  0.56237246184E+03  0.56237246184E+03  0.00000000000E+00 0.  1.
         21   -1    0    0  501  502 -0.00000000000E+00 -0.00000000000E+00 -0.25132994611E+01  0.25132994611E+01  0.00000000000E+00 0.  1.
          2    1    1    2  501    0 -0.49360024143E+01 -0.21057290091E+02  0.51095442056E+03  0.51141196063E+03  0.00000000000E+00 0.  1.
         21    1    1    2  503  502  0.49360024143E+01  0.21057290091E+02  0.48904741816E+02  0.53473800668E+02  0.00000000000E+00 0.  1.
</event>
<event>
 4    1  0.2293753E+005  0.2067893E+02  0.7546771E-02  0.1523899E+00
          2   -1    0    0  503    0  0.00000000000E+00  0.00000000000E+00  0.13795621636E+03  0.13795621636E+03  0.00000000000E+00 0.  1.
         21   -1    0    0  501  502 -0.00000000000E+00 -0.00000000000E+00 -0.66120755746E+01  0.66120755746E+01  0.00000000000E+00 0.  1.
          2    1    1    2  501    0  0.18376552758E+02  0.94826360983E+01  0.11835583218E+03  0.12014874568E+03  0.00000000000E+00 0.  1.
         21    1    1    2  503  502 -0.18376552758E+02 -0.94826360983E+01  0.12988308607E+02  0.24419546251E+02  0.00000000000E+00 0.  1.
</event>
<event>
 4    1  0.2293753E+005  0.3287917E+02  0.7546771E-02  0.1396119E+00
          2   -1    0    0  502    0  0.00000000000E+00  0.00000000000E+00  0.71625709875E+02  0.71625709875E+02  0.00000000000E+00 0. -1.
         21   -1    0    0  503  502 -0.00000000000E+00 -0.00000000000E+00 -0.17341920491E+02  0.17341920491E+02  0.00000000000E+00 0. -1.
          2    1    1    2  501    0  0.29667573135E+02  0.14173025214E+02  0.43161445099E+02  0.54258178024E+02  0.00000000000E+00 0. -1.
         21    1    1    2  503  501 -0.29667573135E+02 -0.14173025214E+02  0.11122344285E+02  0.34709452342E+02  0.00000000000E+00 0. -1.
</event>
<event>
 4    1  0.2293753E+005  0.2951174E+02  0.7546771E-02  0.1423887E+00
          2   -1    0    0  503    0  0.00000000000E+00  0.00000000000E+00  0.34319097198E+02  0.34319097198E+02  0.00000000000E+00 0.  1.
         21   -1    0    0  501  502 -0.00000000000E+00 -0.00000000000E+00 -0.24434831376E+03  0.24434831376E+03  0.00000000000E+00 0.  1.
          2    1    1    2  501    0 -0.28256884209E+02  0.85141818172E+01  0.26885254494E+02  0.39921920124E+02  0.00000000000E+00 0.  1.
         21    1    1    2  503  502  0.28256884209E+02 -0.85141818172E+01 -0.23691447105E+03  0.23874549083E+03  0.00000000000E+00 0.  1.
</event>
<event>
 4    1  0.2293753E+005  0.2966741E+02  0.7546771E-02  0.1422509E+00
          2   -1    0    0  503    0  0.00000000000E+00  0.00000000000E+00  0.19351658243E+02  0.19351658243E+02  0.00000000000E+00 0. -1.
         21   -1    0    0  501  502 -0.00000000000E+00 -0.00000000000E+00 -0.65433695007E+02  0.65433695007E+02  0.00000000000E+00 0. -1.
          2    1    1    2  501    0  0.17728516511E+02 -0.23787701879E+02  0.36773907168E+00  0.29669686389E+02  0.00000000000E+00 0. -1.
         21    1    1    2  503  502 -0.17728516511E+02  0.23787701879E+02 -0.46449775836E+02  0.55115666862E+02  0.00000000000E+00 0. -1.
</event>
<event>
 4    1  0.2293753E+005  0.2087747E+02  0.7546771E-02  0.1521021E+00
          2   -1    0    0  503    0  0.00000000000E+00  0.00000000000E+00  0.11812891682E+04  0.11812891682E+04  0.00000000000E+00 0.  1.
         21   -1    0    0  501  502 -0.00000000000E+00 -0.00000000000E+00 -0.38136088653E+00  0.38136088653E+00  0.00000000000E+00 0.  1.
          2    1    1    2  501    0 -0.19322890118E+02  0.79053583557E+01  0.69692292356E+03  0.69723556289E+03  0.00000000000E+00 0.  1.
         21    1    1    2  503  502  0.19322890118E+02 -0.79053583557E+01  0.48398488371E+03  0.48443496616E+03  0.00000000000E+00 0.  1.
</event>
<event>
 4    1  0.2293753E+005  0.3485466E+02  0.7546771E-02  0.1381588E+00
          2   -1    0    0  502    0  0.00000000000E+00  0.00000000000E+00  0.19655533745E+03  0.19655533745E+03  0.00000000000E+00 0. -1.
         21   -1    0    0  503  502 -0.00000000000E+00 -0.00000000000E+00 -0.56445733162E+03  0.56445733162E+03  0.00000000000E+00 0. -1.
          2    1    1    2  501    0 -0.17558543068E+02  0.30108886562E+02  0.19446637100E+03  0.19756522198E+03  0.00000000000E+00 0. -1.
         21    1    1    2  503  501  0.17558543068E+02 -0.30108886562E+02 -0.56236836518E+03  0.56344744709E+03  0.00000000000E+00 0. -1.
</event>
<event>
 4    1  0.2293753E+005  0.2231606E+02  0.7546771E-02  0.1501270E+00
          2   -1    0    0  503    0  0.00000000000E+00  0.00000000000E+00  0.11681744240E+04  0.11681744240E+04  0.00000000000E+00 0. -1.
         21   -1    0    0  501  502 -0.00000000000E+00 -0.00000000000E+00 -0.18159009372E+02  0.18159009372E+02  0.00000000000E+00 0. -1.
          2    1    1    2  501    0  0.19652183286E+02  0.10573466619E+02  0.11611703033E+04  0.11613847251E+04  0.00000000000E+00 0. -1.
         21    1    1    2  503  502 -0.19652183286E+02 -0.10573466619E+02 -0.11154888635E+02  0.24948708278E+02  0.00000000000E+00 0. -1.
</event>
<event>
 4    1  0.2293753E+005  0.2180562E+02  0.7546771E-02  0.1508066E+00
          2   -1    0    0  502    0  0.00000000000E+00  0.00000000000E+00  0.20553768118E+03  0.20553768118E+03  0.00000000000E+00 0.  1.
         21   -1    0    0  503  502 -0.00000000000E+00 -0.00000000000E+00 -0.92707659770E+01  0.92707659770E+01  0.00000000000E+00 0.  1.
          2    1    1    2  501    0  0.20377421955E+02  0.77618189609E+01  0.19117712985E+03  0.19241668362E+03  0.00000000000E+00 0.  1.
         21    1    1    2  503  501 -0.20377421955E+02 -0.77618189609E+01  0.50897853512E+01  0.22391763531E+02  0.00000000000E+00 0.  1.
</event>
<event>
 4    1  0.2293753E+005  0.3260574E+02  0.7546771E-02  0.1398225E+00
          2   -1    0    0  503    0  0.00000000000E+00  0.00000000000E+00  0.39508682095E+03  0.39508682095E+03  0.00000000000E+00 0. -1.
         21   -1    0    0  501  502 -0.00000000000E+00 -0.00000000000E+00 -0.35684625934E+03  0.35684625934E+03  0.00000000000E+00 0. -1.
          2    1    1    2  501    0  0.22287920435E+02  0.23798804043E+02  0.39366660377E+03  0.39501459390E+03  0.00000000000E+00 0. -1.
         21    1    1    2  503  502 -0.22287920435E+02 -0.23798804043E+02 -0.35542604216E+03  0.35691848638E+03  0.00000000000E+00 0. -1.
</event>
<event>
 4    1  0.2293753E+005  0.3381055E+02  0.7546771E-02  0.1389124E+00
          2   -1    0    0  503    0  0.00000000000E+00  0.00000000000E+00  0.83507740245E+03  0.83507740245E+03  0.00000000000E+00 0. -1.
         21   -1    0    0  501  502 -0.00000000000E+00 -0.00000000000E+00 -0.42027517574E+02  0.42027517574E+02  0.00000000000E+00 0. -1.
          2    1    1    2  501    0  0.22395036071E+02 -0.25330135008E+02  0.82787601724E+03  0.82856614299E+03  0.00000000000E+00 0. -1.
         21    1    1    2  503  502 -0.22395036071E+02  0.25330135008E+02 -0.34826132369E+02  0.48538777034E+02  0.00000000000E+00 0. -1.
</event>
<event>
 4    1  0.2293753E+005  0.2448838E+02  0.7546771E-02  0.1474609E+00
          2   -1    0    0  503    0  0.00000000000E+00  0.00000000000E+00  0.24919989304E+02  0.24919989304E+02  0.00000000000E+00 0.  1.
         21   -1    0    0  501  502 -0.00000000000E+00 -0.00000000000E+00 -0.42087924250E+02  0.42087924250E+02  0.00000000000E+00 0.  1.
          2    1    1    2  501    0  0.11118011033E+02  0.21819039117E+02  0.13341007941E+02  0.27886612024E+02  0.00000000000E+00 0.  1.
         21    1    1    2  503  502 -0.11118011033E+02 -0.21819039117E+02 -0.30508942887E+02  0.39121301530E+02  0.00000000000E+00 0.  1.
</event>
<event>
 4    1  0.2293753E+005  0.2011556E+02  0.7546771E-02  0.1532277E+00
          2   -1    0    0  502    0  0.00000000000E+00  0.00000000000E+00  0.40953732773E+02  0.40953732773E+02  0.00000000000E+00 0. -1.
         21   -1    0    0  503  502 -0.00000000000E+00 -0.00000000000E+00 -0.98854329314E+01  0.98854329314E+01  0.00000000000E+00 0. -1.
          2    1    1    2  501    0  0.27604635492E+01  0.19925246649E+02  0.16112766571E+02  0.25773181015E+02  0.00000000000E+00 0. -1.
         21    1    1    2  503  501 -0.27604635492E+01 -0.19925246649E+02  0.14955533270E+02  0.25065984689E+02  0.00000000000E+00 0. -1.
</event>
<event>
 4    1  0.2293753E+005  0.2384901E+02  0.7546771E-02  0.1482104E+00
          2   -1    0    0  502    0  0.00000000000E+00  0.00000000000E+00  0.41437857220E+03  0.41437857220E+03  0.00000000000E+00 0. -1.
         21   -1    0    0  503  502 -0.00000000000E+00 -0.00000000000E+00 -0.32209250730E+02  0.32209250730E+02  0.00000000000E+00 0.  1.
          2    1    1    2  501    0  0.88297930511E+01  0.22154229134E+02  0.40956893666E+03  0.41026270729E+03  0.00000000000E+00 0. -1.
         21    1    1    2  503  501 -0.88297930511E+01 -0.22154229134E+02 -0.27399615190E+02  0.36325115642E+02  0.00000000000E+00 0.  1.
</event>
<event>
 4    1  0.2293753E+005  0.3684966E+02  0.7546771E-02  0.1368006E+00
          2   -1    0    0  503    0  0.00000000000E+00  0.00000000000E+00  0.11530253402E+03  0.11530253402E+03  0.00000000000E+00 0.  1.
         21   -1    0    0  501  502 -0.00000000000E+00 -0.00000000000E+00 -0.61301147127E+03  0.61301147127E+03  0.00000000000E+00 0.  1.
          2    1    1    2  501    0  0.29090246090E+02  0.22619786363E+02  0.11178758414E+03  0.11770455013E+03  0.00000000000E+00 0.  1.
         21    1    1    2  503  502 -0.29090246090E+02 -0.22619786363E+02 -0.60949652138E+03  0.61060945516E+03  0.00000000000E+00 0.  1.
</event>
<event>
 4    1  0.2293753E+005  0.3408347E+02  0.7546771E-02  0.1387124E+00
          2   -1    0    0  503    0  0.00000000000E+00  0.00000000000E+00  0.65654238786E+02  0.65654238786E+02  0.00000000000E+00 0. -1.
         21   -1    0    0  501  502 -0.00000000000E+00 -0.00000000000E+00 -0.10383017322E+03  0.10383017322E+03  0.00000000000E+00 0. -1.
          2    1    1    2  501    0 -0.13447024596E+02 -0.31318696592E+02  0.58096671050E+02  0.67356561772E+02  0.00000000000E+00 0. -1.
         21    1    1    2  503  502  0.13447024596E+02  0.31318696592E+02 -0.96272605480E+02  0.10212785023E+03  0.00000000000E+00 0. -1.
</event>
<event>
 4    1  0.2293753E+005  0.3080614E+02  0.7546771E-02  0.1412718E+00
          2   -1    0    0  503    0  0.00000000000E+00  0.00000000000E+00  0.29868547451E+02  0.29868547451E+02  0.00000000000E+00 0. -1.
         21   -1    0    0  501  502 -0.00000000000E+00 -0.00000000000E+00 -0.21383563664E+03  0.21383563664E+03  0.00000000000E+00 0. -1.
          2    1    1    2  501    0 -0.17721723243E+02  0.25198394044E+02  0.20451877608E+02  0.36976990613E+02  0.00000000000E+00 0. -1.
         21    1    1    2  503  502  0.17721723243E+02 -0.25198394044E+02 -0.20441896680E+03  0.20672719348E+03  0.00000000000E+00 0. -1.
</event>
<event>
 4    1  0.2293753E+005  0.2611094E+02  0.7546771E-02  0.1456749E+00
          2   -1    0    0  503    0  0.00000000000E+00  0.00000000000E+00  0.27416345586E+03  0.27416345586E+03  0.00000000000E+00 0. -1.
         21   -1    0    0  501  502 -0.00000000000E+00 -0.00000000000E+00 -0.19229764009E+02  0.19229764009E+02  0.00000000000E+00 0.  1.
          2    1    1    2  501    0 -0.23996728339E+02 -0.10292635462E+02  0.26434989420E+03  0.26563630753E+03  0.00000000000E+00 0. -1.
         21    1    1    2  503  502  0.23996728339E+02  0.10292635462E+02 -0.94162023501E+01  0.27756912336E+02  0.00000000000E+00 0.  1.
</event>
<event>
 4    1  0.2293753E+005  0.2077187E+02  0.7546771E-02  0.1522547E+00
          2   -1    0    0  503    0  0.00000000000E+00  0.00000000000E+00  0.10713341584E+03  0.10713341584E+03  0.00000000000E+00 0. -1.
         21   -1    0    0  501  502 -0.00000000000E+00 -0.00000000000E+00 -0.53380327804E+01  0.53380327804E+01  0.00000000000E+00 0.  1.
          2    1    1    2  501    0  0.18633509273E+02 -0.91794739214E+01  0.78762764992E+02  0.81455776704E+02  0.00000000000E+00 0. -1.
         21    1    1    2  503  502 -0.18633509273E+02  0.91794739214E+01  0.23032618064E+02  0.31015671913E+02  0.00000000000E+00 0.  1.
</event>
<event>
 4    1  0.2293753E+005  0.2315050E+02  0.7546771E-02  0.1490617E+00
          2   -1    0    0  503    0  0.00000000000E+00  0.00000000000E+00  0.53326516658E+03  0.53326516658E+03  0.00000000000E+00 0.  1.
         21   -1    0    0  501  502 -0.00000000000E+00 -0.00000000000E+00 -0.43277725123E+02  0.43277725123E+02  0.00000000000E+00 0. -1.
          2    1    1    2  501    0  0.23057915755E+02 -0.20683564256E+01  0.52989828144E+03  0.53040374645E+03  0.00000000000E+00 0.  1.
         21    1    1    2  503  502 -0.23057915755E+02  0.20683564256E+01 -0.39910839978E+02  0.46139145257E+02  0.00000000000E+00 0. -1.
</event>
<event>
 4    1  0.2293753E+005  0.2520971E+02  0.7546771E-02  0.1466471E+00
          2   -1    0    0  502    0  0.00000000000E+00  0.00000000000E+00  0.74400885128E+02  0.74400885128E+02  0.00000000000E+00 0.  1.
         21   -1    0    0  503  502 -0.00000000000E+00 -0.00000000000E+00 -0.45953642090E+02  0.45953642090E+02  0.00000000000E+00 0.  1.
          2    1    1    2  501    0 -0.19116963884E+02 -0.16433848010E+02  0.68520649968E+02  0.73011020679E+02  0.00000000000E+00 0.  1.
         21    1    1    2  503  501  0.19116963884E+02  0.16433848010E+02 -0.40073406929E+02  0.47343506539E+02  0.00000000000E+00 0.  1.
</event>
<event>
 4    1  0.2293753E+005  0.3475629E+02  0.7546771E-02  0.1382285E+00
          2   -1    0    0  503    0  0.00000000000E+00  0.00000000000E+00  0.17396511807E+03  0.17396511807E+03  0.00000000000E+00 0. -1.
         21   -1    0    0  501  502 -0.00000000000E+00 -0.00000000000E+00 -0.24135839619E+02  0.24135839619E+02  0.00000000000E+00 0.  1.
          2    1    1    2  501    0 -0.61902494247E+01  0.34200594518E+02  0.15851103634E+03  0.16227676511E+03  0.00000000000E+00 0. -1.
         21    1    1    2  503  502  0.61902494247E+01 -0.34200594518E+02 -0.86817578938E+01  0.35824192572E+02  0.00000000000E+00 0.  1.
</event>
<event>
 4    1  0.2293753E+005  0.6807169E+02  0.7546771E-02  0.1234627E+00
          2   -1    0    0  503    0  0.00000000000E+00  0.00000000000E+00  0.69593574430E+02  0.69593574430E+02  0.00000000000E+00 0. -1.
         21   -1    0    0  501  502 -0.00000000000E+00 -0.00000000000E+00 -0.82087524792E+02  0.82087524792E+02  0.00000000000E+00 0.  1.
          2    1    1    2  501    0  0.34608438584E+02  0.58617500498E+02  0.26713300037E+02  0.73125616474E+02  0.00000000000E+00 0. -1.
         21    1    1    2  503  502 -0.34608438584E+02 -0.58617500498E+02 -0.39207250399E+02  0.78555482747E+02  0.00000000000E+00 0.  1.
</event>
<event>
 4    1  0.2293753E+005  0.6418922E+02  0.7546771E-02  0.1246227E+00
          2   -1    0    0  503    0  0.00000000000E+00  0.00000000000E+00  0.72017584853E+03  0.72017584853E+03  0.00000000000E+00 0.  1.
         21   -1    0    0  501  502 -0.00000000000E+00 -0.00000000000E+00 -0.28023687494E+03  0.28023687494E+03  0.00000000000E+00 0.  1.
          2    1    1    2  501    0  0.55539805341E+02  0.32180529794E+02  0.71504353259E+03  0.71791887423E+03  0.00000000000E+00 0.  1.
         21    1    1    2  503  502 -0.55539805341E+02 -0.32180529794E+02 -0.27510455900E+03  0.28249384924E+03  0.00000000000E+00 0.  1.
</event>
<event>
 4    1  0.2293753E+005  0.2912774E+02  0.7546771E-02  0.1427331E+00
          2   -1    0    0  503    0  0.00000000000E+00  0.00000000000E+00  0.12368469326E+04  0.12368469326E+04  0.00000000000E+00 0.  1.
         21   -1    0    0  501  502 -0.00000000000E+00 -0.00000000000E+00 -0.68640116668E+00  0.68640116668E+00  0.00000000000E+00 0.  1.
          2    1    1    2  501    0  0.29105747319E+02  0.11316410041E+01  0.63380146690E+03  0.63447042845E+03  0.00000000000E+00 0.  1.
         21    1    1    2  503  502 -0.29105747319E+02 -0.11316410041E+01  0.60235906450E+03  0.60306290528E+03  0.00000000000E+00 0.  1.
</event>
<event>
 4    1  0.2293753E+005  0.2376512E+02  0.7546771E-02  0.1483108E+00
          2   -1    0    0  503    0  0.00000000000E+00  0.00000000000E+00  0.47681169575E+03  0.47681169575E+03  0.00000000000E+00 0.  1.
         21   -1    0    0  501  502 -0.00000000000E+00 -0.00000000000E+00 -0.15094750955E+01  0.15094750955E+01  0.00000000000E+00 0.  1.
          2    1    1    2  501    0 -0.10292382320E+02  0.21420729838E+02  0.34862106014E+03  0.34943014234E+03  0.00000000000E+00 0.  1.
         21    1    1    2  503  502  0.10292382320E+02 -0.21420729838E+02  0.12668116052E+03  0.12889102851E+03  0.00000000000E+00 0.  1.
</event>
<event>
 4    1  0.2293753E+005  0.2351623E+02  0.7546771E-02  0.1486116E+00
          2   -1    0    0  503    0  0.00000000000E+00  0.00000000000E+00  0.15015280240E+02  0.15015280240E+02  0.00000000000E+00 0. -1.
         21   -1    0    0  501  502 -0.00000000000E+00 -0.00000000000E+00 -0.51785760650E+02  0.51785760650E+02  0.00000000000E+00 0. -1.
          2    1    1    2  501    0  0.48732341881E+01 -0.23005753435E+02 -0.43575543723E+00  0.23520267544E+02  0.00000000000E+00 0. -1.
         21    1    1    2  503  502 -0.48732341881E+01  0.23005753435E+02 -0.36334724973E+02  0.43280773346E+02  0.00000000000E+00 0. -1.
</event>
<event>
 4    1  0.2293753E+005  0.2063761E+02  0.7546771E-02  0.1524502E+00
          2   -1    0    0  502    0  0.00000000000E+00  0.00000000000E+00  0.11668735273E+02  0.11668735273E+02  0.00000000000E+00 0.  1.
         21   -1    0    0  503  502 -0.00000000000E+00 -0.00000000000E+00 -0.13210120601E+03  0.13210120601E+03  0.00000000000E+00 0. -1.
          2    1    1    2  501    0 -0.18144298392E+02 -0.98333905518E+01  0.93650831688E+00  0.20658852381E+02  0.00000000000E+00 0.  1.
         21    1    1    2  503  501  0.18144298392E+02  0.98333905518E+01 -0.12136897906E+03  0.12311108890E+03  0.00000000000E+00 0. -1.
</event>
<event>
 4    1  0.2293753E+005  0.4325692E+02  0.7546771E-02  0.1330389E+00
          2   -1    0    0  502    0  0.00000000000E+00  0.00000000000E+00  0.48737012867E+03  0.48737012867E+03  0.00000000000E+00 0.  1.
         21   -1    0    0  503  502 -0.00000000000E+00 -0.00000000000E+00 -0.49171865493E+01  0.49171865493E+01  0.00000000000E+00 0. -1.
          2    1    1    2  501    0  0.36603839561E+02  0.23050384296E+02  0.35646994927E+03  0.35908492870E+03  0.00000000000E+00 0.  1.
         21    1    1    2  503  501 -0.36603839561E+02 -0.23050384296E+02  0.12598299285E+03  0.13320238651E+03  0.00000000000E+00 0. -1.
</event>
<event>
 4    1  0.2293753E+005  0.2247199E+02  0.7546771E-02  0.1499237E+00
          2   -1    0    0  502    0  0.00000000000E+00  0.00000000000E+00  0.10560731707E+04  0.10560731707E+04  0.00000000000E+00 0. -1.
         21   -1    0    0  503  502 -0.00000000000E+00 -0.00000000000E+00 -0.50350531082E+00  0.50350531082E+00  0.00000000000E+00 0. -1.
          2    1    1    2  501    0 -0.22177326660E+02  0.36271835452E+01  0.64627137964E+03  0.64666195683E+03  0.00000000000E+00 0. -1.
         21    1    1    2  503  501  0.22177326660E+02 -0.36271835452E+01  0.40929828573E+03  0.40991471916E+03  0.00000000000E+00 0. -1.
</event>
<event>
 4    1  0.2293753E+005  0.2310893E+02  0.7546771E-02  0.1491135E+00
          2   -1    0    0  502    0  0.00000000000E+00  0.00000000000E+00  0.10352508199E+04  0.10352508199E+04  0.00000000000E+00 0. -1.
         21   -1    0    0  503  502 -0.00000000000E+00 -0.00000000000E+00 -0.55252316870E+00  0.55252316870E+00  0.00000000000E+00 0. -1.
          2    1    1    2  501    0  0.22544719826E+02  0.50752797779E+01  0.65079675302E+03  0.65120690767E+03  0.00000000000E+00 0. -1.
         21    1    1    2  503  501 -0.22544719826E+02 -0.50752797779E+01  0.38390154374E+03  0.38459643543E+03  0.00000000000E+00 0. -1.
</event>
<event>
 4    1  0.2293753E+005  0.3373797E+02  0.7546771E-02  0.1389659E+00
          2   -1    0    0  503    0  0.00000000000E+00  0.00000000000E+00  0.12915663228E+03  0.12915663228E+03  0.00000000000E+00 0.  1.
         21   -1    0    0  501  502 -0.00000000000E+00 -0.00000000000E+00 -0.92934256199E+01  0.92934256199E+01  0.00000000000E+00 0.  1.
          2    1    1    2  501    0 -0.33734657388E+02 -0.47244006021E+00  0.75671907768E+02  0.82852205366E+02  0.00000000000E+00 0.  1.
         21    1    1    2  503  502  0.33734657388E+02  0.47244006021E+00  0.44191298896E+02  0.55597852538E+02  0.00000000000E+00 0.  1.
</event>
<event>
 4    1  0.2293753E+005  0.2079696E+02  0.7546771E-02  0.1522184E+00
          2   -1    0    0  503    0  0.00000000000E+00  0.00000000000E+00  0.35723904673E+03  0.35723904673E+03  0.00000000000E+00 0.  1.
         21   -1    0    0  501  502 -0.00000000000E+00 -0.00000000000E+00 -0.62941309340E+02  0.62941309340E+02  0.00000000000E+00 0. -1.
          2    1    1    2  501    0 -0.22058635522E+01 -0.20679645806E+02  0.35520863313E+03  0.35581692854E+03  0.00000000000E+00 0.  1.
         21    1    1    2  503  502  0.22058635522E+01  0.20679645806E+02 -0.60910895737E+02  0.64363427535E+02  0.00000000000E+00 0. -1.
</event>
<event>
 4    1  0.2293753E+005  0.2275983E+02  0.7546771E-02  0.1495536E+00
          2   -1    0    0  503    0  0.00000000000E+00  0.00000000000E+00  0.45334279656E+03  0.45334279656E+03  0.00000000000E+00 0. -1.
         21   -1    0    0  501  502 -0.00000000000E+00 -0.00000000000E+00 -0.21508950053E+01  0.21508950053E+01  0.00000000000E+00 0. -1.
          2    1    1    2  501    0 -0.15705100087E+01 -0.22705577704E+02  0.69666934709E+02  0.73290460172E+02  0.00000000000E+00 0. -1.
         21    1    1    2  503  502  0.15705100087E+01  0.22705577704E+02  0.38152496685E+03  0.38220323139E+03  0.00000000000E+00 0. -1.
</event>
<event>
 4    1  0.2293753E+005  0.2338017E+02  0.7546771E-02  0.1487779E+00
          2   -1    0    0  503    0  0.00000000000E+00  0.00000000000E+00  0.23490269659E+02  0.23490269659E+02  0.00000000000E+00 0. -1.
         21   -1    0    0  501  502 -0.00000000000E+00 -0.00000000000E+00 -0.56484508049E+02  0.56484508049E+02  0.00000000000E+00 0.  1.
          2    1    1    2  501    0  0.19815746444E+02 -0.12408407704E+02  0.14166148759E+02  0.27337010801E+02  0.00000000000E+00 0. -1.
         21    1    1    2  503  502 -0.19815746444E+02  0.12408407704E+02 -0.47160387149E+02  0.52637766907E+02  0.00000000000E+00 0.  1.
</event>
<event>
 4    1  0.2293753E+005  0.2192245E+02  0.7546771E-02  0.1506491E+00
          2   -1    0    0  502    0  0.00000000000E+00  0.00000000000E+00  0.63552846520E+02  0.63552846520E+02  0.00000000000E+00 0.  1.
         21   -1    0    0  503  502 -0.00000000000E+00 -0.00000000000E+00 -0.22815021581E+02  0.22815021581E+02  0.00000000000E+00 0.  1.
          2    1    1    2  501    0  0.20086658562E+01 -0.21830235398E+02  0.55678128188E+02  0.59838514976E+02  0.00000000000E+00 0.  1.
         21    1    1    2  503  501 -0.20086658562E+01  0.21830235398E+02 -0.14940303249E+02  0.26529353125E+02  0.00000000000E+00 0.  1.
</event>
<event>
 4    1  0.2293753E+005  0.2429828E+02  0.7546771E-02  0.1476809E+00
          2   -1    0    0  503    0  0.00000000000E+00  0.00000000000E+00  0.34391165938E+03  0.34391165938E+03  0.00000000000E+00 0.  1.
         21   -1    0    0  501  502 -0.00000000000E+00 -0.00000000000E+00 -0.22181146377E+03  0.22181146377E+03  0.00000000000E+00 0. -1.
          2    1    1    2  501    0  0.12318053363E+02  0.20944493425E+02  0.34281491160E+03  0.34367494797E+03  0.00000000000E+00 0.  1.
         21    1    1    2  503  502 -0.12318053363E+02 -0.20944493425E+02 -0.22071471599E+03  0.22204817518E+03  0.00000000000E+00 0. -1.
</event>
<event>
 4    1  0.2293753E+005  0.2660069E+02  0.7546771E-02  0.1451661E+00
          2   -1    0    0  503    0  0.00000000000E+00  0.00000000000E+00  0.25527723225E+03  0.25527723225E+03  0.00000000000E+00 0. -1.
         21   -1    0    0  501  502 -0.00000000000E+00 -0.00000000000E+00 -0.24856721953E+02  0.24856721953E+02  0.00000000000E+00 0. -1.
          2    1    1    2  501    0 -0.25132379446E+02  0.87155302466E+01  0.24723672489E+03  0.24866361837E+03  0.00000000000E+00 0. -1.
         21    1    1    2  503  502  0.25132379446E+02 -0.87155302466E+01 -0.16816214597E+02  0.31470335834E+02  0.00000000000E+00 0. -1.
</event>
<event>
 4    1  0.2293753E+005  0.2192440E+02  0.7546771E-02  0.1506465E+00
          2   -1    0    0  502    0  0.00000000000E+00  0.00000000000E+00  0.10579269153E+04  0.10579269153E+04  0.00000000000E+00 0.  1.
         21   -1    0    0  503  502 -0.00000000000E+00 -0.00000000000E+00 -0.58051852451E+01  0.58051852451E+01  0.00000000000E+00 0.  1.
          2    1    1    2  501    0 -0.10274292427E+02 -0.19367964110E+02  0.10366888741E+04  0.10369206820E+04  0.00000000000E+00 0.  1.
         21    1    1    2  503  501  0.10274292427E+02  0.19367964110E+02  0.15432855878E+02  0.26811418448E+02  0.00000000000E+00 0.  1.
</event>
<event>
 4    1  0.2293753E+005  0.5211675E+02  0.7546771E-02  0.1289247E+00
          2   -1    0    0  503    0  0.00000000000E+00  0.00000000000E+00  0.14858542375E+04  0.14858542375E+04  0.00000000000E+00 0. -1.
         21   -1    0    0  501  502 -0.00000000000E+00 -0.00000000000E+00 -0.17042533012E+02  0.17042533012E+02  0.00000000000E+00 0.  1.
          2    1    1    2  501    0  0.32030959957E+01  0.52018220907E+02  0.14444106224E+04  0.14453505462E+04  0.00000000000E+00 0. -1.
         21    1    1    2  503  502 -0.32030959957E+01 -0.52018220907E+02  0.24401082058E+02  0.57546224341E+02  0.00000000000E+00 0.  1.
</event>
<event>
 4    1  0.2293753E+005  0.3617535E+02  0.7546771E-02  0.1372483E+00
          2   -1    0    0  502    0  0.00000000000E+00  0.00000000000E+00  0.15682754702E+03  0.15682754702E+03  0.00000000000E+00 0. -1.
         21   -1    0    0  503  502 -0.00000000000E+00 -0.00000000000E+00 -0.61844469398E+03  0.61844469398E+03  0.00000000000E+00 0.  1.
          2    1    1    2  501    0 -0.12875113268E+02 -0.33806617688E+02  0.15420351616E+03  0.15838996287E+03  0.00000000000E+00 0. -1.
         21    1    1    2  503  501  0.12875113268E+02  0.33806617688E+02 -0.61582066313E+03  0.61688227813E+03  0.00000000000E+00 0.  1.
</event>
<event>
 4    1  0.2293753E+005  0.3484602E+02  0.7546771E-02  0.1381649E+00
          2   -1    0    0  502    0  0.00000000000E+00  0.00000000000E+00  0.87494492329E+03  0.87494492329E+03  0.00000000000E+00 0.  1.
         21   -1    0    0  503  502 -0.00000000000E+00 -0.00000000000E+00 -0.12333731394E+02  0.12333731394E+02  0.00000000000E+00 0.  1.
          2    1    1    2  501    0  0.30450609659E+02 -0.16941241160E+02  0.84924106534E+03  0.84995566492E+03  0.00000000000E+00 0.  1.
         21    1    1    2  503  501 -0.30450609659E+02  0.16941241160E+02  0.13370126562E+02  0.37322989764E+02  0.00000000000E+00 0.  1.
</event>
<event>
 4    1  0.2293753E+005  0.2183398E+02  0.7546771E-02  0.1507683E+00
          2   -1    0    0  503    0  0.00000000000E+00  0.00000000000E+00  0.21186771427E+03  0.21186771427E+03  0.00000000000E+00 0. -1.
         21   -1    0    0  501  502 -0.00000000000E+00 -0.00000000000E+00 -0.40605959935E+01  0.40605959935E+01  0.00000000000E+00 0. -1.
          2    1    1    2  501    0 -0.44746049827E+01 -0.21370553346E+02  0.17599504809E+03  0.17734424037E+03  0.00000000000E+00 0. -1.
         21    1    1    2  503  502  0.44746049827E+01  0.21370553346E+02  0.31812070189E+02  0.38584069896E+02  0.00000000000E+00 0. -1.
</event>
<event>
 4    1  0.2293753E+005  0.2941675E+02  0.7546771E-02  0.1424734E+00
          2   -1    0    0  503    0  0.00000000000E+00  0.00000000000E+00  0.28695384633E+04  0.28695384633E+04  0.00000000000E+00 0. -1.
         21   -1    0    0  501  502 -0.00000000000E+00 -0.00000000000E+00 -0.30386434784E+00  0.30386434784E+00  0.00000000000E+00 0.  1.
          2    1    1    2  501    0 -0.29396952280E+02  0.10790721337E+01  0.13097277105E+04  0.13100580219E+04  0.00000000000E+00 0. -1.
         21    1    1    2  503  502  0.29396952280E+02 -0.10790721337E+01  0.15595068885E+04  0.15597843058E+04  0.00000000000E+00 0.  1.
</event>
<event>
 4    1  0.2293753E+005  0.2081583E+02  0.7546771E-02  0.1521911E+00
          2   -1    0    0  502    0  0.00000000000E+00  0.00000000000E+00  0.17749685182E+04  0.17749685182E+04  0.00000000000E+00 0. -1.
         21   -1    0    0  503  502 -0.00000000000E+00 -0.00000000000E+00 -0.51547835991E+00  0.51547835991E+00  0.00000000000E+00 0.  1.
          2    1    1    2  501    0 -0.15305157707E+02  0.14108539130E+02  0.15313307027E+04  0.15314721740E+04  0.00000000000E+00 0. -1.
         21    1    1    2  503  501  0.15305157707E+02 -0.14108539130E+02  0.24312233720E+03  0.24401182261E+03  0.00000000000E+00 0.  1.
</event>
<event>
 4    1  0.2293753E+005  0.2550252E+02  0.7546771E-02  0.1463259E+00
          2   -1    0    0  502    0  0.00000000000E+00  0.00000000000E+00  0.94662061518E+03  0.94662061518E+03  0.00000000000E+00 0. -1.
         21   -1    0    0  503  502 -0.00000000000E+00 -0.00000000000E+00 -0.22863988729E+01  0.22863988729E+01  0.00000000000E+00 0.  1.
          2    1    1    2  501    0  0.99954600139E+01  0.23462083342E+02  0.86898281434E+03  0.86935695212E+03  0.00000000000E+00 0. -1.
         21    1    1    2  503  501 -0.99954600139E+01 -0.23462083342E+02  0.75351401971E+02  0.79550061939E+02  0.00000000000E+00 0.  1.
</event>
<event>
 4    1  0.2293753E+005  0.4627134E+02  0.7546771E-02  0.1315202E+00
          2   -1    0    0  502    0  0.00000000000E+00  0.00000000000E+00  0.34803447247E+02  0.34803447247E+02  0.00000000000E+00 0.  1.
         21   -1    0    0  503  502 -0.00000000000E+00 -0.00000000000E+00 -0.38836999320E+03  0.38836999320E+03  0.00000000000E+00 0.  1.
          2    1    1    2  501    0  0.83766362330E+01  0.45506800029E+02  0.17323715672E+02  0.49407975147E+02  0.00000000000E+00 0.  1.
         21    1    1    2  503  501 -0.83766362330E+01 -0.45506800029E+02 -0.37089026163E+03  0.37376546530E+03  0.00000000000E+00 0.  1.
</event>
<event>
 4    1  0.2293753E+005  0.2695360E+02  0.7546771E-02  0.1448075E+00
          2   -1    0    0  503    0  0.00000000000E+00  0.00000000000E+00  0.60179365927E+03  0.60179365927E+03  0.00000000000E+00 0. -1.
         21   -1    0    0  501  502 -0.00000000000E+00 -0.00000000000E+00 -0.12330041724E+01  0.12330041724E+01  0.00000000000E+00 0.  1.
          2    1    1    2  501    0 -0.26047413683E+02 -0.69302758382E+01  0.34388297500E+03  0.34493767115E+03  0.00000000000E+00 0. -1.
         21    1    1    2  503  502  0.26047413683E+02  0.69302758382E+01  0.25667768010E+03  0.25808899230E+03  0.00000000000E+00 0.  1.
</event>
<event>
 4    1  0.2293753E+005  0.2299463E+02  0.7546771E-02  0.1492566E+00
          2   -1    0    0  503    0  0.00000000000E+00  0.00000000000E+00  0.14416220946E+03  0.14416220946E+03  0.00000000000E+00 0.  1.
         21   -1    0    0  501  502 -0.00000000000E+00 -0.00000000000E+00 -0.97337348518E+01  0.97337348518E+01  0.00000000000E+00 0.  1.
          2    1    1    2  501    0 -0.22115482440E+02 -0.62975003631E+01  0.12795882028E+03  0.13000851035E+03  0.00000000000E+00 0.  1.
         21    1    1    2  503  502  0.22115482440E+02  0.62975003631E+01  0.64696543262E+01  0.23887433966E+02  0.00000000000E+00 0.  1.
</event>
<event>
 4    1  0.2293753E+005  0.4300186E+02  0.7546771E-02  0.1331739E+00
          2   -1    0    0  502    0  0.00000000000E+00  0.00000000000E+00  0.39487390373E+03  0.39487390373E+03  0.00000000000E+00 0.  1.
         21   -1    0    0  503  502 -0.00000000000E+00 -0.00000000000E+00 -0.52437756853E+02  0.52437756853E+02  0.00000000000E+00 0. -1.
          2    1    1    2  501    0  0.57771382121E+01 -0.42612021346E+02  0.38465368903E+03  0.38704989364E+03  0.00000000000E+00 0.  1.
         21    1    1    2  503  501 -0.57771382121E+01  0.42612021346E+02 -0.42217542151E+02  0.60261766937E+02  0.00000000000E+00 0. -1.
</event>
<event>
 4    1  0.2293753E+005  0.2890547E+02  0.7546771E-02  0.1429352E+00
          2   -1    0    0  502    0  0.00000000000E+00  0.00000000000E+00  0.66268014465E+03  0.66268014465E+03  0.00000000000E+00 0.  1.
         21   -1    0    0  503  502 -0.00000000000E+00 -0.00000000000E+00 -0.32975152594E+01  0.32975152594E+01  0.00000000000E+00 0.  1.
          2    1    1    2  501    0  0.17296161964E+02 -0.23159638985E+02  0.59138808626E+03  0.59209407586E+03  0.00000000000E+00 0.  1.
         21    1    1    2  503  501 -0.17296161964E+02  0.23159638985E+02  0.67994543128E+02  0.73883584049E+02  0.00000000000E+00 0.  1.
</event>
<event>
 4    1  0.2293753E+005  0.2971140E+02  0.7546771E-02  0.1422121E+00
          2   -1    0    0  503    0  0.00000000000E+00  0.00000000000E+00  0.26249728744E+04  0.26249728744E+04  0.00000000000E+00 0. -1.
         21   -1    0    0  501  502 -0.00000000000E+00 -0.00000000000E+00 -0.53461357480E+00  0.53461357480E+00  0.00000000000E+00 0. -1.
          2    1    1    2  501    0  0.92414720672E+01 -0.28237610615E+02  0.21117662270E+04  0.21119752283E+04  0.00000000000E+00 0. -1.
         21    1    1    2  503  502 -0.92414720672E+01  0.28237610615E+02  0.51267203383E+03  0.51353225967E+03  0.00000000000E+00 0. -1.
</event>
<event>
 4    1  0.2293753E+005  0.5644737E+02  0.7546771E-02  0.1272405E+00
          2   -1    0    0  503    0  0.00000000000E+00  0.00000000000E+00  0.17504873427E+02  0.17504873427E+02  0.00000000000E+00 0. -1.
         21   -1    0    0  501  502 -0.00000000000E+00 -0.00000000000E+00 -0.74965081613E+03  0.74965081613E+03  0.00000000000E+00 0.  1.
          2    1    1    2  501    0  0.27882607838E+02 -0.49080202224E+02 -0.32296683804E+02  0.65033697841E+02  0.00000000000E+00 0. -1.
         21    1    1    2  503  502 -0.27882607838E+02  0.49080202224E+02 -0.69984925890E+03  0.70212199172E+03  0.00000000000E+00 0.  1.
</event>
<event>
 4    1  0.2293753E+005  0.2044212E+02  0.7546771E-02  0.1527381E+00
          2   -1    0    0  503    0  0.00000000000E+00  0.00000000000E+00  0.15180935258E+03  0.15180935258E+03  0.00000000000E+00 0. -1.
         21   -1    0    0  501  502 -0.00000000000E+00 -0.00000000000E+00 -0.37800976895E+01  0.37800976895E+01  0.00000000000E+00 0. -1.
          2    1    1    2  501    0 -0.20208506032E+02  0.30816557514E+01  0.11457251170E+03  0.11638187469E+03  0.00000000000E+00 0. -1.
         21    1    1    2  503  502  0.20208506032E+02 -0.30816557514E+01  0.33456743190E+02  0.39207575583E+02  0.00000000000E+00 0. -1.
</event>
<event>
 4    1  0.2293753E+005  0.2352547E+02  0.7546771E-02  0.1486003E+00
          2   -1    0    0  503    0  0.00000000000E+00  0.00000000000E+00  0.21635528403E+03  0.21635528403E+03  0.00000000000E+00 0.  1.
         21   -1    0    0  501  502 -0.00000000000E+00 -0.00000000000E+00 -0.14885368653E+02  0.14885368653E+02  0.00000000000E+00 0.  1.
          2    1    1    2  501    0  0.23509050612E+02 -0.87879832584E+00  0.20595263134E+03  0.20729190554E+03  0.00000000000E+00 0.  1.
         21    1    1    2  503  502 -0.23509050612E+02  0.87879832584E+00 -0.44827159646E+01  0.23948747141E+02  0.00000000000E+00 0.  1.
</event>
<event>
 4    1  0.2293753E+005  0.2052866E+02  0.7546771E-02  0.1526102E+00
          2   -1    0    0  503    0  0.00000000000E+00  0.00000000000E+00  0.14918116087E+03  0.14918116087E+03  0.00000000000E+00 0. -1.
         21   -1    0    0  501  502 -0.00000000000E+00 -0.00000000000E+00 -0.23438698639E+02  0.23438698639E+02  0.00000000000E+00 0. -1.
          2    1    1    2  501    0  0.61126027045E+01 -0.19597494418E+02  0.14381301269E+03  0.14527081028E+03  0.00000000000E+00 0. -1.
         21    1    1    2  503  502 -0.61126027045E+01  0.19597494418E+02 -0.18070550467E+02  0.27349049224E+02  0.00000000000E+00 0. -1.
</event>
<event>
 4    1  0.2293753E+005  0.2703287E+02  0.7546771E-02  0.1447278E+00
          2   -1    0    0  503    0  0.00000000000E+00  0.00000000000E+00  0.41577169140E+03  0.41577169140E+03  0.00000000000E+00 0. -1.
         21   -1    0    0  501  502 -0.00000000000E+00 -0.00000000000E+00 -0.11503471805E+02  0.11503471805E+02  0.00000000000E+00 0.  1.
          2    1    1    2  501    0  0.12427920794E+02 -0.24006727172E+02  0.39877448095E+03  0.39968970818E+03  0.00000000000E+00 0. -1.
         21    1    1    2  503  502 -0.12427920794E+02  0.24006727172E+02  0.54937386423E+01  0.27585455027E+02  0.00000000000E+00 0.  1.
</event>
<event>
 4    1  0.2293753E+005  0.3643815E+02  0.7546771E-02  0.1370725E+00
          2   -1    0    0  503    0  0.00000000000E+00  0.00000000000E+00  0.10880887832E+03  0.10880887832E+03  0.00000000000E+00 0. -1.
         21   -1    0    0  501  502 -0.00000000000E+00 -0.00000000000E+00 -0.30627976955E+03  0.30627976955E+03  0.00000000000E+00 0. -1.
          2    1    1    2  501    0 -0.36038139068E+02  0.53843609722E+01  0.10463247295E+03  0.11079572738E+03  0.00000000000E+00 0. -1.
         21    1    1    2  503  502  0.36038139068E+02 -0.53843609722E+01 -0.30210336418E+03  0.30429292049E+03  0.00000000000E+00 0. -1.
</event>
<event>
 4    1  0.2293753E+005  0.2213755E+02  0.7546771E-02  0.1503621E+00
          2   -1    0    0  503    0  0.00000000000E+00  0.00000000000E+00  0.52538947575E+02  0.52538947575E+02  0.00000000000E+00 0.  1.
         21   -1    0    0  501  502 -0.00000000000E+00 -0.00000000000E+00 -0.20308096664E+02  0.20308096664E+02  0.00000000000E+00 0. -1.
          2    1    1    2  501    0  0.16401055775E+02 -0.14868643511E+02  0.42898163242E+02  0.48273425401E+02  0.00000000000E+00 0.  1.
         21    1    1    2  503  502 -0.16401055775E+02  0.14868643511E+02 -0.10667312331E+02  0.24573618837E+02  0.00000000000E+00 0. -1.
</event>
<event>
 4    1  0.2293753E+005  0.3258585E+02  0.7546771E-02  0.1398379E+00
          2   -1    0    0  502    0  0.00000000000E+00  0.00000000000E+00  0.19220032390E+04  0.19220032390E+04  0.00000000000E+00 0.  1.
         21   -1    0    0  503  502 -0.00000000000E+00 -0.00000000000E+00 -0.38312598636E+01  0.38312598636E+01  0.00000000000E+00 0. -1.
          2    1    1    2  501    0 -0.25392917116E+02 -0.20421489957E+02  0.18498760337E+04  0.18501630138E+04  0.00000000000E+00 0.  1.
         21    1    1    2  503  501  0.25392917116E+02  0.20421489957E+02  0.68295945411E+02  0.75671485061E+02  0.00000000000E+00 0. -1.
</event>
<event>
 4    1  0.2293753E+005  0.2202179E+02  0.7546771E-02  0.1505161E+00
          2   -1    0    0  503    0  0.00000000000E+00  0.00000000000E+00  0.12402604421E+02  0.12402604421E+02  0.00000000000E+00 0.  1.
         21   -1    0    0  501  502 -0.00000000000E+00 -0.00000000000E+00 -0.61750923668E+02  0.61750923668E+02  0.00000000000E+00 0.  1.
          2    1    1    2  501    0 -0.16799023005E+02 -0.14239102842E+02 -0.22193379968E+01  0.22133338764E+02  0.00000000000E+00 0.  1.
         21    1    1    2  503  502  0.16799023005E+02  0.14239102842E+02 -0.47128981250E+02  0.52020189325E+02  0.00000000000E+00 0.  1.
</event>
<event>
 4    1  0.2293753E+005  0.5454443E+02  0.7546771E-02  0.1279587E+00
          2   -1    0    0  503    0  0.00000000000E+00  0.00000000000E+00  0.23162078872E+04  0.23162078872E+04  0.00000000000E+00 0.  1.
         21   -1    0    0  501  502 -0.00000000000E+00 -0.00000000000E+00 -0.38301212007E+02  0.38301212007E+02  0.00000000000E+00 0.  1.
          2    1    1    2  501    0 -0.11139004733E+02 -0.53394920315E+02  0.22962993688E+04  0.22969470795E+04  0.00000000000E+00 0.  1.
         21    1    1    2  503  502  0.11139004733E+02  0.53394920315E+02 -0.18392693547E+02  0.57562019751E+02  0.00000000000E+00 0.  1.
</event>
<event>
 4    1  0.2293753E+005  0.2652382E+02  0.7546771E-02  0.1452451E+00
          2   -1    0    0  503    0  0.00000000000E+00  0.00000000000E+00  0.19687538478E+04  0.19687538478E+04  0.00000000000E+00 0.  1.
         21   -1    0    0  501  502 -0.00000000000E+00 -0.00000000000E+00 -0.16544046480E+01  0.16544046480E+01  0.00000000000E+00 0. -1.
          2    1    1    2  501    0 -0.30895453757E+01 -0.26343263634E+02  0.18558907615E+04  0.18560802869E+04  0.00000000000E+00 0.  1.
         21    1    1    2  503  502  0.30895453757E+01  0.26343263634E+02  0.11120868164E+03  0.11432796552E+03  0.00000000000E+00 0. -1.
</event>
<event>
 4    1  0.2293753E+005  0.2199884E+02  0.7546771E-02  0.1505467E+00
          2   -1    0    0  503    0  0.00000000000E+00  0.00000000000E+00  0.14471373649E+03  0.14471373649E+03  0.00000000000E+00 0. -1.
         21   -1    0    0  501  502 -0.00000000000E+00 -0.00000000000E+00 -0.60278432233E+01  0.60278432233E+01  0.00000000000E+00 0. -1.
          2    1    1    2  501    0 -0.12289001874E+02  0.18246356776E+02  0.11963344289E+03  0.12163926077E+03  0.00000000000E+00 0. -1.
         21    1    1    2  503  502  0.12289001874E+02 -0.18246356776E+02  0.19052450381E+02  0.29102318949E+02  0.00000000000E+00 0. -1.
</event>
<event>
 4    1  0.2293753E+005  0.3707406E+02  0.7546771E-02  0.1366541E+00
          2   -1    0    0  503    0  0.00000000000E+00  0.00000000000E+00  0.70882588439E+01  0.70882588439E+01  0.00000000000E+00 0. -1.
         21   -1    0    0  501  502 -0.00000000000E+00 -0.00000000000E+00 -0.19678047615E+03  0.19678047615E+03  0.00000000000E+00 0. -1.
          2    1    1    2  501    0 -0.28029554029E+02  0.24265819744E+02 -0.82535227018E+02  0.90479553523E+02  0.00000000000E+00 0. -1.
         21    1    1    2  503  502  0.28029554029E+02 -0.24265819744E+02 -0.10715699029E+03  0.11338918147E+03  0.00000000000E+00 0. -1.
</event>
<event>
 4    1  0.2293753E+005  0.2622168E+02  0.7546771E-02  0.1455587E+00
          2   -1    0    0  502    0  0.00000000000E+00  0.00000000000E+00  0.15604989603E+04  0.15604989603E+04  0.00000000000E+00 0.  1.
         21   -1    0    0  503  502 -0.00000000000E+00 -0.00000000000E+00 -0.23134657795E+01  0.23134657795E+01  0.00000000000E+00 0. -1.
          2    1    1    2  501    0  0.21290243733E+02 -0.15306922900E+02  0.14821604085E+04  0.14823923411E+04  0.00000000000E+00 0.  1.
         21    1    1    2  503  501 -0.21290243733E+02  0.15306922900E+02  0.76025086010E+02  0.80420084989E+02  0.00000000000E+00 0. -1.
</event>
<event>
 4    1  0.2293753E+005  0.2922430E+02  0.7546771E-02  0.1426459E+00
          2   -1    0    0  503    0  0.00000000000E+00  0.00000000000E+00  0.52779684283E+03  0.52779684283E+03  0.00000000000E+00 0. -1.
         21   -1    0    0  501  502 -0.00000000000E+00 -0.00000000000E+00 -0.28715834192E+01  0.28715834192E+01  0.00000000000E+00 0. -1.
          2    1    1    2  501    0  0.12012221023E+02 -0.26641442337E+02  0.87162844891E+02  0.91931612807E+02  0.00000000000E+00 0. -1.
         21    1    1    2  503  502 -0.12012221023E+02  0.26641442337E+02  0.43776241452E+03  0.43873681344E+03  0.00000000000E+00 0. -1.
</event>
<event>
 4    1  0.2293753E+005  0.2065669E+02  0.7546771E-02  0.1524223E+00
          2   -1    0    0  502    0  0.00000000000E+00  0.00000000000E+00  0.47812873822E+01  0.47812873822E+01  0.00000000000E+00 0.  1.
         21   -1    0    0  503  502 -0.00000000000E+00 -0.00000000000E+00 -0.21132870057E+03  0.21132870057E+03  0.00000000000E+00 0. -1.
          2    1    1    2  501    0  0.14209440596E+02 -0.14993014507E+02 -0.21144587878E+02  0.29559977717E+02  0.00000000000E+00 0.  1.
         21    1    1    2  503  501 -0.14209440596E+02  0.14993014507E+02 -0.18540282530E+03  0.18655001023E+03  0.00000000000E+00 0. -1.
</event>
<event>
 4    1  0.2293753E+005  0.2364973E+02  0.7546771E-02  0.1484497E+00
          2   -1    0    0  503    0  0.00000000000E+00  0.00000000000E+00  0.14833858422E+04  0.14833858422E+04  0.00000000000E+00 0. -1.
         21   -1    0    0  501  502 -0.00000000000E+00 -0.00000000000E+00 -0.99945818419E+00  0.99945818419E+00  0.00000000000E+00 0.  1.
          2    1    1    2  501    0  0.21567323886E+02 -0.97036303459E+01  0.13268890518E+04  0.13270997949E+04  0.00000000000E+00 0. -1.
         21    1    1    2  503  502 -0.21567323886E+02  0.97036303459E+01  0.15549733220E+03  0.15728550545E+03  0.00000000000E+00 0.  1.
</event>
<event>
 4    1  0.2293753E+005  0.5571596E+02  0.7546771E-02  0.1275127E+00
          2   -1    0    0  503    0  0.00000000000E+00  0.00000000000E+00  0.65666982853E+03  0.65666982853E+03  0.00000000000E+00 0.  1.
         21   -1    0    0  501  502 -0.00000000000E+00 -0.00000000000E+00 -0.86654394644E+02  0.86654394644E+02  0.00000000000E+00 0. -1.
          2    1    1    2  501    0  0.16852673571E+02  0.53106078238E+02  0.64638995183E+03  0.64878674307E+03  0.00000000000E+00 0.  1.
         21    1    1    2  503  502 -0.16852673571E+02 -0.53106078238E+02 -0.76374517949E+02  0.94537480103E+02  0.00000000000E+00 0. -1.
</event>
<event>
 4    1  0.2293753E+005  0.2020865E+02  0.7546771E-02  0.1530870E+00
          2   -1    0    0  503    0  0.00000000000E+00  0.00000000000E+00  0.15631352936E+03  0.15631352936E+03  0.00000000000E+00 0. -1.
         21   -1    0    0  501  502 -0.00000000000E+00 -0.00000000000E+00 -0.40670572773E+02  0.40670572773E+02  0.00000000000E+00 0. -1.
          2    1    1    2  501    0  0.17060071075E+02  0.10832519758E+02  0.15309751612E+03  0.15442551263E+03  0.00000000000E+00 0. -1.
         21    1    1    2  503  502 -0.17060071075E+02 -0.10832519758E+02 -0.37454559540E+02  0.42558589494E+02  0.00000000000E+00 0. -1.
</event>
<event>
 4    1  0.2293753E+005  0.3710672E+02  0.7546771E-02  0.1366329E+00
          2   -1    0    0  503    0  0.00000000000E+00  0.00000000000E+00  0.15563854700E+03  0.15563854700E+03  0.00000000000E+00 0. -1.
         21   -1    0    0  501  502 -0.00000000000E+00 -0.00000000000E+00 -0.13790918868E+02  0.13790918868E+02  0.00000000000E+00 0.  1.
          2    1    1    2  501    0 -0.30175998167E+02  0.21594389197E+02  0.12164685341E+03  0.12718044447E+03  0.00000000000E+00 0. -1.
         21    1    1    2  503  502  0.30175998167E+02 -0.21594389197E+02  0.20200774726E+02  0.42249021405E+02  0.00000000000E+00 0.  1.
</event>
<event>
 4    1  0.2293753E+005  0.5206321E+02  0.7546771E-02  0.1289467E+00
          2   -1    0    0  502    0  0.00000000000E+00  0.00000000000E+00  0.31757446686E+02  0.31757446686E+02  0.00000000000E+00 0.  1.
         21   -1    0    0  503  502 -0.00000000000E+00 -0.00000000000E+00 -0.98656115367E+02  0.98656115367E+02  0.00000000000E+00 0. -1.
          2    1    1    2  501    0 -0.19287267255E+02 -0.48358858311E+02 -0.95043036943E+01  0.52923620851E+02  0.00000000000E+00 0.  1.
         21    1    1    2  503  501  0.19287267255E+02  0.48358858311E+02 -0.57394364987E+02  0.77489941202E+02  0.00000000000E+00 0. -1.
</event>
<event>
 4    1  0.2293753E+005  0.2775657E+02  0.7546771E-02  0.1440153E+00
          2   -1    0    0  503    0  0.00000000000E+00  0.00000000000E+00  0.37997570438E+03  0.37997570438E+03  0.00000000000E+00 0.  1.
         21   -1    0    0  501  502 -0.00000000000E+00 -0.00000000000E+00 -0.36997601120E+01  0.36997601120E+01  0.00000000000E+00 0.  1.
          2    1    1    2  501    0  0.20698540164E+02 -0.18493180834E+02  0.31710838408E+03  0.31832083588E+03  0.00000000000E+00 0.  1.
         21    1    1    2  503  502 -0.20698540164E+02  0.18493180834E+02  0.59167560191E+02  0.65354628613E+02  0.00000000000E+00 0.  1.
</event>
<event>
 4    1  0.2293753E+005  0.2304428E+02  0.7546771E-02  0.1491943E+00
          2   -1    0    0  503    0  0.00000000000E+00  0.00000000000E+00  0.86891317286E+03  0.86891317286E+03  0.00000000000E+00 0.  1.
         21   -1    0    0  501  502 -0.00000000000E+00 -0.00000000000E+00 -0.61261022418E+00  0.61261022418E+00  0.00000000000E+00 0.  1.
          2    1    1    2  501    0  0.59744428999E+01 -0.22256340011E+02  0.41294387709E+03  0.41358636857E+03  0.00000000000E+00 0.  1.
         21    1    1    2  503  502 -0.59744428999E+01  0.22256340011E+02  0.45535668554E+03  0.45593941452E+03  0.00000000000E+00 0.  1.
</event>
<event>
 4    1  0.2293753E+005  0.3562369E+02  0.7546771E-02  0.1376231E+00
          2   -1    0    0  502    0  0.00000000000E+00  0.00000000000E+00  0.16575925554E+03  0.16575925554E+03  0.00000000000E+00 0.  1.
         21   -1    0    0  503  502 -0.00000000000E+00 -0.00000000000E+00 -0.20421738652E+02  0.20421738652E+02  0.00000000000E+00 0.  1.
          2    1    1    2  501    0 -0.35048356674E+02 -0.63765172084E+01  0.14626955929E+03  0.15054511368E+03  0.00000000000E+00 0.  1.
         21    1    1    2  503  501  0.35048356674E+02  0.63765172084E+01 -0.93204239838E+00  0.35635880518E+02  0.00000000000E+00 0.  1.
</event>
<event>
 4    1  0.2293753E+005  0.2155520E+02  0.7546771E-02  0.1511484E+00
          2   -1    0    0  502    0  0.00000000000E+00  0.00000000000E+00  0.10840824081E+02  0.10840824081E+02  0.00000000000E+00 0.  1.
         21   -1    0    0  503  502 -0.00000000000E+00 -0.00000000000E+00 -0.38161622428E+03  0.38161622428E+03  0.00000000000E+00 0.  1.
          2    1    1    2  501    0  0.21304086334E+02 -0.32806577157E+01 -0.50639025049E+00  0.21561151190E+02  0.00000000000E+00 0.  1.
         21    1    1    2  503  501 -0.21304086334E+02  0.32806577157E+01 -0.37026900995E+03  0.37089589717E+03  0.00000000000E+00 0.  1.
</event>
<event>
 4    1  0.2293753E+005  0.2371700E+02  0.7546771E-02  0.1483686E+00
          2   -1    0    0  502    0  0.00000000000E+00  0.00000000000E+00  0.47792760609E+03  0.47792760609E+03  0.00000000000E+00 0.  1.
         21   -1    0    0  503  502 -0.00000000000E+00 -0.00000000000E+00 -0.94766224975E+01  0.94766224975E+01  0.00000000000E+00 0. -1.
          2    1    1    2  501    0  0.23314077645E+02 -0.43531677763E+01  0.46229279005E+03  0.46290076692E+03  0.00000000000E+00 0.  1.
         21    1    1    2  503  501 -0.23314077645E+02  0.43531677763E+01  0.61581935506E+01  0.24503461672E+02  0.00000000000E+00 0. -1.
</event>
<event>
 4    1  0.2293753E+005  0.2935823E+02  0.7546771E-02  0.1425257E+00
          2   -1    0    0  503    0  0.00000000000E+00  0.00000000000E+00  0.51800184043E+03  0.51800184043E+03  0.00000000000E+00 0.  1.
         21   -1    0    0  501  502 -0.00000000000E+00 -0.00000000000E+00 -0.45014456177E+01  0.45014456177E+01  0.00000000000E+00 0.  1.
          2    1    1    2  501    0 -0.18065652515E+02 -0.23141696339E+02  0.46417183631E+03  0.46509934373E+03  0.00000000000E+00 0.  1.
         21    1    1    2  503  502  0.18065652515E+02  0.23141696339E+02  0.49328558502E+02  0.57403942322E+02  0.00000000000E+00 0.  1.
</event>
<event>
 4    1  0.2293753E+005  0.3177618E+02  0.7546771E-02  0.1404765E+00
          2   -1    0    0  503    0  0.00000000000E+00  0.00000000000E+00  0.45941463692E+02  0.45941463692E+02  0.00000000000E+00 0. -1.
         21   -1    0    0  501  502 -0.00000000000E+00 -0.00000000000E+00 -0.80481099907E+02  0.80481099907E+02  0.00000000000E+00 0.  1.
          2    1    1    2  501    0  0.21414644391E+02  0.23476339987E+02  0.36623527192E+02  0.48487197047E+02  0.00000000000E+00 0. -1.
         21    1    1    2  503  502 -0.21414644391E+02 -0.23476339987E+02 -0.71163163407E+02  0.77935366552E+02  0.00000000000E+00 0.  1.
</event>
<event>
 4    1  0.2293753E+005  0.3950087E+02  0.7546771E-02  0.1351436E+00
          2   -1    0    0  502    0  0.00000000000E+00  0.00000000000E+00  0.10280423233E+04  0.10280423233E+04  0.00000000000E+00 0. -1.
         21   -1    0    0  503  502 -0.00000000000E+00 -0.00000000000E+00 -0.22075218539E+01  0.22075218539E+01  0.00000000000E+00 0.  1.
          2    1    1    2  501    0 -0.20740787567E+01  0.39446376622E+02  0.80086309422E+03  0.80183665052E+03  0.00000000000E+00 0. -1.
         21    1    1    2  503  501  0.20740787567E+01 -0.39446376622E+02  0.22497170724E+03  0.22841319465E+03  0.00000000000E+00 0.  1.
</event>
<event>
 4    1  0.2293753E+005  0.2919800E+02  0.7546771E-02  0.1426696E+00
          2   -1    0    0  502    0  0.00000000000E+00  0.00000000000E+00  0.20873357876E+04  0.20873357876E+04  0.00000000000E+00 0.  1.
         21   -1    0    0  503  502 -0.00000000000E+00 -0.00000000000E+00 -0.45276161975E+00  0.45276161975E+00  0.00000000000E+00 0. -1.
          2    1    1    2  501    0 -0.12696883796E+02 -0.26292819460E+02  0.13701013511E+04  0.13704124326E+04  0.00000000000E+00 0.  1.
         21    1    1    2  503  501  0.12696883796E+02  0.26292819460E+02  0.71678167491E+03  0.71737611662E+03  0.00000000000E+00 0. -1.
</event>
<event>
 4    1  0.2293753E+005  0.3797388E+02  0.7546771E-02  0.1360786E+00
          2   -1    0    0  503    0  0.00000000000E+00  0.00000000000E+00  0.21546291708E+04  0.21546291708E+04  0.00000000000E+00 0. -1.
         21   -1    0    0  501  502 -0.00000000000E+00 -0.00000000000E+00 -0.76604113194E+00  0.76604113194E+00  0.00000000000E+00 0. -1.
          2    1    1    2  501    0 -0.23302925265E+02 -0.29983151605E+02  0.14599831640E+04  0.14604769272E+04  0.00000000000E+00 0. -1.
         21    1    1    2  503  502  0.23302925265E+02  0.29983151605E+02  0.69387996573E+03  0.69491828480E+03  0.00000000000E+00 0. -1.
</event>
<event>
 4    1  0.2293753E+005  0.3355928E+02  0.7546771E-02  0.1390985E+00
          2   -1    0    0  502    0  0.00000000000E+00  0.00000000000E+00  0.35747006777E+03  0.35747006777E+03  0.00000000000E+00 0.  1.
         21   -1    0    0  503  502 -0.00000000000E+00 -0.00000000000E+00 -0.40199345344E+01  0.40199345344E+01  0.00000000000E+00 0.  1.
          2    1    1    2  501    0  0.19886579605E+02  0.27032370710E+02  0.26078021169E+03  0.26293068274E+03  0.00000000000E+00 0.  1.
         21    1    1    2  503  501 -0.19886579605E+02 -0.27032370710E+02  0.92669921538E+02  0.98559319562E+02  0.00000000000E+00 0.  1.
</event>
<event>
 4    1  0.2293753E+005  0.2531407E+02  0.7546771E-02  0.1465320E+00
          2   -1    0    0  502    0  0.00000000000E+00  0.00000000000E+00  0.68504932268E+03  0.68504932268E+03  0.00000000000E+00 0. -1.
         21   -1    0    0  503  502 -0.00000000000E+00 -0.00000000000E+00 -0.11467398738E+01  0.11467398738E+01  0.00000000000E+00 0. -1.
          2    1    1    2  501    0 -0.17171493540E+02  0.18599513203E+02  0.48923885346E+03  0.48989331269E+03  0.00000000000E+00 0. -1.
         21    1    1    2  503  501  0.17171493540E+02 -0.18599513203E+02  0.19466372934E+03  0.19630274986E+03  0.00000000000E+00 0. -1.
</event>
<event>
 4    1  0.2293753E+005  0.2399768E+02  0.7546771E-02  0.1480336E+00
          2   -1    0    0  503    0  0.00000000000E+00  0.00000000000E+00  0.39479175924E+02  0.39479175924E+02  0.00000000000E+00 0. -1.
         21   -1    0    0  501  502 -0.00000000000E+00 -0.00000000000E+00 -0.21333651778E+03  0.21333651778E+03  0.00000000000E+00 0.  1.
          2    1    1    2  501    0 -0.21325947994E+02  0.11004210715E+02  0.35081015075E+02  0.42503721367E+02  0.00000000000E+00 0. -1.
         21    1    1    2  503  502  0.21325947994E+02 -0.11004210715E+02 -0.20893835693E+03  0.21031197234E+03  0.00000000000E+00 0.  1.
</event>
<event>
 4    1  0.2293753E+005  0.2018055E+02  0.7546771E-02  0.1531293E+00
          2   -1    0    0  502    0  0.00000000000E+00  0.00000000000E+00  0.14027808445E+04  0.14027808445E+04  0.00000000000E+00 0. -1.
         21   -1    0    0  503  502 -0.00000000000E+00 -0.00000000000E+00 -0.15271238932E+01  0.15271238932E+01  0.00000000000E+00 0. -1.
          2    1    1    2  501    0  0.16884715560E+02 -0.11052639734E+02  0.13325230828E+04  0.13326758874E+04  0.00000000000E+00 0. -1.
         21    1    1    2  503  501 -0.16884715560E+02  0.11052639734E+02  0.68730637791E+02  0.71632081052E+02  0.00000000000E+00 0. -1.
</event>
<event>
 4    1  0.2293753E+005  0.2125969E+02  0.7546771E-02  0.1515589E+00
          2   -1    0    0  502    0  0.00000000000E+00  0.00000000000E+00  0.12104824324E+04  0.12104824324E+04  0.00000000000E+00 0. -1.
         21   -1    0    0  503  502 -0.00000000000E+00 -0.00000000000E+00 -0.10584412431E+02  0.10584412431E+02  0.00000000000E+00 0. -1.
          2    1    1    2  501    0  0.66919333946E+01 -0.20179014021E+02  0.11996169247E+04  0.11998052928E+04  0.00000000000E+00 0. -1.
         21    1    1    2  503  501 -0.66919333946E+01  0.20179014021E+02  0.28109523952E+00  0.21261552012E+02  0.00000000000E+00 0. -1.
</event>
<event>
 4    1  0.2293753E+005  0.8376172E+02  0.7546771E-02  0.1195374E+00
          2   -1    0    0  502    0  0.00000000000E+00  0.00000000000E+00  0.33241732926E+04  0.33241732926E+04  0.00000000000E+00 0. -1.
         21   -1    0    0  503  502 -0.00000000000E+00 -0.00000000000E+00 -0.21768110855E+03  0.21768110855E+03  0.00000000000E+00 0.  1.
          2    1    1    2  501    0  0.55901461593E+02 -0.62378301716E+02  0.33155670404E+04  0.33166249148E+04  0.00000000000E+00 0. -1.
         21    1    1    2  503  501 -0.55901461593E+02  0.62378301716E+02 -0.20907485640E+03  0.22522948633E+03  0.00000000000E+00 0.  1.
</event>
<event>
 4    1  0.2293753E+005  0.3591668E+02  0.7546771E-02  0.1374231E+00
          2   -1    0    0  503    0  0.00000000000E+00  0.00000000000E+00  0.76105366611E+03  0.76105366611E+03  0.00000000000E+00 0.  1.
         21   -1    0    0  501  502 -0.00000000000E+00 -0.00000000000E+00 -0.83152677461E+01  0.83152677461E+01  0.00000000000E+00 0.  1.
          2    1    1    2  501    0 -0.27792522500E+02  0.22750471340E+02  0.71961351023E+03  0.72050927292E+03  0.00000000000E+00 0.  1.
         21    1    1    2  503  502  0.27792522500E+02 -0.22750471340E+02  0.33124888129E+02  0.48859660935E+02  0.00000000000E+00 0.  1.
</event>
<event>
 4    1  0.2293753E+005  0.5692315E+02  0.7546771E-02  0.1270661E+00
          2   -1    0    0  502    0  0.00000000000E+00  0.00000000000E+00  0.32490961167E+03  0.32490961167E+03  0.00000000000E+00 0.  1.
         21   -1    0    0  503  502 -0.00000000000E+00 -0.00000000000E+00 -0.65179371945E+03  0.65179371945E+03  0.00000000000E+00 0. -1.
          2    1    1    2  501    0 -0.30018445772E+02  0.48364629713E+02  0.32115920321E+03  0.32616480236E+03  0.00000000000E+00 0.  1.
         21    1    1    2  503  501  0.30018445772E+02 -0.48364629713E+02 -0.64804331099E+03  0.65053852876E+03  0.00000000000E+00 0. -1.
</event>
<event>
 4    1  0.2293753E+005  0.2175260E+02  0.7546771E-02  0.1508785E+00
          2   -1    0    0  502    0  0.00000000000E+00  0.00000000000E+00  0.76013064606E+00  0.76013064606E+00  0.00000000000E+00 0. -1.
         21   -1    0    0  503  502 -0.00000000000E+00 -0.00000000000E+00 -0.12260239418E+04  0.12260239418E+04  0.00000000000E+00 0.  1.
          2    1    1    2  501    0 -0.18043335877E+02  0.12149626625E+02 -0.18226514984E+03  0.18355860165E+03  0.00000000000E+00 0. -1.
         21    1    1    2  503  501  0.18043335877E+02 -0.12149626625E+02 -0.10429986613E+04  0.10432254708E+04  0.00000000000E+00 0.  1.
</event>
<event>
 4    1  0.2293753E+005  0.3575852E+02  0.7546771E-02  0.1375308E+00
          2   -1    0    0  502    0  0.00000000000E+00  0.00000000000E+00  0.17691404457E+04  0.17691404457E+04  0.00000000000E+00 0. -1.
         21   -1    0    0  503  502 -0.00000000000E+00 -0.00000000000E+00 -0.25525527869E+01  0.25525527869E+01  0.00000000000E+00 0. -1.
          2    1    1    2  501    0  0.12894726538E+02  0.33352632687E+02  0.16333116547E+04  0.16337030432E+04  0.00000000000E+00 0. -1.
         21    1    1    2  503  501 -0.12894726538E+02 -0.33352632687E+02  0.13327623821E+03  0.13798995526E+03  0.00000000000E+00 0. -1.
</event>
<event>
 4    1  0.2293753E+005  0.3562086E+02  0.7546771E-02  0.1376250E+00
          2   -1    0    0  503    0  0.00000000000E+00  0.00000000000E+00  0.17159739859E+04  0.17159739859E+04  0.00000000000E+00 0. -1.
         21   -1    0    0  501  502 -0.00000000000E+00 -0.00000000000E+00 -0.18378449525E+01  0.18378449525E+01  0.00000000000E+00 0.  1.
          2    1    1    2  501    0  0.19262732829E+02 -0.29963186935E+02  0.15210772053E+04  0.15214942359E+04  0.00000000000E+00 0. -1.
         21    1    1    2  503  502 -0.19262732829E+02  0.29963186935E+02  0.19305893559E+03  0.19631759488E+03  0.00000000000E+00 0.  1.
</event>
<event>
 4    1  0.2293753E+005  0.2008469E+02  0.7546771E-02  0.1532745E+00
          2   -1    0    0  503    0  0.00000000000E+00  0.00000000000E+00  0.24024166697E+02  0.24024166697E+02  0.00000000000E+00 0. -1.
         21   -1    0    0  501  502 -0.00000000000E+00 -0.00000000000E+00 -0.26205481198E+02  0.26205481198E+02  0.00000000000E+00 0.  1.
          2    1    1    2  501    0  0.19968987057E+02  0.21527405499E+01  0.13962496922E+02  0.24461113144E+02  0.00000000000E+00 0. -1.
         21    1    1    2  503  502 -0.19968987057E+02 -0.21527405499E+01 -0.16143811423E+02  0.25768534751E+02  0.00000000000E+00 0.  1.
</event>
<event>
 4    1  0.2293753E+005  0.2000781E+02  0.7546771E-02  0.1533916E+00
          2   -1    0    0  503    0  0.00000000000E+00  0.00000000000E+00  0.12540579682E+04  0.12540579682E+04  0.00000000000E+00 0. -1.
         21   -1    0    0  501  502 -0.00000000000E+00 -0.00000000000E+00 -0.82804667540E+00  0.82804667540E+00  0.00000000000E+00 0. -1.
          2    1    1    2  501    0 -0.12723812914E+02 -0.15440755267E+02  0.11184670818E+04  0.11186460233E+04  0.00000000000E+00 0. -1.
         21    1    1    2  503  502  0.12723812914E+02  0.15440755267E+02  0.13476283973E+03  0.13623999160E+03  0.00000000000E+00 0. -1.
</event>
<event>
 4    1  0.2293753E+005  0.2842109E+02  0.7546771E-02  0.1433833E+00
          2   -1    0    0  502    0  0.00000000000E+00  0.00000000000E+00  0.27898611295E+03  0.27898611295E+03  0.00000000000E+00 0. -1.
         21   -1    0    0  503  502 -0.00000000000E+00 -0.00000000000E+00 -0.33116890570E+01  0.33116890570E+01  0.00000000000E+00 0. -1.
          2    1    1    2  501    0 -0.16514801031E+02  0.23130490940E+02  0.18788491060E+03  0.19002236157E+03  0.00000000000E+00 0. -1.
         21    1    1    2  503  501  0.16514801031E+02 -0.23130490940E+02  0.87789513293E+02  0.92275440440E+02  0.00000000000E+00 0. -1.
</event>
<event>
 4    1  0.2293753E+005  0.2287388E+02  0.7546771E-02  0.1494088E+00
          2   -1    0    0  502    0  0.00000000000E+00  0.00000000000E+00  0.98562903374E+03  0.98562903374E+03  0.00000000000E+00 0.  1.
         21   -1    0    0  503  502 -0.00000000000E+00 -0.00000000000E+00 -0.54991334658E+00  0.54991334658E+00  0.00000000000E+00 0. -1.
          2    1    1    2  501    0  0.12031623827E+02  0.19453906608E+02  0.58436347454E+03  0.58481098214E+03  0.00000000000E+00 0.  1.
         21    1    1    2  503  501 -0.12031623827E+02 -0.19453906608E+02  0.40071564584E+03  0.40136796494E+03  0.00000000000E+00 0. -1.
</event>
<event>
 4    1  0.2293753E+005  0.2060444E+02  0.7546771E-02  0.1524988E+00
          2   -1    0    0  502    0  0.00000000000E+00  0.00000000000E+00  0.13253589111E+04  0.13253589111E+04  0.00000000000E+00 0.  1.
         21   -1    0    0  503  502 -0.00000000000E+00 -0.00000000000E+00 -0.11865352945E+01  0.11865352945E+01  0.00000000000E+00 0.  1.
          2    1    1    2  501    0 -0.13275269776E+02 -0.15757860381E+02  0.12288002342E+04  0.12289729690E+04  0.00000000000E+00 0.  1.
         21    1    1    2  503  501  0.13275269776E+02  0.15757860381E+02  0.95372141612E+02  0.97572477406E+02  0.00000000000E+00 0.  1.
</event>
<event>
 4    1  0.2293753E+005  0.4141470E+02  0.7546771E-02  0.1340389E+00
          2   -1    0    0  503    0  0.00000000000E+00  0.00000000000E+00  0.87393896624E+02  0.87393896624E+02  0.00000000000E+00 0.  1.
         21   -1    0    0  501  502 -0.00000000000E+00 -0.00000000000E+00 -0.62887064432E+03  0.62887064432E+03  0.00000000000E+00 0.  1.
          2    1    1    2  501    0 -0.17680754639E+02 -0.37450873032E+02  0.81761299377E+02  0.91651988801E+02  0.00000000000E+00 0.  1.
         21    1    1    2  503  502  0.17680754639E+02  0.37450873032E+02 -0.62323804708E+03  0.62461255215E+03  0.00000000000E+00 0.  1.
</event>
<event>
 4    1  0.2293753E+005  0.2625220E+02  0.7546771E-02  0.1455268E+00
          2   -1    0    0  503    0  0.00000000000E+00  0.00000000000E+00  0.59893982721E+03  0.59893982721E+03  0.00000000000E+00 0. -1.
         21   -1    0    0  501  502 -0.00000000000E+00 -0.00000000000E+00 -0.12177588189E+01  0.12177588189E+01  0.00000000000E+00 0.  1.
          2    1    1    2  501    0 -0.26084118412E+02 -0.29659369375E+01  0.36929818174E+03  0.37023009744E+03  0.00000000000E+00 0. -1.
         21    1    1    2  503  502  0.26084118412E+02  0.29659369375E+01  0.22842388665E+03  0.22992748859E+03  0.00000000000E+00 0.  1.
</event>
<event>
 4    1  0.2293753E+005  0.5877638E+02  0.7546771E-02  0.1264048E+00
          2   -1    0    0  502    0  0.00000000000E+00  0.00000000000E+00  0.39351365080E+03  0.39351365080E+03  0.00000000000E+00 0.  1.
         21   -1    0    0  503  502 -0.00000000000E+00 -0.00000000000E+00 -0.55752087821E+02  0.55752087821E+02  0.00000000000E+00 0. -1.
          2    1    1    2  501    0 -0.19087652767E+02  0.55590683615E+02  0.37507060088E+03  0.37964801888E+03  0.00000000000E+00 0.  1.
         21    1    1    2  503  501  0.19087652767E+02 -0.55590683615E+02 -0.37309037903E+02  0.69617719742E+02  0.00000000000E+00 0. -1.
</event>
<event>
 4    1  0.2293753E+005  0.3047552E+02  0.7546771E-02  0.1415508E+00
          2   -1    0    0  502    0  0.00000000000E+00  0.00000000000E+00  0.11715986140E+03  0.11715986140E+03  0.00000000000E+00 0. -1.
         21   -1    0    0  503  502 -0.00000000000E+00 -0.00000000000E+00 -0.89613407101E+02  0.89613407101E+02  0.00000000000E+00 0.  1.
          2    1    1    2  501    0  0.14850023292E+02 -0.26612667966E+02  0.11248116857E+03  0.11653656324E+03  0.00000000000E+00 0. -1.
         21    1    1    2  503  501 -0.14850023292E+02  0.26612667966E+02 -0.84934714273E+02  0.90236705263E+02  0.00000000000E+00 0.  1.
</event>
<event>
 4    1  0.2293753E+005  0.2351903E+02  0.7546771E-02  0.1486081E+00
          2   -1    0    0  503    0  0.00000000000E+00  0.00000000000E+00  0.99153342575E+03  0.99153342575E+03  0.00000000000E+00 0. -1.
         21   -1    0    0  501  502 -0.00000000000E+00 -0.00000000000E+00 -0.28879156300E+02  0.28879156300E+02  0.00000000000E+00 0. -1.
          2    1    1    2  501    0  0.57894923946E+01  0.22795319819E+02  0.98658148409E+03  0.98686177836E+03  0.00000000000E+00 0. -1.
         21    1    1    2  503  502 -0.57894923946E+01 -0.22795319819E+02 -0.23927214643E+02  0.33550803692E+02  0.00000000000E+00 0. -1.
</event>
<event>
 4    1  0.2293753E+005  0.2171447E+02  0.7546771E-02  0.1509304E+00
          2   -1    0    0  502    0  0.00000000000E+00  0.00000000000E+00  0.74724773282E+03  0.74724773282E+03  0.00000000000E+00 0. -1.
         21   -1    0    0  503  502 -0.00000000000E+00 -0.00000000000E+00 -0.66693118580E+00  0.66693118580E+00  0.00000000000E+00 0. -1.
          2    1    1    2  501    0  0.17401842155E+02  0.12988227329E+02  0.46008209512E+03  0.46059423836E+03  0.00000000000E+00 0. -1.
         21    1    1    2  503  501 -0.17401842155E+02 -0.12988227329E+02  0.28649870651E+03  0.28732042564E+03  0.00000000000E+00 0. -1.
</event>
<event>
 4    1  0.2293753E+005  0.2296247E+02  0.7546771E-02  0.1492970E+00
          2   -1    0    0  503    0  0.00000000000E+00  0.00000000000E+00  0.67776947293E+03  0.67776947293E+03  0.00000000000E+00 0.  1.
         21   -1    0    0  501  502 -0.00000000000E+00 -0.00000000000E+00 -0.15830377208E+01  0.15830377208E+01  0.00000000000E+00 0.  1.
          2    1    1    2  501    0 -0.16592053047E+02 -0.15873841107E+02  0.58032964340E+03  0.58078375499E+03  0.00000000000E+00 0.  1.
         21    1    1    2  503  502  0.16592053047E+02  0.15873841107E+02  0.95856791810E+02  0.98568755658E+02  0.00000000000E+00 0.  1.
</event>
<event>
 4    1  0.2293753E+005  0.2243408E+02  0.7546771E-02  0.1499729E+00
          2   -1    0    0  503    0  0.00000000000E+00  0.00000000000E+00  0.36554031832E+03  0.36554031832E+03  0.00000000000E+00 0.  1.
         21   -1    0    0  501  502 -0.00000000000E+00 -0.00000000000E+00 -0.52732409676E+01  0.52732409676E+01  0.00000000000E+00 0.  1.
          2    1    1    2  501    0 -0.21814850002E+02  0.52345450785E+01  0.33950809451E+03  0.34024848917E+03  0.00000000000E+00 0.  1.
         21    1    1    2  503  502  0.21814850002E+02 -0.52345450785E+01  0.20758982841E+02  0.30565070119E+02  0.00000000000E+00 0.  1.
</event>
<event>
 4    1  0.2293753E+005  0.2186003E+02  0.7546771E-02  0.1507331E+00
          2   -1    0    0  503    0  0.00000000000E+00  0.00000000000E+00  0.12671634086E+04  0.12671634086E+04  0.00000000000E+00 0.  1.
         21   -1    0    0  501  502 -0.00000000000E+00 -0.00000000000E+00 -0.89184955874E+01  0.89184955874E+01  0.00000000000E+00 0.  1.
          2    1    1    2  501    0  0.20275330200E+02 -0.81714012633E+01  0.12535282170E+04  0.12537188089E+04  0.00000000000E+00 0.  1.
         21    1    1    2  503  502 -0.20275330200E+02  0.81714012633E+01  0.47166960374E+01  0.22363095376E+02  0.00000000000E+00 0.  1.
</event>
<event>
 4    1  0.2293753E+005  0.2338466E+02  0.7546771E-02  0.1487724E+00
          2   -1    0    0  503    0  0.00000000000E+00  0.00000000000E+00  0.95621214684E+03  0.95621214684E+03  0.00000000000E+00 0. -1.
         21   -1    0    0  501  502 -0.00000000000E+00 -0.00000000000E+00 -0.94542103019E+01  0.94542103019E+01  0.00000000000E+00 0.  1.
          2    1    1    2  501    0 -0.21664253854E+01 -0.23284088229E+02  0.94138111452E+03  0.94167151647E+03  0.00000000000E+00 0. -1.
         21    1    1    2  503  502  0.21664253854E+01  0.23284088229E+02  0.53768220169E+01  0.23994840667E+02  0.00000000000E+00 0.  1.
</event>
<event>
 4    1  0.2293753E+005  0.2625329E+02  0.7546771E-02  0.1455257E+00
          2   -1    0    0  502    0  0.00000000000E+00  0.00000000000E+00  0.57343930799E+02  0.57343930799E+02  0.00000000000E+00 0. -1.
         21   -1    0    0  503  502 -0.00000000000E+00 -0.00000000000E+00 -0.21002488794E+02  0.21002488794E+02  0.00000000000E+00 0. -1.
          2    1    1    2  501    0 -0.34992308409E+01  0.26019042828E+02  0.43790093823E+02  0.51056904755E+02  0.00000000000E+00 0. -1.
         21    1    1    2  503  501  0.34992308409E+01 -0.26019042828E+02 -0.74486518184E+01  0.27289514838E+02  0.00000000000E+00 0. -1.
</event>
<event>
 4    1  0.2293753E+005  0.2246406E+02  0.7546771E-02  0.1499340E+00
          2   -1    0    0  503    0  0.00000000000E+00  0.00000000000E+00  0.35098280366E+03  0.35098280366E+03  0.00000000000E+00 0. -1.
         21   -1    0    0  501  502 -0.00000000000E+00 -0.00000000000E+00 -0.50518105937E+01  0.50518105937E+01  0.00000000000E+00 0. -1.
          2    1    1    2  501    0  0.70919245279E+01 -0.21315216359E+02  0.32353429639E+03  0.32431323559E+03  0.00000000000E+00 0. -1.
         21    1    1    2  503  502 -0.70919245279E+01  0.21315216359E+02  0.22396696676E+02  0.31721378657E+02  0.00000000000E+00 0. -1.
</event>
<event>
 4    1  0.2293753E+005  0.2235569E+02  0.7546771E-02  0.1500751E+00
          2   -1    0    0  502    0  0.00000000000E+00  0.00000000000E+00  0.12925635529E+04  0.12925635529E+04  0.00000000000E+00 0. -1.
         21   -1    0    0  503  502 -0.00000000000E+00 -0.00000000000E+00 -0.88458403363E+02  0.88458403363E+02  0.00000000000E+00 0. -1.
          2    1    1    2  501    0  0.10222053268E+02 -0.19881814614E+02  0.12910527732E+04  0.12912463127E+04  0.00000000000E+00 0. -1.
         21    1    1    2  503  501 -0.10222053268E+02  0.19881814614E+02 -0.86947623628E+02  0.89775643578E+02  0.00000000000E+00 0. -1.
</event>
<event>
 4    1  0.2293753E+005  0.2016444E+02  0.7546771E-02  0.1531537E+00
          2   -1    0    0  503    0  0.00000000000E+00  0.00000000000E+00  0.46714932815E+03  0.46714932815E+03  0.00000000000E+00 0. -1.
         21   -1    0    0  501  502 -0.00000000000E+00 -0.00000000000E+00 -0.15301744844E+01  0.15301744844E+01  0.00000000000E+00 0. -1.
          2    1    1    2  501    0  0.69179920645E+01  0.18940591096E+02  0.38668695343E+03  0.38721235073E+03  0.00000000000E+00 0. -1.
         21    1    1    2  503  502 -0.69179920645E+01 -0.18940591096E+02  0.78932200232E+02  0.81467151901E+02  0.00000000000E+00 0. -1.
</event>
<event>
 4    1  0.2293753E+005  0.3112566E+02  0.7546771E-02  0.1410060E+00
          2   -1    0    0  503    0  0.00000000000E+00  0.00000000000E+00  0.83762744033E+03  0.83762744033E+03  0.00000000000E+00 0. -1.
         21   -1    0    0  501  502 -0.00000000000E+00 -0.00000000000E+00 -0.12637786251E+01  0.12637786251E+01  0.00000000000E+00 0. -1.
          2    1    1    2  501    0  0.14194335946E+02  0.27700673661E+02  0.54032755941E+03  0.54122331615E+03  0.00000000000E+00 0. -1.
         21    1    1    2  503  502 -0.14194335946E+02 -0.27700673661E+02  0.29603610230E+03  0.29766790280E+03  0.00000000000E+00 0. -1.
</event>
<event>
 4    1  0.2293753E+005  0.2045342E+02  0.7546771E-02  0.1527214E+00
          2   -1    0    0  503    0  0.00000000000E+00  0.00000000000E+00  0.58469660638E+01  0.58469660638E+01  0.00000000000E+00 0. -1.
         21   -1    0    0  501  502 -0.00000000000E+00 -0.00000000000E+00 -0.75228640166E+02  0.75228640166E+02  0.00000000000E+00 0. -1.
          2    1    1    2  501    0  0.20373878167E+02 -0.18020516202E+01 -0.25724930213E+02  0.32865092972E+02  0.00000000000E+00 0. -1.
         21    1    1    2  503  502 -0.20373878167E+02  0.18020516202E+01 -0.43656743889E+02  0.48210513258E+02  0.00000000000E+00 0. -1.
</event>
<event>
 4    1  0.2293753E+005  0.2675850E+02  0.7546771E-02  0.1450049E+00
          2   -1    0    0  502    0  0.00000000000E+00  0.00000000000E+00  0.38790097668E+03  0.38790097668E+03  0.00000000000E+00 0.  1.
         21   -1    0    0  503  502 -0.00000000000E+00 -0.00000000000E+00 -0.18652614845E+01  0.18652614845E+01  0.00000000000E+00 0.  1.
          2    1    1    2  501    0 -0.21695183553E+02  0.15663220699E+02  0.17315086912E+03  0.17520628114E+03  0.00000000000E+00 0.  1.
         21    1    1    2  503  501  0.21695183553E+02 -0.15663220699E+02  0.21288484608E+03  0.21455995703E+03  0.00000000000E+00 0.  1.
</event>
<event>
 4    1  0.2293753E+005  0.2542515E+02  0.7546771E-02  0.1464103E+00
          2   -1    0    0  503    0  0.00000000000E+00  0.00000000000E+00  0.14618015199E+04  0.14618015199E+04  0.00000000000E+00 0.  1.
         21   -1    0    0  501  502 -0.00000000000E+00 -0.00000000000E+00 -0.13712739084E+01  0.13712739084E+01  0.00000000000E+00 0.  1.
          2    1    1    2  501    0  0.27555086154E+01 -0.25275394869E+02  0.13323917372E+04  0.13326343008E+04  0.00000000000E+00 0.  1.
         21    1    1    2  503  502 -0.27555086154E+01  0.25275394869E+02  0.12803850885E+03  0.13053849303E+03  0.00000000000E+00 0.  1.
</event>
<event>
 4    1  0.2293753E+005  0.2264096E+02  0.7546771E-02  0.1497056E+00
          2   -1    0    0  503    0  0.00000000000E+00  0.00000000000E+00  0.51004999157E+03  0.51004999157E+03  0.00000000000E+00 0.  1.
         21   -1    0    0  501  502 -0.00000000000E+00 -0.00000000000E+00 -0.40153293632E+01  0.40153293632E+01  0.00000000000E+00 0. -1.
          2    1    1    2  501    0 -0.47795976766E+01 -0.22130716278E+02  0.47557005030E+03  0.47610869127E+03  0.00000000000E+00 0.  1.
         21    1    1    2  503  502  0.47795976766E+01  0.22130716278E+02  0.30464611899E+02  0.37956629659E+02  0.00000000000E+00 0. -1.
</event>
<event>
 4    1  0.2293753E+005  0.2631945E+02  0.7546771E-02  0.1454567E+00
          2   -1    0    0  503    0  0.00000000000E+00  0.00000000000E+00  0.89319068186E+03  0.89319068186E+03  0.00000000000E+00 0. -1.
         21   -1    0    0  501  502 -0.00000000000E+00 -0.00000000000E+00 -0.58958030884E+02  0.58958030884E+02  0.00000000000E+00 0.  1.
          2    1    1    2  501    0  0.25042592462E+02 -0.80982748691E+01  0.89004911296E+03  0.89043817133E+03  0.00000000000E+00 0. -1.
         21    1    1    2  503  502 -0.25042592462E+02  0.80982748691E+01 -0.55816461981E+02  0.61710541410E+02  0.00000000000E+00 0.  1.
</event>
<event>
 4    1  0.2293753E+005  0.3174671E+02  0.7546771E-02  0.1405001E+00
          2   -1    0    0  503    0  0.00000000000E+00  0.00000000000E+00  0.10493610296E+03  0.10493610296E+03  0.00000000000E+00 0.  1.
         21   -1    0    0  501  502 -0.00000000000E+00 -0.00000000000E+00 -0.96181651896E+01  0.96181651896E+01  0.00000000000E+00 0.  1.
          2    1    1    2  501    0 -0.27218054694E+02  0.16341083592E+02  0.45496040828E+02  0.55477412028E+02  0.00000000000E+00 0.  1.
         21    1    1    2  503  502  0.27218054694E+02 -0.16341083592E+02  0.49821896942E+02  0.59076856121E+02  0.00000000000E+00 0.  1.
</event>
<event>
 4    1  0.2293753E+005  0.2345048E+02  0.7546771E-02  0.1486918E+00
          2   -1    0    0  503    0  0.00000000000E+00  0.00000000000E+00  0.15986443610E+02  0.15986443610E+02  0.00000000000E+00 0. -1.
         21   -1    0    0  501  502 -0.00000000000E+00 -0.00000000000E+00 -0.98130893870E+02  0.98130893870E+02  0.00000000000E+00 0. -1.
          2    1    1    2  501    0  0.19662332984E+02  0.12779584152E+02  0.49105930501E+01  0.23959111703E+02  0.00000000000E+00 0. -1.
         21    1    1    2  503  502 -0.19662332984E+02 -0.12779584152E+02 -0.87055043310E+02  0.90158225777E+02  0.00000000000E+00 0. -1.
</event>
<event>
 4    1  0.2293753E+005  0.2282362E+02  0.7546771E-02  0.1494725E+00
          2   -1    0    0  502    0  0.00000000000E+00  0.00000000000E+00  0.67687470469E+03  0.67687470469E+03  0.00000000000E+00 0. -1.
         21   -1    0    0  503  502 -0.00000000000E+00 -0.00000000000E+00 -0.27066816507E+02  0.27066816507E+02  0.00000000000E+00 0.  1.
          2    1    1    2  501    0  0.72136259782E+01 -0.21653661548E+02  0.67183482040E+03  0.67222239130E+03  0.00000000000E+00 0. -1.
         21    1    1    2  503  501 -0.72136259782E+01  0.21653661548E+02 -0.22026932222E+02  0.31719129896E+02  0.00000000000E+00 0.  1.
</event>
<event>
 4    1  0.2293753E+005  0.2418656E+02  0.7546771E-02  0.1478113E+00
          2   -1    0    0  503    0  0.00000000000E+00  0.00000000000E+00  0.13170412310E+04  0.13170412310E+04  0.00000000000E+00 0.  1.
         21   -1    0    0  501  502 -0.00000000000E+00 -0.00000000000E+00 -0.34691439850E+03  0.34691439850E+03  0.00000000000E+00 0. -1.
          2    1    1    2  501    0  0.17509814137E+02  0.16685212042E+02  0.13165084515E+04  0.13167306075E+04  0.00000000000E+00 0.  1.
         21    1    1    2  503  502 -0.17509814137E+02 -0.16685212042E+02 -0.34638161902E+03  0.34722502198E+03  0.00000000000E+00 0. -1.
</event>
<event>
 4    1  0.2293753E+005  0.2475548E+02  0.7546771E-02  0.1471557E+00
          2   -1    0    0  502    0  0.00000000000E+00  0.00000000000E+00  0.15226407175E+03  0.15226407175E+03  0.00000000000E+00 0.  1.
         21   -1    0    0  503  502 -0.00000000000E+00 -0.00000000000E+00 -0.28435341982E+02  0.28435341982E+02  0.00000000000E+00 0.  1.
          2    1    1    2  501    0  0.76814168417E+00 -0.24743560210E+02  0.14562606275E+03  0.14771521237E+03  0.00000000000E+00 0.  1.
         21    1    1    2  503  501 -0.76814168417E+00  0.24743560210E+02 -0.21797332990E+02  0.32984201354E+02  0.00000000000E+00 0.  1.
</event>
<event>
 4    1  0.2293753E+005  0.2132370E+02  0.7546771E-02  0.1514693E+00
          2   -1    0    0  502    0  0.00000000000E+00  0.00000000000E+00  0.23048806034E+03  0.23048806034E+03  0.00000000000E+00 0. -1.
         21   -1    0    0  503  502 -0.00000000000E+00 -0.00000000000E+00 -0.66902741104E+01  0.66902741104E+01  0.00000000000E+00 0.  1.
          2    1    1    2  501    0  0.12806055805E+02 -0.17050072275E+02  0.21148051314E+03  0.21255283454E+03  0.00000000000E+00 0. -1.
         21    1    1    2  503  501 -0.12806055805E+02  0.17050072275E+02  0.12317273091E+02  0.24625499919E+02  0.00000000000E+00 0.  1.
</event>
<event>
 4    1  0.2293753E+005  0.3239327E+02  0.7546771E-02  0.1399878E+00
          2   -1    0    0  503    0  0.00000000000E+00  0.00000000000E+00  0.46175497033E+01  0.46175497033E+01  0.00000000000E+00 0.  1.
         21   -1    0    0  501  502 -0.00000000000E+00 -0.00000000000E+00 -0.22749412089E+03  0.22749412089E+03  0.00000000000E+00 0.  1.
          2    1    1    2  501    0 -0.16366418927E+02  0.27954681594E+02 -0.10761252621E+03  0.11238229259E+03  0.00000000000E+00 0.  1.
         21    1    1    2  503  502  0.16366418927E+02 -0.27954681594E+02 -0.11526404498E+03  0.11972937800E+03  0.00000000000E+00 0.  1.
</event>
<event>
 4    1  0.2293753E+005  0.9052271E+02  0.7546771E-02  0.1181328E+00
          2   -1    0    0  503    0  0.00000000000E+00  0.00000000000E+00  0.10598238639E+04  0.10598238639E+04  0.00000000000E+00 0.  1.
         21   -1    0    0  501  502 -0.00000000000E+00 -0.00000000000E+00 -0.14317945615E+02  0.14317945615E+02  0.00000000000E+00 0.  1.
          2    1    1    2  501    0 -0.21711274542E+02 -0.87880499430E+02  0.88700874110E+03  0.89161587492E+03  0.00000000000E+00 0.  1.
         21    1    1    2  503  502  0.21711274542E+02  0.87880499430E+02  0.15849717715E+03  0.18252593456E+03  0.00000000000E+00 0.  1.
</event>
<event>
 4    1  0.2293753E+005  0.2097765E+02  0.7546771E-02  0.1519584E+00
          2   -1    0    0  502    0  0.00000000000E+00  0.00000000000E+00  0.60531811718E+03  0.60531811718E+03  0.00000000000E+00 0. -1.
         21   -1    0    0  503  502 -0.00000000000E+00 -0.00000000000E+00 -0.22958358103E+01  0.22958358103E+01  0.00000000000E+00 0. -1.
          2    1    1    2  501    0 -0.17362798476E+02  0.11772642088E+02  0.55265183033E+03  0.55304982365E+03  0.00000000000E+00 0. -1.
         21    1    1    2  503  501  0.17362798476E+02 -0.11772642088E+02  0.50370451038E+02  0.54564129338E+02  0.00000000000E+00 0. -1.
</event>
<event>
 4    1  0.2293753E+005  0.4689824E+02  0.7546771E-02  0.1312211E+00
          2   -1    0    0  502    0  0.00000000000E+00  0.00000000000E+00  0.29277411069E+04  0.29277411069E+04  0.00000000000E+00 0. -1.
         21   -1    0    0  503  502 -0.00000000000E+00 -0.00000000000E+00 -0.54079597089E+02  0.54079597089E+02  0.00000000000E+00 0. -1.
          2    1    1    2  501    0  0.30867348407E+02 -0.35307950112E+02  0.29173494549E+04  0.29177263900E+04  0.00000000000E+00 0. -1.
         21    1    1    2  503  501 -0.30867348407E+02  0.35307950112E+02 -0.43687945129E+02  0.64094314010E+02  0.00000000000E+00 0. -1.
</event>
<event>
 4    1  0.2293753E+005  0.3227664E+02  0.7546771E-02  0.1400792E+00
          2   -1    0    0  502    0  0.00000000000E+00  0.00000000000E+00  0.21678462546E+04  0.21678462546E+04  0.00000000000E+00 0.  1.
         21   -1    0    0  503  502 -0.00000000000E+00 -0.00000000000E+00 -0.75696973527E+00  0.75696973527E+00  0.00000000000E+00 0. -1.
          2    1    1    2  501    0  0.17182130678E+02  0.27323168876E+02  0.17387646633E+04  0.17390642126E+04  0.00000000000E+00 0.  1.
         21    1    1    2  503  501 -0.17182130678E+02 -0.27323168876E+02  0.42832462153E+03  0.42953901171E+03  0.00000000000E+00 0. -1.
</event>
<event>
 4    1  0.2293753E+005  0.2000494E+02  0.7546771E-02  0.1533960E+00
          2   -1    0    0  502    0  0.00000000000E+00  0.00000000000E+00  0.75894214917E+03  0.75894214917E+03  0.00000000000E+00 0. -1.
         21   -1    0    0  503  502 -0.00000000000E+00 -0.00000000000E+00 -0.16022782138E+01  0.16022782138E+01  0.00000000000E+00 0.  1.
          2    1    1    2  501    0 -0.87929536132E+00 -0.19985609819E+02  0.69014511649E+03  0.69043499302E+03  0.00000000000E+00 0. -1.
         21    1    1    2  503  501  0.87929536132E+00  0.19985609819E+02  0.67194754461E+02  0.70109434367E+02  0.00000000000E+00 0.  1.
</event>
<event>
 4    1  0.2293753E+005  0.2446006E+02  0.7546771E-02  0.1474935E+00
          2   -1    0    0  502    0  0.00000000000E+00  0.00000000000E+00  0.12162718250E+04  0.12162718250E+04  0.00000000000E+00 0.  1.
         21   -1    0    0  503  502 -0.00000000000E+00 -0.00000000000E+00 -0.26275174792E+01  0.26275174792E+01  0.00000000000E+00 0. -1.
          2    1    1    2  501    0 -0.13586083075E+02 -0.20339936324E+02  0.11562692612E+04  0.11565279500E+04  0.00000000000E+00 0.  1.
         21    1    1    2  503  501  0.13586083075E+02  0.20339936324E+02  0.57375046281E+02  0.62371392471E+02  0.00000000000E+00 0. -1.
</event>
<event>
 4    1  0.2293753E+005  0.5687574E+02  0.7546771E-02  0.1270834E+00
          2   -1    0    0  502    0  0.00000000000E+00  0.00000000000E+00  0.86430497579E+03  0.86430497579E+03  0.00000000000E+00 0. -1.
         21   -1    0    0  503  502 -0.00000000000E+00 -0.00000000000E+00 -0.16829313959E+02  0.16829313959E+02  0.00000000000E+00 0.  1.
          2    1    1    2  501    0 -0.18295270202E+01  0.56846305676E+02  0.81223892875E+03  0.81422781026E+03  0.00000000000E+00 0. -1.
         21    1    1    2  503  501  0.18295270202E+01 -0.56846305676E+02  0.35236733081E+02  0.66906479479E+02  0.00000000000E+00 0.  1.
</event>
<event>
 4    1  0.2293753E+005  0.2983537E+02  0.7546771E-02  0.1421033E+00
          2   -1    0    0  502    0  0.00000000000E+00  0.00000000000E+00  0.74858025447E+03  0.74858025447E+03  0.00000000000E+00 0. -1.
         21   -1    0    0  503  502 -0.00000000000E+00 -0.00000000000E+00 -0.41380253510E+02  0.41380253510E+02  0.00000000000E+00 0.  1.
          2    1    1    2  501    0 -0.27555663675E+02 -0.11438289381E+02  0.74286374681E+03  0.74346263887E+03  0.00000000000E+00 0. -1.
         21    1    1    2  503  501  0.27555663675E+02  0.11438289381E+02 -0.35663745847E+02  0.46497869116E+02  0.00000000000E+00 0.  1.
</event>
<event>
 4    1  0.2293753E+005  0.2929214E+02  0.7546771E-02  0.1425849E+00
          2   -1    0    0  502    0  0.00000000000E+00  0.00000000000E+00  0.14437779798E+03  0.14437779798E+03  0.00000000000E+00 0. -1.
         21   -1    0    0  503  502 -0.00000000000E+00 -0.00000000000E+00 -0.17179526090E+02  0.17179526090E+02  0.00000000000E+00 0.  1.
          2    1    1    2  501    0 -0.13172288186E+02  0.26163334909E+02  0.12892846031E+03  0.13221413369E+03  0.00000000000E+00 0. -1.
         21    1    1    2  503  501  0.13172288186E+02 -0.26163334909E+02 -0.17301884206E+01  0.29343190379E+02  0.00000000000E+00 0.  1.
</event>
<event>
 4    1  0.2293753E+005  0.2088288E+02  0.7546771E-02  0.1520944E+00
          2   -1    0    0  503    0  0.00000000000E+00  0.00000000000E+00  0.63264414243E+03  0.63264414243E+03  0.00000000000E+00 0.  1.
         21   -1    0    0  501  502 -0.00000000000E+00 -0.00000000000E+00 -0.21086827274E+01  0.21086827274E+01  0.00000000000E+00 0. -1.
          2    1    1    2  501    0 -0.66673157831E+01 -0.19789937773E+02  0.57565251837E+03  0.57603117679E+03  0.00000000000E+00 0.  1.
         21    1    1    2  503  502  0.66673157831E+01  0.19789937773E+02  0.54882941335E+02  0.58721648362E+02  0.00000000000E+00 0. -1.
</event>
<event>
 4    1  0.2293753E+005  0.2249188E+02  0.7546771E-02  0.1498979E+00
          2   -1    0    0  503    0  0.00000000000E+00  0.00000000000E+00  0.48225941034E+03  0.48225941034E+03  0.00000000000E+00 0. -1.
         21   -1    0    0  501  502 -0.00000000000E+00 -0.00000000000E+00 -0.21530010522E+02  0.21530010522E+02  0.00000000000E+00 0.  1.
          2    1    1    2  501    0  0.87750424841E+01 -0.20709499380E+02  0.47604635859E+03  0.47657740217E+03  0.00000000000E+00 0. -1.
         21    1    1    2  503  502 -0.87750424841E+01  0.20709499380E+02 -0.15316958771E+02  0.27212018690E+02  0.00000000000E+00 0.  1.
</event>
<event>
 4    1  0.2293753E+005  0.4421049E+02  0.7546771E-02  0.1325435E+00
          2   -1    0    0  502    0  0.00000000000E+00  0.00000000000E+00  0.39490426988E+03  0.39490426988E+03  0.00000000000E+00 0. -1.
         21   -1    0    0  503  502 -0.00000000000E+00 -0.00000000000E+00 -0.18666580394E+02  0.18666580394E+02  0.00000000000E+00 0. -1.
          2    1    1    2  501    0  0.22207953642E+01 -0.44154676603E+02  0.36538214757E+03  0.36804711813E+03  0.00000000000E+00 0. -1.
         21    1    1    2  503  501 -0.22207953642E+01  0.44154676603E+02  0.10855541909E+02  0.45523732141E+02  0.00000000000E+00 0. -1.
</event>
<event>
 4    1  0.2293753E+005  0.2657405E+02  0.7546771E-02  0.1451934E+00
          2   -1    0    0  503    0  0.00000000000E+00  0.00000000000E+00  0.16511504967E+04  0.16511504967E+04  0.00000000000E+00 0.  1.
         21   -1    0    0  501  502 -0.00000000000E+00 -0.00000000000E+00 -0.15612028895E+02  0.15612028895E+02  0.00000000000E+00 0. -1.
          2    1    1    2  501    0  0.18396974443E+01 -0.26510295875E+02  0.16396560332E+04  0.16398713631E+04  0.00000000000E+00 0.  1.
         21    1    1    2  503  502 -0.18396974443E+01  0.26510295875E+02 -0.41175654273E+01  0.26891162472E+02  0.00000000000E+00 0. -1.
</event>
<event>
 4    1  0.2293753E+005  0.3038007E+02  0.7546771E-02  0.1416322E+00
          2   -1    0    0  502    0  0.00000000000E+00  0.00000000000E+00  0.67454387172E+03  0.67454387172E+03  0.00000000000E+00 0.  1.
         21   -1    0    0  503  502 -0.00000000000E+00 -0.00000000000E+00 -0.67885253726E+01  0.67885253726E+01  0.00000000000E+00 0. -1.
          2    1    1    2  501    0  0.19671797536E+02  0.23150999329E+02  0.63828266864E+03  0.63900525309E+03  0.00000000000E+00 0.  1.
         21    1    1    2  503  501 -0.19671797536E+02 -0.23150999329E+02  0.29472677704E+02  0.42327144001E+02  0.00000000000E+00 0. -1.
</event>
<event>
 4    1  0.2293753E+005  0.3487795E+02  0.7546771E-02  0.1381423E+00
          2   -1    0    0  502    0  0.00000000000E+00  0.00000000000E+00  0.12946854611E+04  0.12946854611E+04  0.00000000000E+00 0.  1.
         21   -1    0    0  503  502 -0.00000000000E+00 -0.00000000000E+00 -0.87838647050E+01  0.87838647050E+01  0.00000000000E+00 0. -1.
          2    1    1    2  501    0 -0.25910217957E+02 -0.23348056207E+02  0.12588426367E+04  0.12593257144E+04  0.00000000000E+00 0.  1.
         21    1    1    2  503  501  0.25910217957E+02  0.23348056207E+02  0.27058959704E+02  0.44143611356E+02  0.00000000000E+00 0. -1.
</event>
<event>
 4    1  0.2293753E+005  0.2416388E+02  0.7546771E-02  0.1478378E+00
          2   -1    0    0  503    0  0.00000000000E+00  0.00000000000E+00  0.22205419101E+03  0.22205419101E+03  0.00000000000E+00 0.  1.
         21   -1    0    0  501  502 -0.00000000000E+00 -0.00000000000E+00 -0.52408764751E+01  0.52408764751E+01  0.00000000000E+00 0.  1.
          2    1    1    2  501    0  0.10054004456E+02  0.21972941637E+02  0.18862841441E+03  0.19016985012E+03  0.00000000000E+00 0.  1.
         21    1    1    2  503  502 -0.10054004456E+02 -0.21972941637E+02  0.28184900126E+02  0.37125217372E+02  0.00000000000E+00 0.  1.
</event>
<event>
 4    1  0.2293753E+005  0.2126884E+02  0.7546771E-02  0.1515461E+00
          2   -1    0    0  503    0  0.00000000000E+00  0.00000000000E+00  0.34830219797E+03  0.34830219797E+03  0.00000000000E+00 0.  1.
         21   -1    0    0  501  502 -0.00000000000E+00 -0.00000000000E+00 -0.57631246254E+01  0.57631246254E+01  0.00000000000E+00 0.  1.
          2    1    1    2  501    0  0.15932729371E+02  0.14089424750E+02  0.32708258768E+03  0.32777337128E+03  0.00000000000E+00 0.  1.
         21    1    1    2  503  502 -0.15932729371E+02 -0.14089424750E+02  0.15456485664E+02  0.26291951318E+02  0.00000000000E+00 0.  1.
</event>
<event>
 4    1  0.2293753E+005  0.2106282E+02  0.7546771E-02  0.1518370E+00
          2   -1    0    0  502    0  0.00000000000E+00  0.00000000000E+00  0.53493381921E+02  0.53493381921E+02  0.00000000000E+00 0. -1.
         21   -1    0    0  503  502 -0.00000000000E+00 -0.00000000000E+00 -0.13292197165E+02  0.13292197165E+02  0.00000000000E+00 0. -1.
          2    1    1    2  501    0  0.19620530048E+02 -0.76601000846E+01  0.40578558085E+02  0.45719380015E+02  0.00000000000E+00 0. -1.
         21    1    1    2  503  501 -0.19620530048E+02  0.76601000846E+01 -0.37737332917E+00  0.21066199071E+02  0.00000000000E+00 0. -1.
</event>
<event>
 4    1  0.2293753E+005  0.6142434E+02  0.7546771E-02  0.1255068E+00
          2   -1    0    0  503    0  0.00000000000E+00  0.00000000000E+00  0.76406541220E+03  0.76406541220E+03  0.00000000000E+00 0.  1.
         21   -1    0    0  501  502 -0.00000000000E+00 -0.00000000000E+00 -0.59177550399E+02  0.59177550399E+02  0.00000000000E+00 0.  1.
          2    1    1    2  501    0  0.61401202326E+02  0.16859110753E+01  0.74651777125E+03  0.74904054145E+03  0.00000000000E+00 0.  1.
         21    1    1    2  503  502 -0.61401202326E+02 -0.16859110753E+01 -0.41629909452E+02  0.74202421148E+02  0.00000000000E+00 0.  1.
</event>
<event>
 4    1  0.2293753E+005  0.2132403E+02  0.7546771E-02  0.1514689E+00
          2   -1    0    0  503    0  0.00000000000E+00  0.00000000000E+00  0.18559136882E+03  0.18559136882E+03  0.00000000000E+00 0.  1.
         21   -1    0    0  501  502 -0.00000000000E+00 -0.00000000000E+00 -0.42855793994E+01  0.42855793994E+01  0.00000000000E+00 0. -1.
          2    1    1    2  501    0 -0.20769147433E+02  0.48328745189E+01  0.15278474747E+03  0.15426565794E+03  0.00000000000E+00 0.  1.
         21    1    1    2  503  502  0.20769147433E+02 -0.48328745189E+01  0.28521041952E+02  0.35611290277E+02  0.00000000000E+00 0. -1.
</event>
<event>
 4    1  0.2293753E+005  0.2435942E+02  0.7546771E-02  0.1476099E+00
          2   -1    0    0  502    0  0.00000000000E+00  0.00000000000E+00  0.13707221758E+04  0.13707221758E+04  0.00000000000E+00 0.  1.
         21   -1    0    0  503  502 -0.00000000000E+00 -0.00000000000E+00 -0.17167589509E+02  0.17167589509E+02  0.00000000000E+00 0. -1.
          2    1    1    2  501    0  0.37612821061E+01 -0.24067282540E+02  0.13619170788E+04  0.13621349092E+04  0.00000000000E+00 0.  1.
         21    1    1    2  503  501 -0.37612821061E+01  0.24067282540E+02 -0.83624925135E+01  0.25754856104E+02  0.00000000000E+00 0. -1.
</event>
<event>
 4    1  0.2293753E+005  0.2181971E+02  0.7546771E-02  0.1507876E+00
          2   -1    0    0  502    0  0.00000000000E+00  0.00000000000E+00  0.26634571688E+03  0.26634571688E+03  0.00000000000E+00 0. -1.
         21   -1    0    0  503  502 -0.00000000000E+00 -0.00000000000E+00 -0.13815756042E+02  0.13815756042E+02  0.00000000000E+00 0.  1.
          2    1    1    2  501    0 -0.17176926289E+02  0.13455591386E+02  0.25696990830E+03  0.25789461706E+03  0.00000000000E+00 0. -1.
         21    1    1    2  503  501  0.17176926289E+02 -0.13455591386E+02 -0.44399474667E+01  0.22266855858E+02  0.00000000000E+00 0.  1.
</event>
<event>
 4    1  0.2293753E+005  0.2000205E+02  0.7546771E-02  0.1534004E+00
          2   -1    0    0  503    0  0.00000000000E+00  0.00000000000E+00  0.14823538665E+04  0.14823538665E+04  0.00000000000E+00 0.  1.
         21   -1    0    0  501  502 -0.00000000000E+00 -0.00000000000E+00 -0.25424127263E+01  0.25424127263E+01  0.00000000000E+00 0.  1.
          2    1    1    2  501    0  0.18694698755E+02 -0.71126818949E+01  0.14418402461E+04  0.14419789795E+04  0.00000000000E+00 0.  1.
         21    1    1    2  503  502 -0.18694698755E+02  0.71126818949E+01  0.37971207720E+02  0.42917299787E+02  0.00000000000E+00 0.  1.
</event>
<event>
 4    1  0.2293753E+005  0.2753847E+02  0.7546771E-02  0.1442273E+00
          2   -1    0    0  502    0  0.00000000000E+00  0.00000000000E+00  0.25403454421E+03  0.25403454421E+03  0.00000000000E+00 0. -1.
         21   -1    0    0  503  502 -0.00000000000E+00 -0.00000000000E+00 -0.12018710364E+02  0.12018710364E+02  0.00000000000E+00 0.  1.
          2    1    1    2  501    0  0.23482986473E+02  0.14384600498E+02  0.23633616608E+03  0.23793518190E+03  0.00000000000E+00 0. -1.
         21    1    1    2  503  501 -0.23482986473E+02 -0.14384600498E+02  0.56796677639E+01  0.28118072678E+02  0.00000000000E+00 0.  1.
</event>
<event>
 4    1  0.2293753E+005  0.3055944E+02  0.7546771E-02  0.1414796E+00
          2   -1    0    0  503    0  0.00000000000E+00  0.00000000000E+00  0.47978814815E+03  0.47978814815E+03  0.00000000000E+00 0. -1.
         21   -1    0    0  501  502 -0.00000000000E+00 -0.00000000000E+00 -0.20258985798E+01  0.20258985798E+01  0.00000000000E+00 0.  1.
          2    1    1    2  501    0  0.27093867703E+02  0.14135124151E+02  0.28659095024E+03  0.28821563484E+03  0.00000000000E+00 0. -1.
         21    1    1    2  503  502 -0.27093867703E+02 -0.14135124151E+02  0.19117129932E+03  0.19359841189E+03  0.00000000000E+00 0.  1.
</event>
<event>
 4    1  0.2293753E+005  0.2650288E+02  0.7546771E-02  0.1452667E+00
          2   -1    0    0  503    0  0.00000000000E+00  0.00000000000E+00  0.16895128329E+04  0.16895128329E+04  0.00000000000E+00 0. -1.
         21   -1    0    0  501  502 -0.00000000000E+00 -0.00000000000E+00 -0.51550329585E+02  0.51550329585E+02  0.00000000000E+00 0.  1.
          2    1    1    2  501    0  0.10360118061E+02 -0.24394071495E+02  0.16859953978E+04  0.16862036900E+04  0.00000000000E+00 0. -1.
         21    1    1    2  503  502 -0.10360118061E+02  0.24394071495E+02 -0.48032894477E+02  0.54859472492E+02  0.00000000000E+00 0.  1.
</event>
<event>
 4    1  0.2293753E+005  0.6292203E+02  0.7546771E-02  0.1250215E+00
          2   -1    0    0  503    0  0.00000000000E+00  0.00000000000E+00  0.57874747742E+02  0.57874747742E+02  0.00000000000E+00 0.  1.
         21   -1    0    0  501  502 -0.00000000000E+00 -0.00000000000E+00 -0.10345629243E+03  0.10345629243E+03  0.00000000000E+00 0. -1.
          2    1    1    2  501    0  0.26033433772E+02 -0.57283870924E+02  0.24159025832E+02  0.67400593997E+02  0.00000000000E+00 0.  1.
         21    1    1    2  503  502 -0.26033433772E+02  0.57283870924E+02 -0.69740570516E+02  0.93930446171E+02  0.00000000000E+00 0. -1.
</event>
<event>
 4    1  0.2293753E+005  0.8054794E+02  0.7546771E-02  0.1202581E+00
          2   -1    0    0  503    0  0.00000000000E+00  0.00000000000E+00  0.66137637915E+03  0.66137637915E+03  0.00000000000E+00 0.  1.
         21   -1    0    0  501  502 -0.00000000000E+00 -0.00000000000E+00 -0.13333167635E+02  0.13333167635E+02  0.00000000000E+00 0. -1.
          2    1    1    2  501    0 -0.32255360521E+01 -0.80483332870E+02  0.49744156580E+03  0.50392071037E+03  0.00000000000E+00 0.  1.
         21    1    1    2  503  502  0.32255360521E+01  0.80483332870E+02  0.15060164572E+03  0.17078883642E+03  0.00000000000E+00 0. -1.
</event>
<event>
 4    1  0.2293753E+005  0.4088443E+02  0.7546771E-02  0.1343380E+00
          2   -1    0    0  503    0  0.00000000000E+00  0.00000000000E+00  0.22532567673E+04  0.22532567673E+04  0.00000000000E+00 0. -1.
         21   -1    0    0  501  502 -0.00000000000E+00 -0.00000000000E+00 -0.10529920573E+01  0.10529920573E+01  0.00000000000E+00 0.  1.
          2    1    1    2  501    0  0.34716131341E+02  0.21594611017E+02  0.17388236009E+04  0.17393041862E+04  0.00000000000E+00 0. -1.
         21    1    1    2  503  502 -0.34716131341E+02 -0.21594611017E+02  0.51338017430E+03  0.51500557314E+03  0.00000000000E+00 0.  1.
</event>
<event>
 4    1  0.2293753E+005  0.5654829E+02  0.7546771E-02  0.1272034E+00
          2   -1    0    0  503    0  0.00000000000E+00  0.00000000000E+00  0.26153852287E+04  0.26153852287E+04  0.00000000000E+00 0. -1.
         21   -1    0    0  501  502 -0.00000000000E+00 -0.00000000000E+00 -0.23249844481E+02  0.23249844481E+02  0.00000000000E+00 0.  1.
          2    1    1    2  501    0 -0.31690240105E+02 -0.46834151341E+02  0.25802269022E+04  0.25808464844E+04  0.00000000000E+00 0. -1.
         21    1    1    2  503  502  0.31690240105E+02  0.46834151341E+02  0.11908481985E+02  0.57788588778E+02  0.00000000000E+00 0.  1.
</event>
<event>
 4    1  0.2293753E+005  0.5980656E+02  0.7546771E-02  0.1260491E+00
          2   -1    0    0  503    0  0.00000000000E+00  0.00000000000E+00  0.10403972588E+04  0.10403972588E+04  0.00000000000E+00 0.  1.
         21   -1    0    0  501  502 -0.00000000000E+00 -0.00000000000E+00 -0.34603055313E+01  0.34603055313E+01  0.00000000000E+00 0.  1.
          2    1    1    2  501    0 -0.38292353955E+02  0.45940401189E+02  0.47650902422E+03  0.48024751430E+03  0.00000000000E+00 0.  1.
         21    1    1    2  503  502  0.38292353955E+02 -0.45940401189E+02  0.56042792902E+03  0.56361005000E+03  0.00000000000E+00 0.  1.
</event>
<event>
 4    1  0.2293753E+005  0.8578609E+02  0.7546771E-02  0.1191016E+00
          2   -1    0    0  502    0  0.00000000000E+00  0.00000000000E+00  0.76936500498E+02  0.76936500498E+02  0.00000000000E+00 0. -1.
         21   -1    0    0  503  502 -0.00000000000E+00 -0.00000000000E+00 -0.95677246913E+02  0.95677246913E+02  0.00000000000E+00 0.  1.
          2    1    1    2  501    0  0.20586390446E+01  0.85761386279E+02 -0.10727164659E+02  0.86454181118E+02  0.00000000000E+00 0. -1.
         21    1    1    2  503  501 -0.20586390446E+01 -0.85761386279E+02 -0.80135817554E+01  0.86159566293E+02  0.00000000000E+00 0.  1.
</event>
<event>
 4    1  0.2293753E+005  0.2121879E+02  0.7546771E-02  0.1516164E+00
          2   -1    0    0  502    0  0.00000000000E+00  0.00000000000E+00  0.44995763006E+02  0.44995763006E+02  0.00000000000E+00 0.  1.
         21   -1    0    0  503  502 -0.00000000000E+00 -0.00000000000E+00 -0.13474112135E+02  0.13474112135E+02  0.00000000000E+00 0. -1.
          2    1    1    2  501    0  0.97281580039E+01 -0.18857358330E+02  0.30592341746E+02  0.37230745290E+02  0.00000000000E+00 0.  1.
         21    1    1    2  503  501 -0.97281580039E+01  0.18857358330E+02  0.92930912548E+00  0.21239129850E+02  0.00000000000E+00 0. -1.
</event>
<event>
 4    1  0.2293753E+005  0.2297728E+02  0.7546771E-02  0.1492784E+00
          2   -1    0    0  503    0  0.00000000000E+00  0.00000000000E+00  0.21816088165E+02  0.21816088165E+02  0.00000000000E+00 0.  1.
         21   -1    0    0  501  502 -0.00000000000E+00 -0.00000000000E+00 -0.35384783163E+03  0.35384783163E+03  0.00000000000E+00 0.  1.
          2    1    1    2  501    0 -0.18570987807E+02  0.13530483666E+02  0.15279260715E+02  0.27593683777E+02  0.00000000000E+00 0.  1.
         21    1    1    2  503  502  0.18570987807E+02 -0.13530483666E+02 -0.34731100418E+03  0.34807023602E+03  0.00000000000E+00 0.  1.
</event>
<event>
 4    1  0.2293753E+005  0.5479587E+02  0.7546771E-02  0.1278619E+00
          2   -1    0    0  502    0  0.00000000000E+00  0.00000000000E+00  0.72038513882E+03  0.72038513882E+03  0.00000000000E+00 0.  1.
         21   -1    0    0  503  502 -0.00000000000E+00 -0.00000000000E+00 -0.50463733152E+02  0.50463733152E+02  0.00000000000E+00 0.  1.
          2    1    1    2  501    0  0.11824891811E+01  0.54783113414E+02  0.70412517140E+03  0.70625409365E+03  0.00000000000E+00 0.  1.
         21    1    1    2  503  501 -0.11824891811E+01 -0.54783113414E+02 -0.34203765733E+02  0.64594778321E+02  0.00000000000E+00 0.  1.
</event>
<event>
 4    1  0.2293753E+005  0.2104142E+02  0.7546771E-02  0.1518674E+00
          2   -1    0    0  503    0  0.00000000000E+00  0.00000000000E+00  0.22149504341E+02  0.22149504341E+02  0.00000000000E+00 0. -1.
         21   -1    0    0  501  502 -0.00000000000E+00 -0.00000000000E+00 -0.14742407775E+03  0.14742407775E+03  0.00000000000E+00 0. -1.
          2    1    1    2  501    0 -0.17367458408E+02 -0.11879090993E+02  0.16192231061E+02  0.26550513387E+02  0.00000000000E+00 0. -1.
         21    1    1    2  503  502  0.17367458408E+02  0.11879090993E+02 -0.14146680447E+03  0.14302306871E+03  0.00000000000E+00 0. -1.
</event>
<event>
 4    1  0.2293753E+005  0.2045634E+02  0.7546771E-02  0.1527170E+00
          2   -1    0    0  503    0  0.00000000000E+00  0.00000000000E+00  0.53460141798E+03  0.53460141798E+03  0.00000000000E+00 0. -1.
         21   -1    0    0  501  502 -0.00000000000E+00 -0.00000000000E+00 -0.88139984807E+00  0.88139984807E+00  0.00000000000E+00 0. -1.
          2    1    1    2  501    0  0.18952394537E+02  0.76985988867E+01  0.35643098165E+03  0.35701751549E+03  0.00000000000E+00 0. -1.
         21    1    1    2  503  502 -0.18952394537E+02 -0.76985988867E+01  0.17728903648E+03  0.17846530234E+03  0.00000000000E+00 0. -1.
</event>
<event>
 4    1  0.2293753E+005  0.3507546E+02  0.7546771E-02  0.1380033E+00
          2   -1    0    0  502    0  0.00000000000E+00  0.00000000000E+00  0.22357416114E+03  0.22357416114E+03  0.00000000000E+00 0.  1.
         21   -1    0    0  503  502 -0.00000000000E+00 -0.00000000000E+00 -0.24763988725E+02  0.24763988725E+02  0.00000000000E+00 0.  1.
          2    1    1    2  501    0 -0.99566010892E+01 -0.33632636736E+02  0.20891274018E+03  0.21183677955E+03  0.00000000000E+00 0.  1.
         21    1    1    2  503  501  0.99566010892E+01  0.33632636736E+02 -0.10102567771E+02  0.36501370312E+02  0.00000000000E+00 0.  1.
</event>
<event>
 4    1  0.2293753E+005  0.2054522E+02  0.7546771E-02  0.1525858E+00
          2   -1    0    0  503    0  0.00000000000E+00  0.00000000000E+00  0.10704189358E+03  0.10704189358E+03  0.00000000000E+00 0.  1.
         21   -1    0    0  501  502 -0.00000000000E+00 -0.00000000000E+00 -0.51384173019E+01  0.51384173019E+01  0.00000000000E+00 0.  1.
          2    1    1    2  501    0  0.19668621944E+02  0.59372839420E+01  0.78001540850E+02  0.80661926612E+02  0.00000000000E+00 0.  1.
         21    1    1    2  503  502 -0.19668621944E+02 -0.59372839420E+01  0.23901935429E+02  0.31518384270E+02  0.00000000000E+00 0.  1.
</event>
<event>
 4    1  0.2293753E+005  0.2161093E+02  0.7546771E-02  0.1510718E+00
          2   -1    0    0  503    0  0.00000000000E+00  0.00000000000E+00  0.90267837587E+02  0.90267837587E+02  0.00000000000E+00 0. -1.
         21   -1    0    0  501  502 -0.00000000000E+00 -0.00000000000E+00 -0.52004182765E+01  0.52004182765E+01  0.00000000000E+00 0. -1.
          2    1    1    2  501    0  0.26690122626E+01 -0.21445481250E+02  0.39121876107E+02  0.44693998284E+02  0.00000000000E+00 0. -1.
         21    1    1    2  503  502 -0.26690122626E+01  0.21445481250E+02  0.45945543203E+02  0.50774257579E+02  0.00000000000E+00 0. -1.
</event>
<event>
 4    1  0.2293753E+005  0.3080595E+02  0.7546771E-02  0.1412719E+00
          2   -1    0    0  503    0  0.00000000000E+00  0.00000000000E+00  0.10855218807E+03  0.10855218807E+03  0.00000000000E+00 0. -1.
         21   -1    0    0  501  502 -0.00000000000E+00 -0.00000000000E+00 -0.87996154466E+01  0.87996154466E+01  0.00000000000E+00 0. -1.
          2    1    1    2  501    0 -0.30693302649E+02 -0.26320194312E+01  0.54607743250E+02  0.62697782869E+02  0.00000000000E+00 0. -1.
         21    1    1    2  503  502  0.30693302649E+02  0.26320194312E+01  0.45144829374E+02  0.54654020648E+02  0.00000000000E+00 0. -1.
</event>
<event>
 4    1  0.2293753E+005  0.2339981E+02  0.7546771E-02  0.1487538E+00
          2   -1    0    0  503    0  0.00000000000E+00  0.00000000000E+00  0.20856985887E+03  0.20856985887E+03  0.00000000000E+00 0. -1.
         21   -1    0    0  501  502 -0.00000000000E+00 -0.00000000000E+00 -0.17217179033E+03  0.17217179033E+03  0.00000000000E+00 0.  1.
          2    1    1    2  501    0 -0.18097683232E+02  0.14833241253E+02  0.20711290217E+03  0.20843057700E+03  0.00000000000E+00 0. -1.
         21    1    1    2  503  502  0.18097683232E+02 -0.14833241253E+02 -0.17071483363E+03  0.17231107221E+03  0.00000000000E+00 0.  1.
</event>
<event>
 4    1  0.2293753E+005  0.2544912E+02  0.7546771E-02  0.1463841E+00
          2   -1    0    0  503    0  0.00000000000E+00  0.00000000000E+00  0.68835670131E+01  0.68835670131E+01  0.00000000000E+00 0.  1.
         21   -1    0    0  501  502 -0.00000000000E+00 -0.00000000000E+00 -0.14400318986E+03  0.14400318986E+03  0.00000000000E+00 0.  1.
          2    1    1    2  501    0 -0.25130198232E+02 -0.40163119285E+01 -0.24142363428E+02  0.35078645022E+02  0.00000000000E+00 0.  1.
         21    1    1    2  503  502  0.25130198232E+02  0.40163119285E+01 -0.11297725941E+03  0.11580811185E+03  0.00000000000E+00 0.  1.
</event>
<event>
 4    1  0.2293753E+005  0.3272061E+02  0.7546771E-02  0.1397337E+00
          2   -1    0    0  502    0  0.00000000000E+00  0.00000000000E+00  0.66470119907E+03  0.66470119907E+03  0.00000000000E+00 0.  1.
         21   -1    0    0  503  502 -0.00000000000E+00 -0.00000000000E+00 -0.40560081020E+03  0.40560081020E+03  0.00000000000E+00 0.  1.
          2    1    1    2  501    0  0.22133995328E+02 -0.24098231488E+02  0.66363755643E+03  0.66444371079E+03  0.00000000000E+00 0.  1.
         21    1    1    2  503  501 -0.22133995328E+02  0.24098231488E+02 -0.40453716756E+03  0.40585829848E+03  0.00000000000E+00 0.  1.
</event>
<event>
 4    1  0.2293753E+005  0.3104523E+02  0.7546771E-02  0.1410726E+00
          2   -1    0    0  502    0  0.00000000000E+00  0.00000000000E+00  0.68131581728E+03  0.68131581728E+03  0.00000000000E+00 0. -1.
         21   -1    0    0  503  502 -0.00000000000E+00 -0.00000000000E+00 -0.23008126653E+01  0.23008126653E+01  0.00000000000E+00 0.  1.
          2    1    1    2  501    0 -0.28324180615E+02  0.12710127288E+02  0.55163881932E+03  0.55251171347E+03  0.00000000000E+00 0. -1.
         21    1    1    2  503  501  0.28324180615E+02 -0.12710127288E+02  0.12737618529E+03  0.13110491647E+03  0.00000000000E+00 0.  1.
</event>
<event>
 4    1  0.2293753E+005  0.3340923E+02  0.7546771E-02  0.1392105E+00
          2   -1    0    0  502    0  0.00000000000E+00  0.00000000000E+00  0.28768225894E+03  0.28768225894E+03  0.00000000000E+00 0.  1.
         21   -1    0    0  503  502 -0.00000000000E+00 -0.00000000000E+00 -0.46309261957E+01  0.46309261957E+01  0.00000000000E+00 0.  1.
          2    1    1    2  501    0  0.32581634322E+02  0.73900958440E+01  0.20038482060E+03  0.20315081279E+03  0.00000000000E+00 0.  1.
         21    1    1    2  503  501 -0.32581634322E+02 -0.73900958440E+01  0.82666512146E+02  0.89162372344E+02  0.00000000000E+00 0.  1.
</event>
<event>
 4    1  0.2293753E+005  0.2535766E+02  0.7546771E-02  0.1464842E+00
          2   -1    0    0  503    0  0.00000000000E+00  0.00000000000E+00  0.48540503693E+02  0.48540503693E+02  0.00000000000E+00 0. -1.
         21   -1    0    0  501  502 -0.00000000000E+00 -0.00000000000E+00 -0.11071126440E+03  0.11071126440E+03  0.00000000000E+00 0.  1.
          2    1    1    2  501    0 -0.19220637165E+02 -0.16540187259E+02  0.43625062833E+02  0.50459456941E+02  0.00000000000E+00 0. -1.
         21    1    1    2  503  502  0.19220637165E+02  0.16540187259E+02 -0.10579582354E+03  0.10879231115E+03  0.00000000000E+00 0.  1.
</event>
<event>
 4    1  0.2293753E+005  0.2006686E+02  0.7546771E-02  0.1533016E+00
          2   -1    0    0  502    0  0.00000000000E+00  0.00000000000E+00  0.97890432419E+03  0.97890432419E+03  0.00000000000E+00 0. -1.
         21   -1    0    0  503  502 -0.00000000000E+00 -0.00000000000E+00 -0.13349297155E+01  0.13349297155E+01  0.00000000000E+00 0.  1.
          2    1    1    2  501    0 -0.16150116269E+02  0.11910193029E+02  0.89645444761E+03  0.89667901481E+03  0.00000000000E+00 0. -1.
         21    1    1    2  503  501  0.16150116269E+02 -0.11910193029E+02  0.81114946855E+02  0.83560239090E+02  0.00000000000E+00 0.  1.
</event>
<event>
 4    1  0.2293753E+005  0.3048294E+02  0.7546771E-02  0.1415445E+00
          2   -1    0    0  502    0  0.00000000000E+00  0.00000000000E+00  0.34958763050E+03  0.34958763050E+03  0.00000000000E+00 0. -1.
         21   -1    0    0  503  502 -0.00000000000E+00 -0.00000000000E+00 -0.23795072407E+02  0.23795072407E+02  0.00000000000E+00 0. -1.
          2    1    1    2  501    0  0.22617746677E+02 -0.20436421764E+02  0.33885181250E+03  0.34022016494E+03  0.00000000000E+00 0. -1.
         21    1    1    2  503  501 -0.22617746677E+02  0.20436421764E+02 -0.13059254400E+02  0.33162537972E+02  0.00000000000E+00 0. -1.
</event>
<event>
 4    1  0.2293753E+005  0.2519535E+02  0.7546771E-02  0.1466630E+00
          2   -1    0    0  503    0  0.00000000000E+00  0.00000000000E+00  0.17400924803E+02  0.17400924803E+02  0.00000000000E+00 0.  1.
         21   -1    0    0  501  502 -0.00000000000E+00 -0.00000000000E+00 -0.38954749033E+02  0.38954749033E+02  0.00000000000E+00 0.  1.
          2    1    1    2  501    0 -0.23604180439E+02  0.88118416740E+01 -0.36763719099E+01  0.25462160126E+02  0.00000000000E+00 0.  1.
         21    1    1    2  503  502  0.23604180439E+02 -0.88118416740E+01 -0.17877452321E+02  0.30893513710E+02  0.00000000000E+00 0.  1.
</event>
<event>
 4    1  0.2293753E+005  0.2436937E+02  0.7546771E-02  0.1475983E+00
          2   -1    0    0  503    0  0.00000000000E+00  0.00000000000E+00  0.81790749717E+03  0.81790749717E+03  0.00000000000E+00 0.  1.
         21   -1    0    0  501  502 -0.00000000000E+00 -0.00000000000E+00 -0.21075601663E+01  0.21075601663E+01  0.00000000000E+00 0.  1.
          2    1    1    2  501    0 -0.22336477262E+02 -0.97441169779E+01  0.73985114673E+03  0.74025237950E+03  0.00000000000E+00 0.  1.
         21    1    1    2  503  502  0.22336477262E+02  0.97441169779E+01  0.75948790268E+02  0.79762677834E+02  0.00000000000E+00 0.  1.
</event>
<event>
 4    1  0.2293753E+005  0.2363143E+02  0.7546771E-02  0.1484718E+00
          2   -1    0    0  502    0  0.00000000000E+00  0.00000000000E+00  0.26828705231E+03  0.26828705231E+03  0.00000000000E+00 0. -1.
         21   -1    0    0  503  502 -0.00000000000E+00 -0.00000000000E+00 -0.58098370070E+01  0.58098370070E+01  0.00000000000E+00 0. -1.
          2    1    1    2  501    0  0.18090966488E+02 -0.15203987068E+02  0.24102504128E+03  0.24218074823E+03  0.00000000000E+00 0. -1.
         21    1    1    2  503  501 -0.18090966488E+02  0.15203987068E+02  0.21452174019E+02  0.31916141079E+02  0.00000000000E+00 0. -1.
</event>
<event>
 4    1  0.2293753E+005  0.2129901E+02  0.7546771E-02  0.1515038E+00
          2   -1    0    0  502    0  0.00000000000E+00  0.00000000000E+00  0.10753524618E+04  0.10753524618E+04  0.00000000000E+00 0. -1.
         21   -1    0    0  503  502 -0.00000000000E+00 -0.00000000000E+00 -0.58885180384E+02  0.58885180384E+02  0.00000000000E+00 0. -1.
          2    1    1    2  501    0  0.50048753284E+01 -0.20702631935E+02  0.10733173610E+04  0.10735286700E+04  0.00000000000E+00 0. -1.
         21    1    1    2  503  501 -0.50048753284E+01  0.20702631935E+02 -0.56850079655E+02  0.60708972178E+02  0.00000000000E+00 0. -1.
</event>
<event>
 4    1  0.2293753E+005  0.2498453E+02  0.7546771E-02  0.1468977E+00
          2   -1    0    0  502    0  0.00000000000E+00  0.00000000000E+00  0.42697863047E+03  0.42697863047E+03  0.00000000000E+00 0.  1.
         21   -1    0    0  503  502 -0.00000000000E+00 -0.00000000000E+00 -0.27197266636E+02  0.27197266636E+02  0.00000000000E+00 0.  1.
          2    1    1    2  501    0 -0.19584628959E+02  0.15513504971E+02  0.42079088461E+03  0.42153196213E+03  0.00000000000E+00 0.  1.
         21    1    1    2  503  501  0.19584628959E+02 -0.15513504971E+02 -0.21009520770E+02  0.32643934979E+02  0.00000000000E+00 0.  1.
</event>
<event>
 4    1  0.2293753E+005  0.2845486E+02  0.7546771E-02  0.1433517E+00
          2   -1    0    0  502    0  0.00000000000E+00  0.00000000000E+00  0.19025017931E+04  0.19025017931E+04  0.00000000000E+00 0. -1.
         21   -1    0    0  503  502 -0.00000000000E+00 -0.00000000000E+00 -0.92231021301E+01  0.92231021301E+01  0.00000000000E+00 0. -1.
          2    1    1    2  501    0 -0.42441345972E+01 -0.28136570324E+02  0.18801879032E+04  0.18804032096E+04  0.00000000000E+00 0. -1.
         21    1    1    2  503  501  0.42441345972E+01  0.28136570324E+02  0.13090787789E+02  0.31321685667E+02  0.00000000000E+00 0. -1.
</event>
<event>
 4    1  0.2293753E+005  0.2847124E+02  0.7546771E-02  0.1433364E+00
          2   -1    0    0  502    0  0.00000000000E+00  0.00000000000E+00  0.22460436375E+03  0.22460436375E+03  0.00000000000E+00 0.  1.
         21   -1    0    0  503  502 -0.00000000000E+00 -0.00000000000E+00 -0.37821718117E+01  0.37821718117E+01  0.00000000000E+00 0.  1.
          2    1    1    2  501    0  0.19111203399E+02  0.21103865474E+02  0.13484145378E+03  0.13781447272E+03  0.00000000000E+00 0.  1.
         21    1    1    2  503  501 -0.19111203399E+02 -0.21103865474E+02  0.85980738158E+02  0.90572062843E+02  0.00000000000E+00 0.  1.
</event>
<event>
 4    1  0.2293753E+005  0.3310503E+02  0.7546771E-02  0.1394398E+00
          2   -1    0    0  503    0  0.00000000000E+00  0.00000000000E+00  0.41219314821E+02  0.41219314821E+02  0.00000000000E+00 0. -1.
         21   -1    0    0  501  502 -0.00000000000E+00 -0.00000000000E+00 -0.26854603801E+02  0.26854603801E+02  0.00000000000E+00 0. -1.
          2    1    1    2  501    0 -0.31887202054E+02 -0.88965896524E+01  0.10573131163E+02  0.34752468472E+02  0.00000000000E+00 0. -1.
         21    1    1    2  503  502  0.31887202054E+02  0.88965896524E+01  0.37915798566E+01  0.33321450150E+02  0.00000000000E+00 0. -1.
</event>
<event>
 4    1  0.2293753E+005  0.8496269E+02  0.7546771E-02  0.1192772E+00
          2   -1    0    0  503    0  0.00000000000E+00  0.00000000000E+00  0.29917172098E+03  0.29917172098E+03  0.00000000000E+00 0. -1.
         21   -1    0    0  501  502 -0.00000000000E+00 -0.00000000000E+00 -0.11612975186E+03  0.11612975186E+03  0.00000000000E+00 0.  1.
          2    1    1    2  501    0  0.46307673440E+02  0.71233821491E+02  0.27634476992E+03  0.28911086075E+03  0.00000000000E+00 0. -1.
         21    1    1    2  503  502 -0.46307673440E+02 -0.71233821491E+02 -0.93302800795E+02  0.12619061209E+03  0.00000000000E+00 0.  1.
</event>
<event>
 4    1  0.2293753E+005  0.3965239E+02  0.7546771E-02  0.1350535E+00
          2   -1    0    0  503    0  0.00000000000E+00  0.00000000000E+00  0.66965722015E+03  0.66965722015E+03  0.00000000000E+00 0.  1.
         21   -1    0    0  501  502 -0.00000000000E+00 -0.00000000000E+00 -0.36339888502E+01  0.36339888502E+01  0.00000000000E+00 0. -1.
          2    1    1    2  501    0 -0.87579960715E+01 -0.38673113018E+02  0.53327916978E+03  0.53475133014E+03  0.00000000000E+00 0.  1.
         21    1    1    2  503  502  0.87579960715E+01  0.38673113018E+02  0.13274406152E+03  0.13853987886E+03  0.00000000000E+00 0. -1.
</event>
<event>
 4    1  0.2293753E+005  0.2667770E+02  0.7546771E-02  0.1450873E+00
          2   -1    0    0  503    0  0.00000000000E+00  0.00000000000E+00  0.21092150266E+02  0.21092150266E+02  0.00000000000E+00 0.  1.
         21   -1    0    0  501  502 -0.00000000000E+00 -0.00000000000E+00 -0.62582262404E+02  0.62582262404E+02  0.00000000000E+00 0. -1.
          2    1    1    2  501    0  0.26511811280E+02  0.29704482839E+01  0.76559460750E+01  0.27754516942E+02  0.00000000000E+00 0.  1.
         21    1    1    2  503  502 -0.26511811280E+02 -0.29704482839E+01 -0.49146058213E+02  0.55919895728E+02  0.00000000000E+00 0. -1.
</event>
<event>
 4    1  0.2293753E+005  0.2246022E+02  0.7546771E-02  0.1499390E+00
          2   -1    0    0  503    0  0.00000000000E+00  0.00000000000E+00  0.48806315065E+03  0.48806315065E+03  0.00000000000E+00 0.  1.
         21   -1    0    0  501  502 -0.00000000000E+00 -0.00000000000E+00 -0.10569473644E+02  0.10569473644E+02  0.00000000000E+00 0.  1.
          2    1    1    2  501    0  0.22456703496E+02  0.39716775546E+00  0.47555916003E+03  0.47608925210E+03  0.00000000000E+00 0.  1.
         21    1    1    2  503  502 -0.22456703496E+02 -0.39716775546E+00  0.19345169771E+01  0.22543372198E+02  0.00000000000E+00 0.  1.
</event>
<event>
 4    1  0.2293753E+005  0.4110900E+02  0.7546771E-02  0.1342107E+00
          2   -1    0    0  502    0  0.00000000000E+00  0.00000000000E+00  0.21415385708E+04  0.21415385708E+04  0.00000000000E+00 0.  1.
         21   -1    0    0  503  502 -0.00000000000E+00 -0.00000000000E+00 -0.50903173059E+03  0.50903173059E+03  0.00000000000E+00 0. -1.
          2    1    1    2  501    0 -0.38727380847E+02  0.13789124430E+02  0.21405109075E+04  0.21409056250E+04  0.00000000000E+00 0.  1.
         21    1    1    2  503  501  0.38727380847E+02 -0.13789124430E+02 -0.50800406730E+03  0.50966467640E+03  0.00000000000E+00 0. -1.
</event>
<event>
 4    1  0.2293753E+005  0.2214818E+02  0.7546771E-02  0.1503481E+00
          2   -1    0    0  502    0  0.00000000000E+00  0.00000000000E+00  0.67445471926E+03  0.67445471926E+03  0.00000000000E+00 0. -1.
         21   -1    0    0  503  502 -0.00000000000E+00 -0.00000000000E+00 -0.36431160518E+01  0.36431160518E+01  0.00000000000E+00 0. -1.
          2    1    1    2  501    0  0.19681664041E+02 -0.10157469895E+02  0.63872834325E+03  0.63911222690E+03  0.00000000000E+00 0. -1.
         21    1    1    2  503  501 -0.19681664041E+02  0.10157469895E+02  0.32083259952E+02  0.38985608412E+02  0.00000000000E+00 0. -1.
</event>
<event>
 4    1  0.2293753E+005  0.2350677E+02  0.7546771E-02  0.1486231E+00
          2   -1    0    0  503    0  0.00000000000E+00  0.00000000000E+00  0.14653615822E+03  0.14653615822E+03  0.00000000000E+00 0.  1.
         21   -1    0    0  501  502 -0.00000000000E+00 -0.00000000000E+00 -0.10460972387E+03  0.10460972387E+03  0.00000000000E+00 0. -1.
          2    1    1    2  501    0 -0.10631051691E+02 -0.20965420769E+02  0.14425212305E+03  0.14615486011E+03  0.00000000000E+00 0.  1.
         21    1    1    2  503  502  0.10631051691E+02  0.20965420769E+02 -0.10232568870E+03  0.10499102198E+03  0.00000000000E+00 0. -1.
</event>
<event>
 4    1  0.2293753E+005  0.2626982E+02  0.7546771E-02  0.1455084E+00
          2   -1    0    0  503    0  0.00000000000E+00  0.00000000000E+00  0.17759419988E+03  0.17759419988E+03  0.00000000000E+00 0.  1.
         21   -1    0    0  501  502 -0.00000000000E+00 -0.00000000000E+00 -0.42760793907E+01  0.42760793907E+01  0.00000000000E+00 0.  1.
          2    1    1    2  501    0  0.10484219926E+02 -0.24087023044E+02  0.59188242496E+02  0.64756093121E+02  0.00000000000E+00 0.  1.
         21    1    1    2  503  502 -0.10484219926E+02  0.24087023044E+02  0.11412987799E+03  0.11711418615E+03  0.00000000000E+00 0.  1.
</event>
<event>
 4    1  0.2293753E+005  0.4167307E+02  0.7546771E-02  0.1338951E+00
          2   -1    0    0  502    0  0.00000000000E+00  0.00000000000E+00  0.41341114771E+03  0.41341114771E+03  0.00000000000E+00 0. -1.
         21   -1    0    0  503  502 -0.00000000000E+00 -0.00000000000E+00 -0.17190477271E+03  0.17190477271E+03  0.00000000000E+00 0. -1.
          2    1    1    2  501    0 -0.41588689082E+02 -0.26506720615E+01  0.40981324738E+03  0.41192662314E+03  0.00000000000E+00 0. -1.
         21    1    1    2  503  501  0.41588689082E+02  0.26506720615E+01 -0.16830687238E+03  0.17338929728E+03  0.00000000000E+00 0. -1.
</event>
<event>
 4    1  0.2293753E+005  0.2190850E+02  0.7546771E-02  0.1506679E+00
          2   -1    0    0  503    0  0.00000000000E+00  0.00000000000E+00  0.82548989850E+03  0.82548989850E+03  0.00000000000E+00 0.  1.
         21   -1    0    0  501  502 -0.00000000000E+00 -0.00000000000E+00 -0.13179283483E+01  0.13179283483E+01  0.00000000000E+00 0.  1.
          2    1    1    2  501    0 -0.16381123036E+02 -0.14547899059E+02  0.72112133112E+03  0.72145405727E+03  0.00000000000E+00 0.  1.
         21    1    1    2  503  502  0.16381123036E+02  0.14547899059E+02  0.10305063903E+03  0.10535376958E+03  0.00000000000E+00 0.  1.
</event>
<event>
 4    1  0.2293753E+005  0.3097906E+02  0.7546771E-02  0.1411275E+00
          2   -1    0    0  502    0  0.00000000000E+00  0.00000000000E+00  0.28351278030E+03  0.28351278030E+03  0.00000000000E+00 0. -1.
         21   -1    0    0  503  502 -0.00000000000E+00 -0.00000000000E+00 -0.64749492048E+01  0.64749492048E+01  0.00000000000E+00 0. -1.
          2    1    1    2  501    0  0.20639469732E+02 -0.23102260626E+02  0.23868121553E+03  0.24068324579E+03  0.00000000000E+00 0. -1.
         21    1    1    2  503  501 -0.20639469732E+02  0.23102260626E+02  0.38356615565E+02  0.49304483715E+02  0.00000000000E+00 0. -1.
</event>
<event>
 4    1  0.2293753E+005  0.2043666E+02  0.7546771E-02  0.1527462E+00
          2   -1    0    0  503    0  0.00000000000E+00  0.00000000000E+00  0.15873363105E+02  0.15873363105E+02  0.00000000000E+00 0.  1.
         21   -1    0    0  501  502 -0.00000000000E+00 -0.00000000000E+00 -0.26313180802E+02  0.26313180802E+02  0.00000000000E+00 0.  1.
          2    1    1    2  501    0 -0.20116641965E+02  0.36024854272E+01 -0.53712030097E+01  0.21130712410E+02  0.00000000000E+00 0.  1.
         21    1    1    2  503  502  0.20116641965E+02 -0.36024854272E+01 -0.50686146869E+01  0.21055831497E+02  0.00000000000E+00 0.  1.
</event>
<event>
 4    1  0.2293753E+005  0.2731161E+02  0.7546771E-02  0.1444503E+00
          2   -1    0    0  503    0  0.00000000000E+00  0.00000000000E+00  0.73285320790E+03  0.73285320790E+03  0.00000000000E+00 0. -1.
         21   -1    0    0  501  502 -0.00000000000E+00 -0.00000000000E+00 -0.18117486674E+01  0.18117486674E+01  0.00000000000E+00 0. -1.
          2    1    1    2  501    0  0.26722338307E+02 -0.56427622762E+01  0.60868334816E+03  0.60929577584E+03  0.00000000000E+00 0. -1.
         21    1    1    2  503  502 -0.26722338307E+02  0.56427622762E+01  0.12235811107E+03  0.12536918072E+03  0.00000000000E+00 0. -1.
</event>
<event>
 4    1  0.2293753E+005  0.2397006E+02  0.7546771E-02  0.1480664E+00
          2   -1    0    0  503    0  0.00000000000E+00  0.00000000000E+00  0.39628206445E+01  0.39628206445E+01  0.00000000000E+00 0. -1.
         21   -1    0    0  501  502 -0.00000000000E+00 -0.00000000000E+00 -0.22713271986E+03  0.22713271986E+03  0.00000000000E+00 0. -1.
          2    1    1    2  501    0 -0.22473514530E+02 -0.83369614805E+01 -0.42096922359E+02  0.48442900968E+02  0.00000000000E+00 0. -1.
         21    1    1    2  503  502  0.22473514530E+02  0.83369614805E+01 -0.18107297686E+03  0.18265263954E+03  0.00000000000E+00 0. -1.
</event>
<event>
 4    1  0.2293753E+005  0.2300186E+02  0.7546771E-02  0.1492475E+00
          2   -1    0    0  503    0  0.00000000000E+00  0.00000000000E+00  0.49374960527E+03  0.49374960527E+03  0.00000000000E+00 0. -1.
         21   -1    0    0  501  502 -0.00000000000E+00 -0.00000000000E+00 -0.90202215446E+01  0.90202215446E+01  0.00000000000E+00 0.  1.
          2    1    1    2  501    0  0.20687617234E+02  0.10055250680E+02  0.47834590595E+03  0.47889862321E+03  0.00000000000E+00 0. -1.
         21    1    1    2  503  502 -0.20687617234E+02 -0.10055250680E+02  0.63834777761E+01  0.23871203605E+02  0.00000000000E+00 0.  1.
</event>
<event>
 4    1  0.2293753E+005  0.2301144E+02  0.7546771E-02  0.1492354E+00
          2   -1    0    0  503    0  0.00000000000E+00  0.00000000000E+00  0.46401584052E+02  0.46401584052E+02  0.00000000000E+00 0.  1.
         21   -1    0    0  501  502 -0.00000000000E+00 -0.00000000000E+00 -0.64219045936E+02  0.64219045936E+02  0.00000000000E+00 0.  1.
          2    1    1    2  501    0 -0.17071294618E+01 -0.22948034377E+02  0.41247036479E+02  0.47231817571E+02  0.00000000000E+00 0.  1.
         21    1    1    2  503  502  0.17071294618E+01  0.22948034377E+02 -0.59064498363E+02  0.63388812417E+02  0.00000000000E+00 0.  1.
</event>
<event>
 4    1  0.2293753E+005  0.2214701E+02  0.7546771E-02  0.1503496E+00
          2   -1    0    0  503    0  0.00000000000E+00  0.00000000000E+00  0.13454407675E+04  0.13454407675E+04  0.00000000000E+00 0. -1.
         21   -1    0    0  501  502 -0.00000000000E+00 -0.00000000000E+00 -0.59060536605E+00  0.59060536605E+00  0.00000000000E+00 0. -1.
          2    1    1    2  501    0  0.44633801792E+01 -0.21692581602E+02  0.10887929157E+04  0.10890181372E+04  0.00000000000E+00 0. -1.
         21    1    1    2  503  502 -0.44633801792E+01  0.21692581602E+02  0.25605724642E+03  0.25701323566E+03  0.00000000000E+00 0. -1.
</event>
<event>
 4    1  0.2293753E+005  0.2404924E+02  0.7546771E-02  0.1479727E+00
          2   -1    0    0  502    0  0.00000000000E+00  0.00000000000E+00  0.25013453576E+03  0.25013453576E+03  0.00000000000E+00 0.  1.
         21   -1    0    0  503  502 -0.00000000000E+00 -0.00000000000E+00 -0.68918435591E+01  0.68918435591E+01  0.00000000000E+00 0.  1.
          2    1    1    2  501    0 -0.16739866464E+02 -0.17266813917E+02  0.22638120477E+03  0.22765503699E+03  0.00000000000E+00 0.  1.
         21    1    1    2  503  501  0.16739866464E+02  0.17266813917E+02  0.16861487433E+02  0.29371342335E+02  0.00000000000E+00 0.  1.
</event>
<event>
 4    1  0.2293753E+005  0.4607502E+02  0.7546771E-02  0.1316150E+00
          2   -1    0    0  502    0  0.00000000000E+00  0.00000000000E+00  0.62428921687E+02  0.62428921687E+02  0.00000000000E+00 0.  1.
         21   -1    0    0  503  502 -0.00000000000E+00 -0.00000000000E+00 -0.42459905938E+02  0.42459905938E+02  0.00000000000E+00 0.  1.
          2    1    1    2  501    0 -0.45634189685E+02 -0.63582856154E+01  0.33386851229E+02  0.56899814579E+02  0.00000000000E+00 0.  1.
         21    1    1    2  503  501  0.45634189685E+02  0.63582856154E+01 -0.13417835480E+02  0.47989013046E+02  0.00000000000E+00 0.  1.
</event>
<event>
 4    1  0.2293753E+005  0.2257787E+02  0.7546771E-02  0.1497868E+00
          2   -1    0    0  503    0  0.00000000000E+00  0.00000000000E+00  0.14909709835E+04  0.14909709835E+04  0.00000000000E+00 0. -1.
         21   -1    0    0  501  502 -0.00000000000E+00 -0.00000000000E+00 -0.76400139084E+00  0.76400139084E+00  0.00000000000E+00 0.  1.
          2    1    1    2  501    0 -0.22152945722E+02  0.43597039041E+01  0.12995045061E+04  0.12997006276E+04  0.00000000000E+00 0. -1.
         21    1    1    2  503  502  0.22152945722E+02 -0.43597039041E+01  0.19070247604E+03  0.19203435731E+03  0.00000000000E+00 0.  1.
</event>
<event>
 4    1  0.2293753E+005  0.3897957E+02  0.7546771E-02  0.1354571E+00
          2   -1    0    0  502    0  0.00000000000E+00  0.00000000000E+00  0.18332112251E+04  0.18332112251E+04  0.00000000000E+00 0. -1.
         21   -1    0    0  503  502 -0.00000000000E+00 -0.00000000000E+00 -0.18226894142E+01  0.18226894142E+01  0.00000000000E+00 0. -1.
          2    1    1    2  501    0  0.18647742893E+02 -0.34229647570E+02  0.15932138242E+04  0.15936905900E+04  0.00000000000E+00 0. -1.
         21    1    1    2  503  501 -0.18647742893E+02  0.34229647570E+02  0.23817471147E+03  0.24134332448E+03  0.00000000000E+00 0. -1.
</event>
<event>
 4    1  0.2293753E+005  0.2056822E+02  0.7546771E-02  0.1525520E+00
          2   -1    0    0  502    0  0.00000000000E+00  0.00000000000E+00  0.19830171612E+02  0.19830171612E+02  0.00000000000E+00 0.  1.
         21   -1    0    0  503  502 -0.00000000000E+00 -0.00000000000E+00 -0.26055708989E+02  0.26055708989E+02  0.00000000000E+00 0. -1.
          2    1    1    2  501    0  0.27764995372E+01 -0.20379954545E+02  0.66541983589E+01  0.21617813320E+02  0.00000000000E+00 0.  1.
         21    1    1    2  503  501 -0.27764995372E+01  0.20379954545E+02 -0.12879735735E+02  0.24268067281E+02  0.00000000000E+00 0. -1.
</event>
<event>
 4    1  0.2293753E+005  0.3328043E+02  0.7546771E-02  0.1393073E+00
          2   -1    0    0  503    0  0.00000000000E+00  0.00000000000E+00  0.11008365269E+03  0.11008365269E+03  0.00000000000E+00 0. -1.
         21   -1    0    0  501  502 -0.00000000000E+00 -0.00000000000E+00 -0.19263057098E+02  0.19263057098E+02  0.00000000000E+00 0. -1.
          2    1    1    2  501    0  0.75307388351E+01  0.32417203031E+02  0.90109281293E+02  0.96058678186E+02  0.00000000000E+00 0. -1.
         21    1    1    2  503  502 -0.75307388351E+01 -0.32417203031E+02  0.71131429833E+00  0.33288031600E+02  0.00000000000E+00 0. -1.
</event>
<event>
 4    1  0.2293753E+005  0.5715123E+02  0.7546771E-02  0.1269831E+00
          2   -1    0    0  502    0  0.00000000000E+00  0.00000000000E+00  0.15244046876E+02  0.15244046876E+02  0.00000000000E+00 0. -1.
         21   -1    0    0  503  502 -0.00000000000E+00 -0.00000000000E+00 -0.23328415458E+03  0.23328415458E+03  0.00000000000E+00 0. -1.
          2    1    1    2  501    0  0.50993326642E+02  0.25805875524E+02 -0.73538632468E+02  0.93135347956E+02  0.00000000000E+00 0. -1.
         21    1    1    2  503  501 -0.50993326642E+02 -0.25805875524E+02 -0.14450147524E+03  0.15539285350E+03  0.00000000000E+00 0. -1.
</event>
<event>
 4    1  0.2293753E+005  0.2221126E+02  0.7546771E-02  0.1502647E+00
          2   -1    0    0  503    0  0.00000000000E+00  0.00000000000E+00  0.31760638271E+03  0.31760638271E+03  0.00000000000E+00 0. -1.
         21   -1    0    0  501  502 -0.00000000000E+00 -0.00000000000E+00 -0.16397519192E+01  0.16397519192E+01  0.00000000000E+00 0.  1.
          2    1    1    2  501    0 -0.57936439795E+01 -0.21442334706E+02  0.19463363885E+03  0.19589689482E+03  0.00000000000E+00 0. -1.
         21    1    1    2  503  502  0.57936439795E+01  0.21442334706E+02  0.12133299195E+03  0.12334923982E+03  0.00000000000E+00 0.  1.
</event>
<event>
 4    1  0.2293753E+005  0.2098041E+02  0.7546771E-02  0.1519545E+00
          2   -1    0    0  503    0  0.00000000000E+00  0.00000000000E+00  0.17284665914E+03  0.17284665914E+03  0.00000000000E+00 0. -1.
         21   -1    0    0  501  502 -0.00000000000E+00 -0.00000000000E+00 -0.17517744461E+03  0.17517744461E+03  0.00000000000E+00 0.  1.
          2    1    1    2  501    0 -0.37970213390E+01  0.20633956060E+02  0.17157718146E+03  0.17285516108E+03  0.00000000000E+00 0. -1.
         21    1    1    2  503  502  0.37970213390E+01 -0.20633956060E+02 -0.17390796693E+03  0.17516894267E+03  0.00000000000E+00 0.  1.
</event>
<event>
 4    1  0.2293753E+005  0.2375422E+02  0.7546771E-02  0.1483239E+00
          2   -1    0    0  502    0  0.00000000000E+00  0.00000000000E+00  0.73512470674E+03  0.73512470674E+03  0.00000000000E+00 0. -1.
         21   -1    0    0  503  502 -0.00000000000E+00 -0.00000000000E+00 -0.51090316351E+02  0.51090316351E+02  0.00000000000E+00 0.  1.
          2    1    1    2  501    0  0.57761064377E+01  0.23041253998E+02  0.73216053330E+03  0.73254577285E+03  0.00000000000E+00 0. -1.
         21    1    1    2  503  501 -0.57761064377E+01 -0.23041253998E+02 -0.48126142906E+02  0.53669250250E+02  0.00000000000E+00 0.  1.
</event>
<event>
 4    1  0.2293753E+005  0.5822069E+02  0.7546771E-02  0.1266001E+00
          2   -1    0    0  503    0  0.00000000000E+00  0.00000000000E+00  0.43273624825E+02  0.43273624825E+02  0.00000000000E+00 0. -1.
         21   -1    0    0  501  502 -0.00000000000E+00 -0.00000000000E+00 -0.26899101340E+03  0.26899101340E+03  0.00000000000E+00 0.  1.
          2    1    1    2  501    0 -0.54555128868E+02  0.20331900173E+02  0.18589374474E+02  0.61116389731E+02  0.00000000000E+00 0. -1.
         21    1    1    2  503  502  0.54555128868E+02 -0.20331900173E+02 -0.24430676305E+03  0.25114824850E+03  0.00000000000E+00 0.  1.
</event>
<event>
 4    1  0.2293753E+005  0.2149232E+02  0.7546771E-02  0.1512351E+00
          2   -1    0    0  502    0  0.00000000000E+00  0.00000000000E+00  0.13166226375E+04  0.13166226375E+04  0.00000000000E+00 0.  1.
         21   -1    0    0  503  502 -0.00000000000E+00 -0.00000000000E+00 -0.18745347497E+02  0.18745347497E+02  0.00000000000E+00 0.  1.
          2    1    1    2  501    0  0.14143753705E+02  0.16182518063E+02  0.13103449590E+04  0.13105212059E+04  0.00000000000E+00 0.  1.
         21    1    1    2  503  501 -0.14143753705E+02 -0.16182518063E+02 -0.12467668987E+02  0.24846779061E+02  0.00000000000E+00 0.  1.
</event>
<event>
 4    1  0.2293753E+005  0.2576971E+02  0.7546771E-02  0.1460374E+00
          2   -1    0    0  502    0  0.00000000000E+00  0.00000000000E+00  0.16956247639E+04  0.16956247639E+04  0.00000000000E+00 0.  1.
         21   -1    0    0  503  502 -0.00000000000E+00 -0.00000000000E+00 -0.73522456045E+01  0.73522456045E+01  0.00000000000E+00 0. -1.
          2    1    1    2  501    0  0.79651085355E+01 -0.24507860491E+02  0.16726357226E+04  0.16728342233E+04  0.00000000000E+00 0.  1.
         21    1    1    2  503  501 -0.79651085355E+01  0.24507860491E+02  0.15636795705E+02  0.30142786198E+02  0.00000000000E+00 0. -1.
</event>
<event>
 4    1  0.2293753E+005  0.2300009E+02  0.7546771E-02  0.1492497E+00
          2   -1    0    0  502    0  0.00000000000E+00  0.00000000000E+00  0.14831814902E+02  0.14831814902E+02  0.00000000000E+00 0. -1.
         21   -1    0    0  503  502 -0.00000000000E+00 -0.00000000000E+00 -0.79783409995E+02  0.79783409995E+02  0.00000000000E+00 0. -1.
          2    1    1    2  501    0 -0.21715094016E+02  0.75801674725E+01  0.27025560978E+01  0.23158325857E+02  0.00000000000E+00 0. -1.
         21    1    1    2  503  501  0.21715094016E+02 -0.75801674725E+01 -0.67654151191E+02  0.71456899040E+02  0.00000000000E+00 0. -1.
</event>
<event>
 4    1  0.2293753E+005  0.3496830E+02  0.7546771E-02  0.1380786E+00
          2   -1    0    0  503    0  0.00000000000E+00  0.00000000000E+00  0.67626877705E+03  0.67626877705E+03  0.00000000000E+00 0. -1.
         21   -1    0    0  501  502 -0.00000000000E+00 -0.00000000000E+00 -0.18217065639E+01  0.18217065639E+01  0.00000000000E+00 0. -1.
          2    1    1    2  501    0  0.33478737258E+02  0.10097322296E+02  0.30795400912E+03  0.30993298227E+03  0.00000000000E+00 0. -1.
         21    1    1    2  503  502 -0.33478737258E+02 -0.10097322296E+02  0.36649306136E+03  0.36815750134E+03  0.00000000000E+00 0. -1.
</event>
<event>
 4    1  0.2293753E+005  0.3863478E+02  0.7546771E-02  0.1356677E+00
          2   -1    0    0  503    0  0.00000000000E+00  0.00000000000E+00  0.13649683781E+03  0.13649683781E+03  0.00000000000E+00 0. -1.
         21   -1    0    0  501  502 -0.00000000000E+00 -0.00000000000E+00 -0.13978915231E+03  0.13978915231E+03  0.00000000000E+00 0. -1.
          2    1    1    2  501    0 -0.71546024652E+01 -0.37966534350E+02  0.13098351150E+03  0.13656253641E+03  0.00000000000E+00 0. -1.
         21    1    1    2  503  502  0.71546024652E+01  0.37966534350E+02 -0.13427582600E+03  0.13972345370E+03  0.00000000000E+00 0. -1.
</event>
<event>
 4    1  0.2293753E+005  0.2254879E+02  0.7546771E-02  0.1498243E+00
          2   -1    0    0  503    0  0.00000000000E+00  0.00000000000E+00  0.44180973834E+02  0.44180973834E+02  0.00000000000E+00 0. -1.
         21   -1    0    0  501  502 -0.00000000000E+00 -0.00000000000E+00 -0.11513128840E+02  0.11513128840E+02  0.00000000000E+00 0. -1.
          2    1    1    2  501    0 -0.10134010725E+02 -0.20143232470E+02  0.15763737448E+02  0.27512604494E+02  0.00000000000E+00 0. -1.
         21    1    1    2  503  502  0.10134010725E+02  0.20143232470E+02  0.16904107546E+02  0.28181498180E+02  0.00000000000E+00 0. -1.
</event>
<event>
 4    1  0.2293753E+005  0.2513787E+02  0.7546771E-02  0.1467267E+00
          2   -1    0    0  502    0  0.00000000000E+00  0.00000000000E+00  0.74332290514E+03  0.74332290514E+03  0.00000000000E+00 0.  1.
         21   -1    0    0  503  502 -0.00000000000E+00 -0.00000000000E+00 -0.16149314880E+02  0.16149314880E+02  0.00000000000E+00 0.  1.
          2    1    1    2  501    0  0.67562032266E+01 -0.24212937118E+02  0.73319291584E+03  0.73362372130E+03  0.00000000000E+00 0.  1.
         21    1    1    2  503  501 -0.67562032266E+01  0.24212937118E+02 -0.60193255819E+01  0.25848498726E+02  0.00000000000E+00 0.  1.
</event>
<event>
 4    1  0.2293753E+005  0.5089123E+02  0.7546771E-02  0.1294354E+00
          2   -1    0    0  502    0  0.00000000000E+00  0.00000000000E+00  0.79862079967E+03  0.79862079967E+03  0.00000000000E+00 0.  1.
         21   -1    0    0  503  502 -0.00000000000E+00 -0.00000000000E+00 -0.66104469067E+01  0.66104469067E+01  0.00000000000E+00 0. -1.
          2    1    1    2  501    0  0.34335154516E+02 -0.37563478014E+02  0.68336520706E+03  0.68525756029E+03  0.00000000000E+00 0.  1.
         21    1    1    2  503  501 -0.34335154516E+02  0.37563478014E+02  0.10864514571E+03  0.11997368629E+03  0.00000000000E+00 0. -1.
</event>
<event>
 4    1  0.2293753E+005  0.2444261E+02  0.7546771E-02  0.1475136E+00
          2   -1    0    0  503    0  0.00000000000E+00  0.00000000000E+00  0.79157515028E+03  0.79157515028E+03  0.00000000000E+00 0. -1.
         21   -1    0    0  501  502 -0.00000000000E+00 -0.00000000000E+00 -0.89213451826E+02  0.89213451826E+02  0.00000000000E+00 0.  1.
          2    1    1    2  501    0 -0.20810866844E+02 -0.12819875909E+02  0.78970831510E+03  0.79008649168E+03  0.00000000000E+00 0. -1.
         21    1    1    2  503  502  0.20810866844E+02  0.12819875909E+02 -0.87346616644E+02  0.90702110429E+02  0.00000000000E+00 0.  1.
</event>
<event>
 4    1  0.2293753E+005  0.2062797E+02  0.7546771E-02  0.1524643E+00
          2   -1    0    0  502    0  0.00000000000E+00  0.00000000000E+00  0.14523001832E+04  0.14523001832E+04  0.00000000000E+00 0. -1.
         21   -1    0    0  503  502 -0.00000000000E+00 -0.00000000000E+00 -0.12661871311E+01  0.12661871311E+01  0.00000000000E+00 0. -1.
          2    1    1    2  501    0 -0.12912866018E+02  0.16086360792E+02  0.13626876553E+04  0.13628437765E+04  0.00000000000E+00 0. -1.
         21    1    1    2  503  501  0.12912866018E+02 -0.16086360792E+02  0.88346340719E+02  0.90722593827E+02  0.00000000000E+00 0. -1.
</event>
<event>
 4    1  0.2293753E+005  0.2083983E+02  0.7546771E-02  0.1521564E+00
          2   -1    0    0  502    0  0.00000000000E+00  0.00000000000E+00  0.78741708768E+02  0.78741708768E+02  0.00000000000E+00 0.  1.
         21   -1    0    0  503  502 -0.00000000000E+00 -0.00000000000E+00 -0.67296910776E+01  0.67296910776E+01  0.00000000000E+00 0. -1.
          2    1    1    2  501    0 -0.14592951924E+02  0.14877637497E+02  0.54158669914E+02  0.58029818802E+02  0.00000000000E+00 0.  1.
         21    1    1    2  503  501  0.14592951924E+02 -0.14877637497E+02  0.17853347777E+02  0.27441581044E+02  0.00000000000E+00 0. -1.
</event>
<event>
 4    1  0.2293753E+005  0.2270199E+02  0.7546771E-02  0.1496275E+00
          2   -1    0    0  503    0  0.00000000000E+00  0.00000000000E+00  0.19310164999E+02  0.19310164999E+02  0.00000000000E+00 0. -1.
         21   -1    0    0  501  502 -0.00000000000E+00 -0.00000000000E+00 -0.59200498803E+02  0.59200498803E+02  0.00000000000E+00 0. -1.
          2    1    1    2  501    0 -0.22655933382E+02 -0.14454115087E+01  0.91452855080E+01  0.24474819281E+02  0.00000000000E+00 0. -1.
         21    1    1    2  503  502  0.22655933382E+02  0.14454115087E+01 -0.49035619312E+02  0.54035844521E+02  0.00000000000E+00 0. -1.
</event>
<event>
 4    1  0.2293753E+005  0.2484878E+02  0.7546771E-02  0.1470502E+00
          2   -1    0    0  502    0  0.00000000000E+00  0.00000000000E+00  0.45864849473E+03  0.45864849473E+03  0.00000000000E+00 0. -1.
         21   -1    0    0  503  502 -0.00000000000E+00 -0.00000000000E+00 -0.16779139502E+02  0.16779139502E+02  0.00000000000E+00 0. -1.
          2    1    1    2  501    0 -0.87207354959E+01 -0.23268227118E+02  0.44891271999E+03  0.44959992415E+03  0.00000000000E+00 0. -1.
         21    1    1    2  503  501  0.87207354959E+01  0.23268227118E+02 -0.70433647693E+01  0.25827710082E+02  0.00000000000E+00 0. -1.
</event>
<event>
 4    1  0.2293753E+005  0.2277157E+02  0.7546771E-02  0.1495387E+00
          2   -1    0    0  502    0  0.00000000000E+00  0.00000000000E+00  0.17465826268E+03  0.17465826268E+03  0.00000000000E+00 0. -1.
         21   -1    0    0  503  502 -0.00000000000E+00 -0.00000000000E+00 -0.74061261122E+01  0.74061261122E+01  0.00000000000E+00 0.  1.
          2    1    1    2  501    0 -0.22508589534E+02 -0.34507715532E+01  0.15408804409E+03  0.15576157986E+03  0.00000000000E+00 0. -1.
         21    1    1    2  503  501  0.22508589534E+02  0.34507715532E+01  0.13164092472E+02  0.26302808933E+02  0.00000000000E+00 0.  1.
</event>
<event>
 4    1  0.2293753E+005  0.2389679E+02  0.7546771E-02  0.1481534E+00
          2   -1    0    0  502    0  0.00000000000E+00  0.00000000000E+00  0.41299527117E+03  0.41299527117E+03  0.00000000000E+00 0.  1.
         21   -1    0    0  503  502 -0.00000000000E+00 -0.00000000000E+00 -0.19674429815E+01  0.19674429815E+01  0.00000000000E+00 0.  1.
          2    1    1    2  501    0 -0.14266049295E+02  0.19171238791E+02  0.31862451765E+03  0.31951938878E+03  0.00000000000E+00 0.  1.
         21    1    1    2  503  501  0.14266049295E+02 -0.19171238791E+02  0.92403310534E+02  0.95443325366E+02  0.00000000000E+00 0.  1.
</event>
<event>
 4    1  0.2293753E+005  0.2171602E+02  0.7546771E-02  0.1509283E+00
          2   -1    0    0  503    0  0.00000000000E+00  0.00000000000E+00  0.58619257435E+03  0.58619257435E+03  0.00000000000E+00 0.  1.
         21   -1    0    0  501  502 -0.00000000000E+00 -0.00000000000E+00 -0.15939564971E+02  0.15939564971E+02  0.00000000000E+00 0. -1.
          2    1    1    2  501    0  0.21715302477E+02 -0.17713716049E+00  0.57849662374E+03  0.57890407618E+03  0.00000000000E+00 0.  1.
         21    1    1    2  503  502 -0.21715302477E+02  0.17713716049E+00 -0.82436143663E+01  0.23228063137E+02  0.00000000000E+00 0. -1.
</event>
<event>
 4    1  0.2293753E+005  0.2486236E+02  0.7546771E-02  0.1470349E+00
          2   -1    0    0  502    0  0.00000000000E+00  0.00000000000E+00  0.37764214694E+03  0.37764214694E+03  0.00000000000E+00 0.  1.
         21   -1    0    0  503  502 -0.00000000000E+00 -0.00000000000E+00 -0.27736680236E+02  0.27736680236E+02  0.00000000000E+00 0.  1.
          2    1    1    2  501    0 -0.11584302219E+02  0.21998653435E+02  0.37157052594E+03  0.37240138636E+03  0.00000000000E+00 0.  1.
         21    1    1    2  503  501  0.11584302219E+02 -0.21998653435E+02 -0.21665059242E+02  0.32977440817E+02  0.00000000000E+00 0.  1.
</event>
<event>
 4    1  0.2293753E+005  0.2590065E+02  0.7546771E-02  0.1458975E+00
          2   -1    0    0  503    0  0.00000000000E+00  0.00000000000E+00  0.67176691776E+03  0.67176691776E+03  0.00000000000E+00 0.  1.
         21   -1    0    0  501  502 -0.00000000000E+00 -0.00000000000E+00 -0.29241130944E+02  0.29241130944E+02  0.00000000000E+00 0.  1.
          2    1    1    2  501    0 -0.23896406700E+01  0.25790173609E+02  0.66572982624E+03  0.66623347633E+03  0.00000000000E+00 0.  1.
         21    1    1    2  503  502  0.23896406700E+01 -0.25790173609E+02 -0.23204039432E+02  0.34774572366E+02  0.00000000000E+00 0.  1.
</event>
<event>
 4    1  0.2293753E+005  0.2037701E+02  0.7546771E-02  0.1528348E+00
          2   -1    0    0  503    0  0.00000000000E+00  0.00000000000E+00  0.45934947183E+03  0.45934947183E+03  0.00000000000E+00 0. -1.
         21   -1    0    0  501  502 -0.00000000000E+00 -0.00000000000E+00 -0.54524655092E+01  0.54524655092E+01  0.00000000000E+00 0.  1.
          2    1    1    2  501    0  0.98186238022E+01  0.17855456893E+02  0.43921280370E+03  0.43968523929E+03  0.00000000000E+00 0. -1.
         21    1    1    2  503  502 -0.98186238022E+01 -0.17855456893E+02  0.14684202614E+02  0.25116698044E+02  0.00000000000E+00 0.  1.
</event>
<event>
 4    1  0.2293753E+005  0.2122111E+02  0.7546771E-02  0.1516131E+00
          2   -1    0    0  503    0  0.00000000000E+00  0.00000000000E+00  0.88772232793E+03  0.88772232793E+03  0.00000000000E+00 0.  1.
         21   -1    0    0  501  502 -0.00000000000E+00 -0.00000000000E+00 -0.35554410040E+01  0.35554410040E+01  0.00000000000E+00 0.  1.
          2    1    1    2  501    0 -0.33123305877E+01  0.20961011078E+02  0.85470731495E+03  0.85497071865E+03  0.00000000000E+00 0.  1.
         21    1    1    2  503  502  0.33123305877E+01 -0.20961011078E+02  0.29459571976E+02  0.36307050284E+02  0.00000000000E+00 0.  1.
</event>
<event>
 4    1  0.2293753E+005  0.2949981E+02  0.7546771E-02  0.1423994E+00
          2   -1    0    0  503    0  0.00000000000E+00  0.00000000000E+00  0.10671437040E+04  0.10671437040E+04  0.00000000000E+00 0. -1.
         21   -1    0    0  501  502 -0.00000000000E+00 -0.00000000000E+00 -0.13440680533E+01  0.13440680533E+01  0.00000000000E+00 0.  1.
          2    1    1    2  501    0  0.28652732737E+02  0.70185331844E+01  0.86793147870E+03  0.86843266326E+03  0.00000000000E+00 0. -1.
         21    1    1    2  503  502 -0.28652732737E+02 -0.70185331844E+01  0.19786815724E+03  0.20005510878E+03  0.00000000000E+00 0.  1.
</event>
<event>
 4    1  0.2293753E+005  0.2478289E+02  0.7546771E-02  0.1471247E+00
          2   -1    0    0  502    0  0.00000000000E+00  0.00000000000E+00  0.90521333548E+03  0.90521333548E+03  0.00000000000E+00 0. -1.
         21   -1    0    0  503  502 -0.00000000000E+00 -0.00000000000E+00 -0.75768595083E+03  0.75768595083E+03  0.00000000000E+00 0. -1.
          2    1    1    2  501    0 -0.23744806634E+02 -0.70975972633E+01  0.90484097207E+03  0.90518030053E+03  0.00000000000E+00 0. -1.
         21    1    1    2  503  501  0.23744806634E+02  0.70975972633E+01 -0.75731358742E+03  0.75771898578E+03  0.00000000000E+00 0. -1.
</event>
<event>
 4    1  0.2293753E+005  0.2049389E+02  0.7546771E-02  0.1526615E+00
          2   -1    0    0  503    0  0.00000000000E+00  0.00000000000E+00  0.57723197456E+03  0.57723197456E+03  0.00000000000E+00 0. -1.
         21   -1    0    0  501  502 -0.00000000000E+00 -0.00000000000E+00 -0.77579294021E+00  0.77579294021E+00  0.00000000000E+00 0. -1.
          2    1    1    2  501    0  0.20490359545E+02 -0.38054635850E+00  0.21620392231E+03  0.21717305466E+03  0.00000000000E+00 0. -1.
         21    1    1    2  503  502 -0.20490359545E+02  0.38054635850E+00  0.36025225931E+03  0.36083471283E+03  0.00000000000E+00 0. -1.
</event>
<event>
 4    1  0.2293753E+005  0.2862097E+02  0.7546771E-02  0.1431971E+00
          2   -1    0    0  503    0  0.00000000000E+00  0.00000000000E+00  0.10271508770E+02  0.10271508770E+02  0.00000000000E+00 0. -1.
         21   -1    0    0  501  502 -0.00000000000E+00 -0.00000000000E+00 -0.92099888972E+02  0.92099888972E+02  0.00000000000E+00 0.  1.
          2    1    1    2  501    0 -0.28390800850E+02 -0.36224977643E+01 -0.59657151868E+02  0.66167483192E+02  0.00000000000E+00 0. -1.
         21    1    1    2  503  502  0.28390800850E+02  0.36224977643E+01 -0.22171228334E+02  0.36203914550E+02  0.00000000000E+00 0.  1.
</event>
<event>
 4    1  0.2293753E+005  0.2060426E+02  0.7546771E-02  0.1524991E+00
          2   -1    0    0  503    0  0.00000000000E+00  0.00000000000E+00  0.26512519138E+02  0.26512519138E+02  0.00000000000E+00 0. -1.
         21   -1    0    0  501  502 -0.00000000000E+00 -0.00000000000E+00 -0.28286913572E+03  0.28286913572E+03  0.00000000000E+00 0.  1.
          2    1    1    2  501    0 -0.19721091463E+02 -0.59677440222E+01  0.22070373460E+02  0.30193323796E+02  0.00000000000E+00 0. -1.
         21    1    1    2  503  502  0.19721091463E+02  0.59677440222E+01 -0.27842699004E+03  0.27918833106E+03  0.00000000000E+00 0.  1.
</event>
<event>
 4    1  0.2293753E+005  0.4137767E+02  0.7546771E-02  0.1340596E+00
          2   -1    0    0  503    0  0.00000000000E+00  0.00000000000E+00  0.47819968187E+03  0.47819968187E+03  0.00000000000E+00 0. -1.
         21   -1    0    0  501  502 -0.00000000000E+00 -0.00000000000E+00 -0.67986330114E+02  0.67986330114E+02  0.00000000000E+00 0.  1.
          2    1    1    2  501    0  0.20424957225E+02 -0.35985171571E+02  0.47091155665E+03  0.47272593079E+03  0.00000000000E+00 0. -1.
         21    1    1    2  503  502 -0.20424957225E+02  0.35985171571E+02 -0.60698204900E+02  0.73460081192E+02  0.00000000000E+00 0.  1.
</event>
<event>
 4    1  0.2293753E+005  0.2636720E+02  0.7546771E-02  0.1454070E+00
          2   -1    0    0  503    0  0.00000000000E+00  0.00000000000E+00  0.14132344005E+03  0.14132344005E+03  0.00000000000E+00 0. -1.
         21   -1    0    0  501  502 -0.00000000000E+00 -0.00000000000E+00 -0.14981677606E+02  0.14981677606E+02  0.00000000000E+00 0.  1.
          2    1    1    2  501    0 -0.13229596241E+02 -0.22808042191E+02  0.12721964445E+03  0.12992331177E+03  0.00000000000E+00 0. -1.
         21    1    1    2  503  502  0.13229596241E+02  0.22808042191E+02 -0.87788200857E+00  0.26381805892E+02  0.00000000000E+00 0.  1.
</event>
<event>
 4    1  0.2293753E+005  0.2515884E+02  0.7546771E-02  0.1467034E+00
          2   -1    0    0  503    0  0.00000000000E+00  0.00000000000E+00  0.12691656446E+04  0.12691656446E+04  0.00000000000E+00 0.  1.
         21   -1    0    0  501  502 -0.00000000000E+00 -0.00000000000E+00 -0.18060281359E+01  0.18060281359E+01  0.00000000000E+00 0. -1.
          2    1    1    2  501    0 -0.23857668929E+02  0.79861553627E+01  0.11743487914E+04  0.11746182575E+04  0.00000000000E+00 0.  1.
         21    1    1    2  503  502  0.23857668929E+02 -0.79861553627E+01  0.93010825087E+02  0.96353415236E+02  0.00000000000E+00 0. -1.
</event>
<event>
 4    1  0.2293753E+005  0.2138034E+02  0.7546771E-02  0.1513903E+00
          2   -1    0    0  502    0  0.00000000000E+00  0.00000000000E+00  0.13863254836E+04  0.13863254836E+04  0.00000000000E+00 0. -1.
         21   -1    0    0  503  502 -0.00000000000E+00 -0.00000000000E+00 -0.70389813372E+00  0.70389813372E+00  0.00000000000E+00 0. -1.
          2    1    1    2  501    0 -0.20880021583E+02 -0.45982379881E+01  0.11984394134E+04  0.11986301125E+04  0.00000000000E+00 0. -1.
         21    1    1    2  503  501  0.20880021583E+02  0.45982379881E+01  0.18718217211E+03  0.18839926924E+03  0.00000000000E+00 0. -1.
</event>
<event>
 4    1  0.2293753E+005  0.2235433E+02  0.7546771E-02  0.1500769E+00
          2   -1    0    0  503    0  0.00000000000E+00  0.00000000000E+00  0.14129969140E+04  0.14129969140E+04  0.00000000000E+00 0. -1.
         21   -1    0    0  501  502 -0.00000000000E+00 -0.00000000000E+00 -0.55029264360E+00  0.55029264360E+00  0.00000000000E+00 0. -1.
          2    1    1    2  501    0 -0.14950576951E+02 -0.16619155776E+02  0.11287116378E+04  0.11289329818E+04  0.00000000000E+00 0. -1.
         21    1    1    2  503  502  0.14950576951E+02  0.16619155776E+02  0.28373498361E+03  0.28461422490E+03  0.00000000000E+00 0. -1.
</event>
<event>
 4    1  0.2293753E+005  0.2038918E+02  0.7546771E-02  0.1528167E+00
          2   -1    0    0  503    0  0.00000000000E+00  0.00000000000E+00  0.75612399072E+03  0.75612399072E+03  0.00000000000E+00 0.  1.
         21   -1    0    0  501  502 -0.00000000000E+00 -0.00000000000E+00 -0.68955380523E+02  0.68955380523E+02  0.00000000000E+00 0.  1.
          2    1    1    2  501    0 -0.14032222947E+02  0.14792415739E+02  0.75447604629E+03  0.75475149769E+03  0.00000000000E+00 0.  1.
         21    1    1    2  503  502  0.14032222947E+02 -0.14792415739E+02 -0.67307436095E+02  0.70327873549E+02  0.00000000000E+00 0.  1.
</event>
<event>
 4    1  0.2293753E+005  0.2194238E+02  0.7546771E-02  0.1506224E+00
          2   -1    0    0  503    0  0.00000000000E+00  0.00000000000E+00  0.56750372418E+02  0.56750372418E+02  0.00000000000E+00 0. -1.
         21   -1    0    0  501  502 -0.00000000000E+00 -0.00000000000E+00 -0.85661068934E+01  0.85661068934E+01  0.00000000000E+00 0. -1.
          2    1    1    2  501    0 -0.10152199013E+02 -0.19452527331E+02  0.27290240684E+02  0.35017498497E+02  0.00000000000E+00 0. -1.
         21    1    1    2  503  502  0.10152199013E+02  0.19452527331E+02  0.20894024841E+02  0.30298980815E+02  0.00000000000E+00 0. -1.
</event>
<event>
 4    1  0.2293753E+005  0.2077379E+02  0.7546771E-02  0.1522519E+00
          2   -1    0    0  502    0  0.00000000000E+00  0.00000000000E+00  0.10026431860E+04  0.10026431860E+04  0.00000000000E+00 0. -1.
         21   -1    0    0  503  502 -0.00000000000E+00 -0.00000000000E+00 -0.69676339917E+00  0.69676339917E+00  0.00000000000E+00 0. -1.
          2    1    1    2  501    0  0.19953103433E+02  0.57813501053E+01  0.81114505910E+03  0.81141102855E+03  0.00000000000E+00 0. -1.
         21    1    1    2  503  501 -0.19953103433E+02 -0.57813501053E+01  0.19080136351E+03  0.19192892086E+03  0.00000000000E+00 0. -1.
</event>
<event>
 4    1  0.2293753E+005  0.2817848E+02  0.7546771E-02  0.1436116E+00
          2   -1    0    0  502    0  0.00000000000E+00  0.00000000000E+00  0.17836808296E+04  0.17836808296E+04  0.00000000000E+00 0.  1.
         21   -1    0    0  503  502 -0.00000000000E+00 -0.00000000000E+00 -0.14970971329E+02  0.14970971329E+02  0.00000000000E+00 0.  1.
          2    1    1    2  501    0  0.28177354922E+02 -0.25187984601E+00  0.17702091988E+04  0.17704334594E+04  0.00000000000E+00 0.  1.
         21    1    1    2  503  501 -0.28177354922E+02  0.25187984601E+00 -0.14993405418E+01  0.28218341481E+02  0.00000000000E+00 0.  1.
</event>
<event>
 4    1  0.2293753E+005  0.4949226E+02  0.7546771E-02  0.1300389E+00
          2   -1    0    0  503    0  0.00000000000E+00  0.00000000000E+00  0.12502666480E+04  0.12502666480E+04  0.00000000000E+00 0. -1.
         21   -1    0    0  501  502 -0.00000000000E+00 -0.00000000000E+00 -0.17806663291E+03  0.17806663291E+03  0.00000000000E+00 0.  1.
          2    1    1    2  501    0  0.40152715963E+02 -0.28935153614E+02  0.12463269905E+04  0.12473092844E+04  0.00000000000E+00 0. -1.
         21    1    1    2  503  502 -0.40152715963E+02  0.28935153614E+02 -0.17412697545E+03  0.18102399646E+03  0.00000000000E+00 0.  1.
</event>
<event>
 4    1  0.2293753E+005  0.2368589E+02  0.7546771E-02  0.1484060E+00
          2   -1    0    0  503    0  0.00000000000E+00  0.00000000000E+00  0.19897126230E+03  0.19897126230E+03  0.00000000000E+00 0.  1.
         21   -1    0    0  501  502 -0.00000000000E+00 -0.00000000000E+00 -0.43418341035E+02  0.43418341035E+02  0.00000000000E+00 0. -1.
          2    1    1    2  501    0 -0.23674062925E+02  0.74842602223E+00  0.19496998318E+03  0.19640345144E+03  0.00000000000E+00 0.  1.
         21    1    1    2  503  502  0.23674062925E+02 -0.74842602223E+00 -0.39417061910E+02  0.45986151899E+02  0.00000000000E+00 0. -1.
</event>
<event>
 4    1  0.2293753E+005  0.2664315E+02  0.7546771E-02  0.1451226E+00
          2   -1    0    0  502    0  0.00000000000E+00  0.00000000000E+00  0.68630614903E+02  0.68630614903E+02  0.00000000000E+00 0.  1.
         21   -1    0    0  503  502 -0.00000000000E+00 -0.00000000000E+00 -0.12067887728E+02  0.12067887728E+02  0.00000000000E+00 0.  1.
          2    1    1    2  501    0  0.25908688082E+02  0.62126723750E+01  0.43535237418E+02  0.51040908232E+02  0.00000000000E+00 0.  1.
         21    1    1    2  503  501 -0.25908688082E+02 -0.62126723750E+01  0.13027489757E+02  0.29657594399E+02  0.00000000000E+00 0.  1.
</event>
<event>
 4    1  0.2293753E+005  0.3483399E+02  0.7546771E-02  0.1381734E+00
          2   -1    0    0  502    0  0.00000000000E+00  0.00000000000E+00  0.15651277997E+04  0.15651277997E+04  0.00000000000E+00 0.  1.
         21   -1    0    0  503  502 -0.00000000000E+00 -0.00000000000E+00 -0.24359771872E+02  0.24359771872E+02  0.00000000000E+00 0. -1.
          2    1    1    2  501    0  0.86675026822E+01  0.33738422955E+02  0.15523787445E+04  0.15527695171E+04  0.00000000000E+00 0.  1.
         21    1    1    2  503  501 -0.86675026822E+01 -0.33738422955E+02 -0.11610716652E+02  0.36718054516E+02  0.00000000000E+00 0. -1.
</event>
<event>
 4    1  0.2293753E+005  0.3080160E+02  0.7546771E-02  0.1412756E+00
          2   -1    0    0  503    0  0.00000000000E+00  0.00000000000E+00  0.11983775251E+03  0.11983775251E+03  0.00000000000E+00 0. -1.
         21   -1    0    0  501  502 -0.00000000000E+00 -0.00000000000E+00 -0.25918187464E+03  0.25918187464E+03  0.00000000000E+00 0.  1.
          2    1    1    2  501    0  0.26130063745E+02 -0.16308226123E+02  0.11692096341E+03  0.12091009121E+03  0.00000000000E+00 0. -1.
         21    1    1    2  503  502 -0.26130063745E+02  0.16308226123E+02 -0.25626508555E+03  0.25810953594E+03  0.00000000000E+00 0.  1.
</event>
<event>
 4    1  0.2293753E+005  0.3158878E+02  0.7546771E-02  0.1406275E+00
          2   -1    0    0  503    0  0.00000000000E+00  0.00000000000E+00  0.18417942894E+04  0.18417942894E+04  0.00000000000E+00 0.  1.
         21   -1    0    0  501  502 -0.00000000000E+00 -0.00000000000E+00 -0.13685711390E+02  0.13685711390E+02  0.00000000000E+00 0. -1.
          2    1    1    2  501    0  0.25326713853E+02 -0.18878783911E+02  0.18232454455E+04  0.18235190719E+04  0.00000000000E+00 0.  1.
         21    1    1    2  503  502 -0.25326713853E+02  0.18878783911E+02  0.48631324454E+01  0.31960928862E+02  0.00000000000E+00 0. -1.
</event>
<event>
 4    1  0.2293753E+005  0.2307602E+02  0.7546771E-02  0.1491546E+00
          2   -1    0    0  503    0  0.00000000000E+00  0.00000000000E+00  0.84013231451E+03  0.84013231451E+03  0.00000000000E+00 0.  1.
         21   -1    0    0  501  502 -0.00000000000E+00 -0.00000000000E+00 -0.84762757157E+00  0.84762757157E+00  0.00000000000E+00 0. -1.
          2    1    1    2  501    0 -0.18533557094E+02  0.13748093643E+02  0.63082214137E+03  0.63124407076E+03  0.00000000000E+00 0.  1.
         21    1    1    2  503  502  0.18533557094E+02 -0.13748093643E+02  0.20846254557E+03  0.20973587133E+03  0.00000000000E+00 0. -1.
</event>
<event>
 4    1  0.2293753E+005  0.2455934E+02  0.7546771E-02  0.1473794E+00
          2   -1    0    0  503    0  0.00000000000E+00  0.00000000000E+00  0.38814195460E+03  0.38814195460E+03  0.00000000000E+00 0. -1.
         21   -1    0    0  501  502 -0.00000000000E+00 -0.00000000000E+00 -0.86137128585E+02  0.86137128585E+02  0.00000000000E+00 0. -1.
          2    1    1    2  501    0 -0.12401161446E+02  0.21198401981E+02  0.38599314262E+03  0.38677366405E+03  0.00000000000E+00 0. -1.
         21    1    1    2  503  502  0.12401161446E+02 -0.21198401981E+02 -0.83988316606E+02  0.87505419135E+02  0.00000000000E+00 0. -1.
</event>
<event>
 4    1  0.2293753E+005  0.2171828E+02  0.7546771E-02  0.1509252E+00
          2   -1    0    0  503    0  0.00000000000E+00  0.00000000000E+00  0.42028018335E+02  0.42028018335E+02  0.00000000000E+00 0.  1.
         21   -1    0    0  501  502 -0.00000000000E+00 -0.00000000000E+00 -0.30097028826E+02  0.30097028826E+02  0.00000000000E+00 0.  1.
          2    1    1    2  501    0  0.78815481753E+01  0.20237708325E+02  0.34523359742E+02  0.40786591030E+02  0.00000000000E+00 0.  1.
         21    1    1    2  503  502 -0.78815481753E+01 -0.20237708325E+02 -0.22592370233E+02  0.31338456131E+02  0.00000000000E+00 0.  1.
</event>
<event>
 4    1  0.2293753E+005  0.2815900E+02  0.7546771E-02  0.1436301E+00
          2   -1    0    0  503    0  0.00000000000E+00  0.00000000000E+00  0.43312254289E+03  0.43312254289E+03  0.00000000000E+00 0. -1.
         21   -1    0    0  501  502 -0.00000000000E+00 -0.00000000000E+00 -0.25823886302E+03  0.25823886302E+03  0.00000000000E+00 0. -1.
          2    1    1    2  501    0 -0.20649632274E+02  0.19144763619E+02  0.43189505004E+03  0.43281204181E+03  0.00000000000E+00 0. -1.
         21    1    1    2  503  502  0.20649632274E+02 -0.19144763619E+02 -0.25701137016E+03  0.25854936410E+03  0.00000000000E+00 0. -1.
</event>
<event>
 4    1  0.2293753E+005  0.2776374E+02  0.7546771E-02  0.1440083E+00
          2   -1    0    0  502    0  0.00000000000E+00  0.00000000000E+00  0.66583284608E+03  0.66583284608E+03  0.00000000000E+00 0. -1.
         21   -1    0    0  503  502 -0.00000000000E+00 -0.00000000000E+00 -0.30374770537E+01  0.30374770537E+01  0.00000000000E+00 0. -1.
          2    1    1    2  501    0 -0.10065729333E+02 -0.25874816857E+02  0.59449127732E+03  0.59513923065E+03  0.00000000000E+00 0. -1.
         21    1    1    2  503  501  0.10065729333E+02  0.25874816857E+02  0.68304091708E+02  0.73731092481E+02  0.00000000000E+00 0. -1.
</event>
<event>
 4    1  0.2293753E+005  0.3610563E+02  0.7546771E-02  0.1372953E+00
          2   -1    0    0  503    0  0.00000000000E+00  0.00000000000E+00  0.55919622011E+02  0.55919622011E+02  0.00000000000E+00 0. -1.
         21   -1    0    0  501  502 -0.00000000000E+00 -0.00000000000E+00 -0.26231676443E+02  0.26231676443E+02  0.00000000000E+00 0. -1.
          2    1    1    2  501    0  0.14871853293E+02  0.32900519174E+02  0.28546948739E+02  0.46027648915E+02  0.00000000000E+00 0. -1.
         21    1    1    2  503  502 -0.14871853293E+02 -0.32900519174E+02  0.11409968290E+01  0.36123649540E+02  0.00000000000E+00 0. -1.
</event>
<event>
 4    1  0.2293753E+005  0.2116729E+02  0.7546771E-02  0.1516890E+00
          2   -1    0    0  502    0  0.00000000000E+00  0.00000000000E+00  0.12977815282E+04  0.12977815282E+04  0.00000000000E+00 0. -1.
         21   -1    0    0  503  502 -0.00000000000E+00 -0.00000000000E+00 -0.15713890061E+01  0.15713890061E+01  0.00000000000E+00 0.  1.
          2    1    1    2  501    0 -0.14181374652E+02  0.15714415881E+02  0.12219912766E+04  0.12221745924E+04  0.00000000000E+00 0. -1.
         21    1    1    2  503  501  0.14181374652E+02 -0.15714415881E+02  0.74218862658E+02  0.77178324858E+02  0.00000000000E+00 0.  1.
</event>
<event>
 4    1  0.2293753E+005  0.6621714E+02  0.7546771E-02  0.1240056E+00
          2   -1    0    0  503    0  0.00000000000E+00  0.00000000000E+00  0.88983145438E+03  0.88983145438E+03  0.00000000000E+00 0.  1.
         21   -1    0    0  501  502 -0.00000000000E+00 -0.00000000000E+00 -0.98499189072E+01  0.98499189072E+01  0.00000000000E+00 0.  1.
          2    1    1    2  501    0  0.62521902317E+02 -0.21811029803E+02  0.75799176250E+03  0.76087858513E+03  0.00000000000E+00 0.  1.
         21    1    1    2  503  502 -0.62521902317E+02  0.21811029803E+02  0.12198977297E+03  0.13880278816E+03  0.00000000000E+00 0.  1.
</event>
<event>
 4    1  0.2293753E+005  0.2154247E+02  0.7546771E-02  0.1511659E+00
          2   -1    0    0  502    0  0.00000000000E+00  0.00000000000E+00  0.10491582731E+03  0.10491582731E+03  0.00000000000E+00 0.  1.
         21   -1    0    0  503  502 -0.00000000000E+00 -0.00000000000E+00 -0.10390352989E+03  0.10390352989E+03  0.00000000000E+00 0. -1.
          2    1    1    2  501    0  0.31289015461E+01 -0.21314036873E+02  0.10266921389E+03  0.10490493636E+03  0.00000000000E+00 0.  1.
         21    1    1    2  503  501 -0.31289015461E+01  0.21314036873E+02 -0.10165691646E+03  0.10391442084E+03  0.00000000000E+00 0. -1.
</event>
<event>
 4    1  0.2293753E+005  0.2833864E+02  0.7546771E-02  0.1434606E+00
          2   -1    0    0  503    0  0.00000000000E+00  0.00000000000E+00  0.62972999113E+02  0.62972999113E+02  0.00000000000E+00 0. -1.
         21   -1    0    0  501  502 -0.00000000000E+00 -0.00000000000E+00 -0.16400766755E+02  0.16400766755E+02  0.00000000000E+00 0. -1.
          2    1    1    2  501    0  0.12969980065E+02 -0.25196394944E+02  0.42003430254E+02  0.50669190384E+02  0.00000000000E+00 0. -1.
         21    1    1    2  503  502 -0.12969980065E+02  0.25196394944E+02  0.45688021038E+01  0.28704575484E+02  0.00000000000E+00 0. -1.
</event>
<event>
 4    1  0.2293753E+005  0.2113397E+02  0.7546771E-02  0.1517361E+00
          2   -1    0    0  503    0  0.00000000000E+00  0.00000000000E+00  0.13074709037E+04  0.13074709037E+04  0.00000000000E+00 0.  1.
         21   -1    0    0  501  502 -0.00000000000E+00 -0.00000000000E+00 -0.35355324117E+00  0.35355324117E+00  0.00000000000E+00 0.  1.
          2    1    1    2  501    0 -0.16030288786E+02 -0.13772234135E+02  0.53337078531E+03  0.53378932100E+03  0.00000000000E+00 0.  1.
         21    1    1    2  503  502  0.16030288786E+02  0.13772234135E+02  0.77374656519E+03  0.77403513598E+03  0.00000000000E+00 0.  1.
</event>
<event>
 4    1  0.2293753E+005  0.2178370E+02  0.7546771E-02  0.1508363E+00
          2   -1    0    0  502    0  0.00000000000E+00  0.00000000000E+00  0.31558593879E+03  0.31558593879E+03  0.00000000000E+00 0.  1.
         21   -1    0    0  503  502 -0.00000000000E+00 -0.00000000000E+00 -0.13453370389E+02  0.13453370389E+02  0.00000000000E+00 0.  1.
          2    1    1    2  501    0  0.16778530265E+02  0.13892829156E+02  0.30611963989E+03  0.30689373357E+03  0.00000000000E+00 0.  1.
         21    1    1    2  503  501 -0.16778530265E+02 -0.13892829156E+02 -0.39870714905E+01  0.22145575605E+02  0.00000000000E+00 0.  1.
</event>
<event>
 4    1  0.2293753E+005  0.2428175E+02  0.7546771E-02  0.1477001E+00
          2   -1    0    0  503    0  0.00000000000E+00  0.00000000000E+00  0.11578035862E+03  0.11578035862E+03  0.00000000000E+00 0. -1.
         21   -1    0    0  501  502 -0.00000000000E+00 -0.00000000000E+00 -0.39984714576E+02  0.39984714576E+02  0.00000000000E+00 0.  1.
          2    1    1    2  501    0 -0.77902293333E+01 -0.22998166605E+02  0.11065197558E+03  0.11328487560E+03  0.00000000000E+00 0. -1.
         21    1    1    2  503  502  0.77902293333E+01  0.22998166605E+02 -0.34856331531E+02  0.42480197599E+02  0.00000000000E+00 0.  1.
</event>
<event>
 4    1  0.2293753E+005  0.3028985E+02  0.7546771E-02  0.1417094E+00
          2   -1    0    0  503    0  0.00000000000E+00  0.00000000000E+00  0.17483852564E+02  0.17483852564E+02  0.00000000000E+00 0. -1.
         21   -1    0    0  501  502 -0.00000000000E+00 -0.00000000000E+00 -0.80594356872E+02  0.80594356872E+02  0.00000000000E+00 0. -1.
          2    1    1    2  501    0 -0.29898915654E+02  0.48507631460E+01 -0.25892514953E+01  0.30400317164E+02  0.00000000000E+00 0. -1.
         21    1    1    2  503  502  0.29898915654E+02 -0.48507631460E+01 -0.60521252812E+02  0.67677892272E+02  0.00000000000E+00 0. -1.
</event>
<event>
 4    1  0.2293753E+005  0.2171903E+02  0.7546771E-02  0.1509242E+00
          2   -1    0    0  502    0  0.00000000000E+00  0.00000000000E+00  0.11283746421E+03  0.11283746421E+03  0.00000000000E+00 0. -1.
         21   -1    0    0  503  502 -0.00000000000E+00 -0.00000000000E+00 -0.64472179382E+01  0.64472179382E+01  0.00000000000E+00 0. -1.
          2    1    1    2  501    0  0.21611145149E+02 -0.21620930481E+01  0.88559654535E+02  0.91184037268E+02  0.00000000000E+00 0. -1.
         21    1    1    2  503  501 -0.21611145149E+02  0.21620930481E+01  0.17830591735E+02  0.28100644879E+02  0.00000000000E+00 0. -1.
</event>
<event>
 4    1  0.2293753E+005  0.2637392E+02  0.7546771E-02  0.1454001E+00
          2   -1    0    0  503    0  0.00000000000E+00  0.00000000000E+00  0.68812105316E+03  0.68812105316E+03  0.00000000000E+00 0. -1.
         21   -1    0    0  501  502 -0.00000000000E+00 -0.00000000000E+00 -0.17597186853E+01  0.17597186853E+01  0.00000000000E+00 0. -1.
          2    1    1    2  501    0  0.26023114347E+02  0.42873134210E+01  0.56820360330E+03  0.56881536401E+03  0.00000000000E+00 0. -1.
         21    1    1    2  503  502 -0.26023114347E+02 -0.42873134210E+01  0.11815773117E+03  0.12106540783E+03  0.00000000000E+00 0. -1.
</event>
<event>
 4    1  0.2293753E+005  0.3257357E+02  0.7546771E-02  0.1398474E+00
          2   -1    0    0  503    0  0.00000000000E+00  0.00000000000E+00  0.10915246527E+04  0.10915246527E+04  0.00000000000E+00 0. -1.
         21   -1    0    0  501  502 -0.00000000000E+00 -0.00000000000E+00 -0.34625603871E+01  0.34625603871E+01  0.00000000000E+00 0. -1.
          2    1    1    2  501    0 -0.29462503204E+02 -0.13892395008E+02  0.10083568930E+04  0.10088828779E+04  0.00000000000E+00 0. -1.
         21    1    1    2  503  502  0.29462503204E+02  0.13892395008E+02  0.79705199310E+02  0.86104335147E+02  0.00000000000E+00 0. -1.
</event>
<event>
 4    1  0.2293753E+005  0.2629434E+02  0.7546771E-02  0.1454828E+00
          2   -1    0    0  502    0  0.00000000000E+00  0.00000000000E+00  0.16442517745E+02  0.16442517745E+02  0.00000000000E+00 0.  1.
         21   -1    0    0  503  502 -0.00000000000E+00 -0.00000000000E+00 -0.11443542641E+03  0.11443542641E+03  0.00000000000E+00 0.  1.
          2    1    1    2  501    0  0.26234439520E+02 -0.17738518849E+01  0.30492175935E+01  0.26470551475E+02  0.00000000000E+00 0.  1.
         21    1    1    2  503  501 -0.26234439520E+02  0.17738518849E+01 -0.10104212625E+03  0.10440739268E+03  0.00000000000E+00 0.  1.
</event>
<event>
 4    1  0.2293753E+005  0.3833580E+02  0.7546771E-02  0.1358524E+00
          2   -1    0    0  502    0  0.00000000000E+00  0.00000000000E+00  0.14330556353E+04  0.14330556353E+04  0.00000000000E+00 0.  1.
         21   -1    0    0  503  502 -0.00000000000E+00 -0.00000000000E+00 -0.26809388843E+01  0.26809388843E+01  0.00000000000E+00 0.  1.
          2    1    1    2  501    0 -0.37419899483E+02  0.83297500391E+01  0.12792855019E+04  0.12798597692E+04  0.00000000000E+00 0.  1.
         21    1    1    2  503  501  0.37419899483E+02 -0.83297500391E+01  0.15108919459E+03  0.15587680500E+03  0.00000000000E+00 0.  1.
</event>
<event>
 4    1  0.2293753E+005  0.2876060E+02  0.7546771E-02  0.1430681E+00
          2   -1    0    0  503    0  0.00000000000E+00  0.00000000000E+00  0.25351701455E+02  0.25351701455E+02  0.00000000000E+00 0. -1.
         21   -1    0    0  501  502 -0.00000000000E+00 -0.00000000000E+00 -0.39278788808E+02  0.39278788808E+02  0.00000000000E+00 0. -1.
          2    1    1    2  501    0 -0.75933639151E+01 -0.27740093698E+02  0.63339346931E+01  0.29449799704E+02  0.00000000000E+00 0. -1.
         21    1    1    2  503  502  0.75933639151E+01  0.27740093698E+02 -0.20261022046E+02  0.35180690560E+02  0.00000000000E+00 0. -1.
</event>
<event>
 4    1  0.2293753E+005  0.2770909E+02  0.7546771E-02  0.1440612E+00
          2   -1    0    0  502    0  0.00000000000E+00  0.00000000000E+00  0.62390335038E+03  0.62390335038E+03  0.00000000000E+00 0. -1.
         21   -1    0    0  503  502 -0.00000000000E+00 -0.00000000000E+00 -0.63816026611E+01  0.63816026611E+01  0.00000000000E+00 0. -1.
          2    1    1    2  501    0  0.23116240241E+02  0.15278511543E+02  0.59189142436E+03  0.59253966257E+03  0.00000000000E+00 0. -1.
         21    1    1    2  503  501 -0.23116240241E+02 -0.15278511543E+02  0.25630323357E+02  0.37745290477E+02  0.00000000000E+00 0. -1.
</event>
<event>
 4    1  0.2293753E+005  0.3152923E+02  0.7546771E-02  0.1406757E+00
          2   -1    0    0  503    0  0.00000000000E+00  0.00000000000E+00  0.16187491924E+04  0.16187491924E+04  0.00000000000E+00 0. -1.
         21   -1    0    0  501  502 -0.00000000000E+00 -0.00000000000E+00 -0.71988019528E+00  0.71988019528E+00  0.00000000000E+00 0. -1.
          2    1    1    2  501    0  0.11045742104E+02 -0.29531062479E+02  0.11193931794E+04  0.11198371230E+04  0.00000000000E+00 0. -1.
         21    1    1    2  503  502 -0.11045742104E+02  0.29531062479E+02  0.49863613285E+03  0.49963194959E+03  0.00000000000E+00 0. -1.
</event>
<event>
 4    1  0.2293753E+005  0.2033148E+02  0.7546771E-02  0.1529027E+00
          2   -1    0    0  503    0  0.00000000000E+00  0.00000000000E+00  0.24632393136E+03  0.24632393136E+03  0.00000000000E+00 0.  1.
         21   -1    0    0  501  502 -0.00000000000E+00 -0.00000000000E+00 -0.29238049908E+01  0.29238049908E+01  0.00000000000E+00 0. -1.
          2    1    1    2  501    0 -0.11767653410E+01 -0.20297395633E+02  0.20304406403E+03  0.20405945454E+03  0.00000000000E+00 0.  1.
         21    1    1    2  503  502  0.11767653410E+01  0.20297395633E+02  0.40356062336E+02  0.45188281816E+02  0.00000000000E+00 0. -1.
</event>
<event>
 4    1  0.2293753E+005  0.2333045E+02  0.7546771E-02  0.1488390E+00
          2   -1    0    0  503    0  0.00000000000E+00  0.00000000000E+00  0.49679650397E+00  0.49679650397E+00  0.00000000000E+00 0. -1.
         21   -1    0    0  501  502 -0.00000000000E+00 -0.00000000000E+00 -0.12884390456E+04  0.12884390456E+04  0.00000000000E+00 0.  1.
          2    1    1    2  501    0  0.22382563796E+02 -0.65826027871E+01 -0.39467100528E+03  0.39535997803E+03  0.00000000000E+00 0. -1.
         21    1    1    2  503  502 -0.22382563796E+02  0.65826027871E+01 -0.89327124380E+03  0.89357586405E+03  0.00000000000E+00 0.  1.
</event>
<event>
 4    1  0.2293753E+005  0.3588785E+02  0.7546771E-02  0.1374427E+00
          2   -1    0    0  503    0  0.00000000000E+00  0.00000000000E+00  0.10298208782E+03  0.10298208782E+03  0.00000000000E+00 0. -1.
         21   -1    0    0  501  502 -0.00000000000E+00 -0.00000000000E+00 -0.86519842304E+02  0.86519842304E+02  0.00000000000E+00 0. -1.
          2    1    1    2  501    0  0.18007984455E+02  0.31042721902E+02  0.95866810932E+02  0.10236397572E+03  0.00000000000E+00 0. -1.
         21    1    1    2  503  502 -0.18007984455E+02 -0.31042721902E+02 -0.79404565420E+02  0.87137954398E+02  0.00000000000E+00 0. -1.
</event>
<event>
 4    1  0.2293753E+005  0.3320147E+02  0.7546771E-02  0.1393668E+00
          2   -1    0    0  502    0  0.00000000000E+00  0.00000000000E+00  0.80684114157E+03  0.80684114157E+03  0.00000000000E+00 0. -1.
         21   -1    0    0  503  502 -0.00000000000E+00 -0.00000000000E+00 -0.22446976362E+03  0.22446976362E+03  0.00000000000E+00 0.  1.
          2    1    1    2  501    0 -0.26616758913E+02  0.19846558581E+02  0.80526947375E+03  0.80595363582E+03  0.00000000000E+00 0. -1.
         21    1    1    2  503  501  0.26616758913E+02 -0.19846558581E+02 -0.22289809580E+03  0.22535726936E+03  0.00000000000E+00 0.  1.
</event>
<event>
 4    1  0.2293753E+005  0.3193234E+02  0.7546771E-02  0.1403516E+00
          2   -1    0    0  503    0  0.00000000000E+00  0.00000000000E+00  0.64439064733E+01  0.64439064733E+01  0.00000000000E+00 0. -1.
         21   -1    0    0  501  502 -0.00000000000E+00 -0.00000000000E+00 -0.25884805021E+03  0.25884805021E+03  0.00000000000E+00 0.  1.
          2    1    1    2  501    0  0.29498917399E+01  0.31795794793E+02 -0.43504809967E+02  0.53966127506E+02  0.00000000000E+00 0. -1.
         21    1    1    2  503  502 -0.29498917399E+01 -0.31795794793E+02 -0.20889933377E+03  0.21132582918E+03  0.00000000000E+00 0.  1.
</event>
<event>
 4    1  0.2293753E+005  0.2138698E+02  0.7546771E-02  0.1513811E+00
          2   -1    0    0  503    0  0.00000000000E+00  0.00000000000E+00  0.93307481668E+02  0.93307481668E+02  0.00000000000E+00 0. -1.
         21   -1    0    0  501  502 -0.00000000000E+00 -0.00000000000E+00 -0.36035728097E+02  0.36035728097E+02  0.00000000000E+00 0.  1.
          2    1    1    2  501    0  0.20091564037E+02 -0.73302050338E+01  0.88747967916E+02  0.91288579025E+02  0.00000000000E+00 0. -1.
         21    1    1    2  503  502 -0.20091564037E+02  0.73302050338E+01 -0.31476214344E+02  0.38054630740E+02  0.00000000000E+00 0.  1.
</event>
<event>
 4    1  0.2293753E+005  0.2245405E+02  0.7546771E-02  0.1499470E+00
          2   -1    0    0  502    0  0.00000000000E+00  0.00000000000E+00  0.43003097871E+02  0.43003097871E+02  0.00000000000E+00 0. -1.
         21   -1    0    0  503  502 -0.00000000000E+00 -0.00000000000E+00 -0.12957546840E+03  0.12957546840E+03  0.00000000000E+00 0. -1.
          2    1    1    2  501    0  0.62311127831E+00  0.22445398440E+02  0.39006699520E+02  0.45007852496E+02  0.00000000000E+00 0. -1.
         21    1    1    2  503  501 -0.62311127831E+00 -0.22445398440E+02 -0.12557907005E+03  0.12757071378E+03  0.00000000000E+00 0. -1.
</event>
<event>
 4    1  0.2293753E+005  0.2194847E+02  0.7546771E-02  0.1506142E+00
          2   -1    0    0  503    0  0.00000000000E+00  0.00000000000E+00  0.91916481749E+02  0.91916481749E+02  0.00000000000E+00 0.  1.
         21   -1    0    0  501  502 -0.00000000000E+00 -0.00000000000E+00 -0.18295116732E+02  0.18295116732E+02  0.00000000000E+00 0. -1.
          2    1    1    2  501    0 -0.20923686109E+02  0.66283350041E+01  0.83358920364E+02  0.86200029406E+02  0.00000000000E+00 0.  1.
         21    1    1    2  503  502  0.20923686109E+02 -0.66283350041E+01 -0.97375553464E+01  0.24011569075E+02  0.00000000000E+00 0. -1.
</event>
<event>
 4    1  0.2293753E+005  0.2891287E+02  0.7546771E-02  0.1429285E+00
          2   -1    0    0  503    0  0.00000000000E+00  0.00000000000E+00  0.17445167678E+04  0.17445167678E+04  0.00000000000E+00 0. -1.
         21   -1    0    0  501  502 -0.00000000000E+00 -0.00000000000E+00 -0.12952189995E+01  0.12952189995E+01  0.00000000000E+00 0. -1.
          2    1    1    2  501    0 -0.28685617814E+02  0.36178916764E+01  0.15644761334E+04  0.15647432779E+04  0.00000000000E+00 0. -1.
         21    1    1    2  503  502  0.28685617814E+02 -0.36178916764E+01  0.17874541541E+03  0.18106870889E+03  0.00000000000E+00 0. -1.
</event>
<event>
 4    1  0.2293753E+005  0.2246975E+02  0.7546771E-02  0.1499266E+00
          2   -1    0    0  503    0  0.00000000000E+00  0.00000000000E+00  0.17987310492E+04  0.17987310492E+04  0.00000000000E+00 0. -1.
         21   -1    0    0  501  502 -0.00000000000E+00 -0.00000000000E+00 -0.62047099943E+00  0.62047099943E+00  0.00000000000E+00 0. -1.
          2    1    1    2  501    0 -0.82305352436E+01 -0.20908088202E+02  0.15648240041E+04  0.15649853206E+04  0.00000000000E+00 0. -1.
         21    1    1    2  503  502  0.82305352436E+01  0.20908088202E+02  0.23328657414E+03  0.23436619965E+03  0.00000000000E+00 0. -1.
</event>
<event>
 4    1  0.2293753E+005  0.4569283E+02  0.7546771E-02  0.1318011E+00
          2   -1    0    0  502    0  0.00000000000E+00  0.00000000000E+00  0.10393124553E+04  0.10393124553E+04  0.00000000000E+00 0. -1.
         21   -1    0    0  503  502 -0.00000000000E+00 -0.00000000000E+00 -0.67821157545E+01  0.67821157545E+01  0.00000000000E+00 0. -1.
          2    1    1    2  501    0 -0.99309190388E+01  0.44600579680E+02  0.95506417478E+03  0.95615658384E+03  0.00000000000E+00 0. -1.
         21    1    1    2  503  501  0.99309190388E+01 -0.44600579680E+02  0.77466164723E+02  0.89937987178E+02  0.00000000000E+00 0. -1.
</event>
<event>
 4    1  0.2293753E+005  0.2187515E+02  0.7546771E-02  0.1507127E+00
          2   -1    0    0  502    0  0.00000000000E+00  0.00000000000E+00  0.44256137314E+03  0.44256137314E+03  0.00000000000E+00 0.  1.
         21   -1    0    0  503  502 -0.00000000000E+00 -0.00000000000E+00 -0.17674421066E+01  0.17674421066E+01  0.00000000000E+00 0. -1.
          2    1    1    2  501    0  0.21133047596E+02 -0.56494660764E+01  0.35882460874E+03  0.35949078153E+03  0.00000000000E+00 0.  1.
         21    1    1    2  503  501 -0.21133047596E+02  0.56494660764E+01  0.81969322289E+02  0.84838033713E+02  0.00000000000E+00 0. -1.
</event>
<event>
 4    1  0.2293753E+005  0.2172164E+02  0.7546771E-02  0.1509206E+00
          2   -1    0    0  503    0  0.00000000000E+00  0.00000000000E+00  0.38186876225E+02  0.38186876225E+02  0.00000000000E+00 0. -1.
         21   -1    0    0  501  502 -0.00000000000E+00 -0.00000000000E+00 -0.27155470752E+02  0.27155470752E+02  0.00000000000E+00 0. -1.
          2    1    1    2  501    0  0.21271256388E+02  0.44003766558E+01  0.29634852472E+02  0.36743082942E+02  0.00000000000E+00 0. -1.
         21    1    1    2  503  502 -0.21271256388E+02 -0.44003766558E+01 -0.18603446999E+02  0.28599264034E+02  0.00000000000E+00 0. -1.
</event>
<event>
 4    1  0.2293753E+005  0.5722784E+02  0.7546771E-02  0.1269554E+00
          2   -1    0    0  503    0  0.00000000000E+00  0.00000000000E+00  0.18010024824E+04  0.18010024824E+04  0.00000000000E+00 0.  1.
         21   -1    0    0  501  502 -0.00000000000E+00 -0.00000000000E+00 -0.23300242446E+01  0.23300242446E+01  0.00000000000E+00 0. -1.
          2    1    1    2  501    0 -0.51911185419E+02 -0.24088474279E+02  0.13218312822E+04  0.13230695236E+04  0.00000000000E+00 0.  1.
         21    1    1    2  503  502  0.51911185419E+02  0.24088474279E+02  0.47684117601E+03  0.48026298306E+03  0.00000000000E+00 0. -1.
</event>
<event>
 4    1  0.2293753E+005  0.2333559E+02  0.7546771E-02  0.1488327E+00
          2   -1    0    0  502    0  0.00000000000E+00  0.00000000000E+00  0.23468205284E+03  0.23468205284E+03  0.00000000000E+00 0. -1.
         21   -1    0    0  503  502 -0.00000000000E+00 -0.00000000000E+00 -0.26139570886E+02  0.26139570886E+02  0.00000000000E+00 0. -1.
          2    1    1    2  501    0 -0.21610465953E+02  0.88055371905E+01  0.22875937141E+03  0.22994651493E+03  0.00000000000E+00 0. -1.
         21    1    1    2  503  501  0.21610465953E+02 -0.88055371905E+01 -0.20216889452E+02  0.30875108794E+02  0.00000000000E+00 0. -1.
</event>
<event>
 4    1  0.2293753E+005  0.3657340E+02  0.7546771E-02  0.1369827E+00
          2   -1    0    0  503    0  0.00000000000E+00  0.00000000000E+00  0.42978447261E+03  0.42978447261E+03  0.00000000000E+00 0. -1.
         21   -1    0    0  501  502 -0.00000000000E+00 -0.00000000000E+00 -0.82601090091E+02  0.82601090091E+02  0.00000000000E+00 0.  1.
          2    1    1    2  501    0 -0.17162656272E+01  0.36533111308E+02  0.42491164474E+03  0.42648273075E+03  0.00000000000E+00 0. -1.
         21    1    1    2  503  502  0.17162656272E+01 -0.36533111308E+02 -0.77728262222E+02  0.85902831954E+02  0.00000000000E+00 0.  1.
</event>
<event>
 4    1  0.2293753E+005  0.5757477E+02  0.7546771E-02  0.1268303E+00
          2   -1    0    0  503    0  0.00000000000E+00  0.00000000000E+00  0.30237375231E+04  0.30237375231E+04  0.00000000000E+00 0. -1.
         21   -1    0    0  501  502 -0.00000000000E+00 -0.00000000000E+00 -0.12658424783E+01  0.12658424783E+01  0.00000000000E+00 0. -1.
          2    1    1    2  501    0 -0.36461657744E+02  0.44557844622E+02  0.95766308180E+03  0.95939222023E+03  0.00000000000E+00 0. -1.
         21    1    1    2  503  502  0.36461657744E+02 -0.44557844622E+02  0.20648085989E+04  0.20656111454E+04  0.00000000000E+00 0. -1.
</event>
<event>
 4    1  0.2293753E+005  0.2196840E+02  0.7546771E-02  0.1505875E+00
          2   -1    0    0  503    0  0.00000000000E+00  0.00000000000E+00  0.10697360705E+04  0.10697360705E+04  0.00000000000E+00 0. -1.
         21   -1    0    0  501  502 -0.00000000000E+00 -0.00000000000E+00 -0.31013959764E+01  0.31013959764E+01  0.00000000000E+00 0. -1.
          2    1    1    2  501    0 -0.13943249047E+01 -0.21924104946E+02  0.10291880837E+04  0.10294225188E+04  0.00000000000E+00 0. -1.
         21    1    1    2  503  502  0.13943249047E+01  0.21924104946E+02  0.37446590783E+02  0.43414947666E+02  0.00000000000E+00 0. -1.
</event>
<event>
 4    1  0.2293753E+005  0.4283650E+02  0.7546771E-02  0.1332620E+00
          2   -1    0    0  503    0  0.00000000000E+00  0.00000000000E+00  0.86398890396E+02  0.86398890396E+02  0.00000000000E+00 0.  1.
         21   -1    0    0  501  502 -0.00000000000E+00 -0.00000000000E+00 -0.20012414495E+03  0.20012414495E+03  0.00000000000E+00 0. -1.
          2    1    1    2  501    0 -0.25251599442E+02 -0.34602347744E+02  0.78583873183E+02  0.89500786970E+02  0.00000000000E+00 0.  1.
         21    1    1    2  503  502  0.25251599442E+02  0.34602347744E+02 -0.19230912774E+03  0.19702224838E+03  0.00000000000E+00 0. -1.
</event>
<event>
 4    1  0.2293753E+005  0.3274787E+02  0.7546771E-02  0.1397127E+00
          2   -1    0    0  503    0  0.00000000000E+00  0.00000000000E+00  0.23282310868E+03  0.23282310868E+03  0.00000000000E+00 0.  1.
         21   -1    0    0  501  502 -0.00000000000E+00 -0.00000000000E+00 -0.46083651535E+01  0.46083651535E+01  0.00000000000E+00 0. -1.
          2    1    1    2  501    0 -0.22019385865E+02  0.24239839375E+02  0.11669748806E+03  0.12120530882E+03  0.00000000000E+00 0.  1.
         21    1    1    2  503  502  0.22019385865E+02 -0.24239839375E+02  0.11151725546E+03  0.11622616501E+03  0.00000000000E+00 0. -1.
</event>
<event>
 4    1  0.2293753E+005  0.2073082E+02  0.7546771E-02  0.1523143E+00
          2   -1    0    0  503    0  0.00000000000E+00  0.00000000000E+00  0.44225004763E+03  0.44225004763E+03  0.00000000000E+00 0.  1.
         21   -1    0    0  501  502 -0.00000000000E+00 -0.00000000000E+00 -0.21730688858E+01  0.21730688858E+01  0.00000000000E+00 0.  1.
          2    1    1    2  501    0 -0.19811341840E+02 -0.61055274848E+01  0.38525553880E+03  0.38581290402E+03  0.00000000000E+00 0.  1.
         21    1    1    2  503  502  0.19811341840E+02  0.61055274848E+01  0.54821439938E+02  0.58610212491E+02  0.00000000000E+00 0.  1.
</event>
<event>
 4    1  0.2293753E+005  0.2942385E+02  0.7546771E-02  0.1424670E+00
          2   -1    0    0  502    0  0.00000000000E+00  0.00000000000E+00  0.47850209253E+01  0.47850209253E+01  0.00000000000E+00 0. -1.
         21   -1    0    0  503  502 -0.00000000000E+00 -0.00000000000E+00 -0.46775719195E+03  0.46775719195E+03  0.00000000000E+00 0.  1.
          2    1    1    2  501    0 -0.14188345878E+02 -0.25777004028E+02 -0.46470176490E+02  0.55002185397E+02  0.00000000000E+00 0. -1.
         21    1    1    2  503  501  0.14188345878E+02  0.25777004028E+02 -0.41650199453E+03  0.41754002748E+03  0.00000000000E+00 0.  1.
</event>
<event>
 4    1  0.2293753E+005  0.2562577E+02  0.7546771E-02  0.1461923E+00
          2   -1    0    0  502    0  0.00000000000E+00  0.00000000000E+00  0.16500171072E+04  0.16500171072E+04  0.00000000000E+00 0. -1.
         21   -1    0    0  503  502 -0.00000000000E+00 -0.00000000000E+00 -0.43477010260E+01  0.43477010260E+01  0.00000000000E+00 0.  1.
          2    1    1    2  501    0 -0.10138412959E+02 -0.23534922140E+02  0.16112489382E+04  0.16114527051E+04  0.00000000000E+00 0. -1.
         21    1    1    2  503  501  0.10138412959E+02  0.23534922140E+02  0.34420467960E+02  0.42912103095E+02  0.00000000000E+00 0.  1.
</event>
<event>
 4    1  0.2293753E+005  0.2064763E+02  0.7546771E-02  0.1524356E+00
          2   -1    0    0  503    0  0.00000000000E+00  0.00000000000E+00  0.17402183827E+02  0.17402183827E+02  0.00000000000E+00 0. -1.
         21   -1    0    0  501  502 -0.00000000000E+00 -0.00000000000E+00 -0.53025576235E+03  0.53025576235E+03  0.00000000000E+00 0.  1.
          2    1    1    2  501    0  0.11452716367E+02  0.17180223439E+02  0.11001796470E+02  0.23395818327E+02  0.00000000000E+00 0. -1.
         21    1    1    2  503  502 -0.11452716367E+02 -0.17180223439E+02 -0.52385537499E+03  0.52426212785E+03  0.00000000000E+00 0.  1.
</event>
<event>
 4    1  0.2293753E+005  0.3800211E+02  0.7546771E-02  0.1360608E+00
          2   -1    0    0  503    0  0.00000000000E+00  0.00000000000E+00  0.21597752373E+02  0.21597752373E+02  0.00000000000E+00 0.  1.
         21   -1    0    0  501  502 -0.00000000000E+00 -0.00000000000E+00 -0.43149617298E+03  0.43149617298E+03  0.00000000000E+00 0.  1.
          2    1    1    2  501    0  0.79787541838E+01 -0.37155078880E+02  0.33060265347E+01  0.38145644789E+02  0.00000000000E+00 0.  1.
         21    1    1    2  503  502 -0.79787541838E+01  0.37155078880E+02 -0.41320444714E+03  0.41494828056E+03  0.00000000000E+00 0.  1.
</event>
<event>
 4    1  0.2293753E+005  0.2037029E+02  0.7546771E-02  0.1528448E+00
          2   -1    0    0  503    0  0.00000000000E+00  0.00000000000E+00  0.92984137431E+01  0.92984137431E+01  0.00000000000E+00 0. -1.
         21   -1    0    0  501  502 -0.00000000000E+00 -0.00000000000E+00 -0.67542083046E+02  0.67542083046E+02  0.00000000000E+00 0. -1.
          2    1    1    2  501    0  0.94825160736E+01 -0.18028609167E+02 -0.67425948481E+01  0.21457200304E+02  0.00000000000E+00 0. -1.
         21    1    1    2  503  502 -0.94825160736E+01  0.18028609167E+02 -0.51501074455E+02  0.55383296486E+02  0.00000000000E+00 0. -1.
</event>
<event>
 4    1  0.2293753E+005  0.2189453E+02  0.7546771E-02  0.1506867E+00
          2   -1    0    0  503    0  0.00000000000E+00  0.00000000000E+00  0.49006036354E+02  0.49006036354E+02  0.00000000000E+00 0.  1.
         21   -1    0    0  501  502 -0.00000000000E+00 -0.00000000000E+00 -0.74308283825E+02  0.74308283825E+02  0.00000000000E+00 0. -1.
          2    1    1    2  501    0 -0.20672718514E+02 -0.72117307887E+01  0.44804651469E+02  0.49868097467E+02  0.00000000000E+00 0.  1.
         21    1    1    2  503  502  0.20672718514E+02  0.72117307887E+01 -0.70106898940E+02  0.73446222712E+02  0.00000000000E+00 0. -1.
</event>
<event>
 4    1  0.2293753E+005  0.4219695E+02  0.7546771E-02  0.1336071E+00
          2   -1    0    0  502    0  0.00000000000E+00  0.00000000000E+00  0.32119776936E+02  0.32119776936E+02  0.00000000000E+00 0.  1.
         21   -1    0    0  503  502 -0.00000000000E+00 -0.00000000000E+00 -0.15596147425E+03  0.15596147425E+03  0.00000000000E+00 0.  1.
          2    1    1    2  501    0  0.26150402536E+02 -0.33117052016E+02  0.13578904587E+02  0.44327974653E+02  0.00000000000E+00 0.  1.
         21    1    1    2  503  501 -0.26150402536E+02  0.33117052016E+02 -0.13742060190E+03  0.14375327653E+03  0.00000000000E+00 0.  1.
</event>
<event>
 4    1  0.2293753E+005  0.2276764E+02  0.7546771E-02  0.1495437E+00
          2   -1    0    0  502    0  0.00000000000E+00  0.00000000000E+00  0.15210934349E+04  0.15210934349E+04  0.00000000000E+00 0.  1.
         21   -1    0    0  503  502 -0.00000000000E+00 -0.00000000000E+00 -0.20575666152E+01  0.20575666152E+01  0.00000000000E+00 0.  1.
          2    1    1    2  501    0  0.17700126902E+02 -0.14320292066E+02  0.14551724146E+04  0.14553505150E+04  0.00000000000E+00 0.  1.
         21    1    1    2  503  501 -0.17700126902E+02  0.14320292066E+02  0.63863453704E+02  0.67800486549E+02  0.00000000000E+00 0.  1.
</event>
<event>
 4    1  0.2293753E+005  0.2019977E+02  0.7546771E-02  0.1531004E+00
          2   -1    0    0  502    0  0.00000000000E+00  0.00000000000E+00  0.10792391853E+03  0.10792391853E+03  0.00000000000E+00 0.  1.
         21   -1    0    0  503  502 -0.00000000000E+00 -0.00000000000E+00 -0.40684456659E+01  0.40684456659E+01  0.00000000000E+00 0.  1.
          2    1    1    2  501    0  0.15742215942E+02 -0.12657538597E+02  0.37036534229E+02  0.42186911641E+02  0.00000000000E+00 0.  1.
         21    1    1    2  503  501 -0.15742215942E+02  0.12657538597E+02  0.66818938634E+02  0.69805452554E+02  0.00000000000E+00 0.  1.
</event>
<event>
 4    1  0.2293753E+005  0.3283517E+02  0.7546771E-02  0.1396457E+00
          2   -1    0    0  503    0  0.00000000000E+00  0.00000000000E+00  0.13687630484E+04  0.13687630484E+04  0.00000000000E+00 0. -1.
         21   -1    0    0  501  502 -0.00000000000E+00 -0.00000000000E+00 -0.16865518596E+01  0.16865518596E+01  0.00000000000E+00 0. -1.
          2    1    1    2  501    0 -0.29765070420E+02  0.13863221433E+02  0.11837822966E+04  0.11842375919E+04  0.00000000000E+00 0. -1.
         21    1    1    2  503  502  0.29765070420E+02 -0.13863221433E+02  0.18329419995E+03  0.18621200837E+03  0.00000000000E+00 0. -1.
</event>
<event>
 4    1  0.2293753E+005  0.4472321E+02  0.7546771E-02  0.1322829E+00
          2   -1    0    0  503    0  0.00000000000E+00  0.00000000000E+00  0.59368276532E+02  0.59368276532E+02  0.00000000000E+00 0.  1.
         21   -1    0    0  501  502 -0.00000000000E+00 -0.00000000000E+00 -0.34326320814E+02  0.34326320814E+02  0.00000000000E+00 0.  1.
          2    1    1    2  501    0  0.85588696912E+01 -0.43896596853E+02  0.18895264454E+02  0.48550967904E+02  0.00000000000E+00 0.  1.
         21    1    1    2  503  502 -0.85588696912E+01  0.43896596853E+02  0.61466912643E+01  0.45143629442E+02  0.00000000000E+00 0.  1.
</event>
<event>
 4    1  0.2293753E+005  0.2099850E+02  0.7546771E-02  0.1519286E+00
          2   -1    0    0  503    0  0.00000000000E+00  0.00000000000E+00  0.22854806652E+03  0.22854806652E+03  0.00000000000E+00 0. -1.
         21   -1    0    0  501  502 -0.00000000000E+00 -0.00000000000E+00 -0.37968473496E+01  0.37968473496E+01  0.00000000000E+00 0.  1.
          2    1    1    2  501    0  0.20699655805E+02  0.35300592675E+01  0.19385124965E+03  0.19498524062E+03  0.00000000000E+00 0. -1.
         21    1    1    2  503  502 -0.20699655805E+02 -0.35300592675E+01  0.30899969516E+02  0.37359673245E+02  0.00000000000E+00 0.  1.
</event>
<event>
 4    1  0.2293753E+005  0.4031318E+02  0.7546771E-02  0.1346660E+00
          2   -1    0    0  502    0  0.00000000000E+00  0.00000000000E+00  0.13585247728E+04  0.13585247728E+04  0.00000000000E+00 0. -1.
         21   -1    0    0  503  502 -0.00000000000E+00 -0.00000000000E+00 -0.92911950414E+01  0.92911950414E+01  0.00000000000E+00 0.  1.
          2    1    1    2  501    0 -0.38545480158E+02 -0.11806715295E+02  0.13129809483E+04  0.13135996814E+04  0.00000000000E+00 0. -1.
         21    1    1    2  503  501  0.38545480158E+02  0.11806715295E+02  0.36252629507E+02  0.54216286417E+02  0.00000000000E+00 0.  1.
</event>
<event>
 4    1  0.2293753E+005  0.2004749E+02  0.7546771E-02  0.1533311E+00
          2   -1    0    0  502    0  0.00000000000E+00  0.00000000000E+00  0.47451424494E+03  0.47451424494E+03  0.00000000000E+00 0. -1.
         21   -1    0    0  503  502 -0.00000000000E+00 -0.00000000000E+00 -0.90553969492E+00  0.90553969492E+00  0.00000000000E+00 0. -1.
          2    1    1    2  501    0  0.97652730869E+01 -0.17508318075E+02  0.29725639820E+03  0.29793164993E+03  0.00000000000E+00 0. -1.
         21    1    1    2  503  501 -0.97652730869E+01  0.17508318075E+02  0.17635230705E+03  0.17748813471E+03  0.00000000000E+00 0. -1.
</event>
<event>
 4    1  0.2293753E+005  0.2206714E+02  0.7546771E-02  0.1504556E+00
          2   -1    0    0  502    0  0.00000000000E+00  0.00000000000E+00  0.15096096491E+03  0.15096096491E+03  0.00000000000E+00 0. -1.
         21   -1    0    0  503  502 -0.00000000000E+00 -0.00000000000E+00 -0.32567547755E+02  0.32567547755E+02  0.00000000000E+00 0. -1.
          2    1    1    2  501    0  0.24839748261E+01  0.21926890972E+02  0.14629799290E+03  0.14795290266E+03  0.00000000000E+00 0. -1.
         21    1    1    2  503  501 -0.24839748261E+01 -0.21926890972E+02 -0.27904575754E+02  0.35575609996E+02  0.00000000000E+00 0. -1.
</event>
<event>
 4    1  0.2293753E+005  0.3524966E+02  0.7546771E-02  0.1378816E+00
          2   -1    0    0  503    0  0.00000000000E+00  0.00000000000E+00  0.30155485463E+02  0.30155485463E+02  0.00000000000E+00 0. -1.
         21   -1    0    0  501  502 -0.00000000000E+00 -0.00000000000E+00 -0.42646822524E+02  0.42646822524E+02  0.00000000000E+00 0. -1.
          2    1    1    2  501    0  0.74938218918E+01 -0.34443888610E+02 -0.12940156140E+02  0.37549786551E+02  0.00000000000E+00 0. -1.
         21    1    1    2  503  502 -0.74938218918E+01  0.34443888610E+02  0.44881907855E+00  0.35252521437E+02  0.00000000000E+00 0. -1.
</event>
<event>
 4    1  0.2293753E+005  0.2161533E+02  0.7546771E-02  0.1510658E+00
          2   -1    0    0  503    0  0.00000000000E+00  0.00000000000E+00  0.41097533926E+03  0.41097533926E+03  0.00000000000E+00 0.  1.
         21   -1    0    0  501  502 -0.00000000000E+00 -0.00000000000E+00 -0.31152332850E+01  0.31152332850E+01  0.00000000000E+00 0.  1.
          2    1    1    2  501    0  0.49739200272E+01  0.21035266489E+02  0.36892625268E+03  0.36955892932E+03  0.00000000000E+00 0.  1.
         21    1    1    2  503  502 -0.49739200272E+01 -0.21035266489E+02  0.38933853291E+02  0.44531643230E+02  0.00000000000E+00 0.  1.
</event>
<event>
 4    1  0.2293753E+005  0.2447890E+02  0.7546771E-02  0.1474718E+00
          2   -1    0    0  503    0  0.00000000000E+00  0.00000000000E+00  0.27418077118E+03  0.27418077118E+03  0.00000000000E+00 0.  1.
         21   -1    0    0  501  502 -0.00000000000E+00 -0.00000000000E+00 -0.22189641982E+01  0.22189641982E+01  0.00000000000E+00 0.  1.
          2    1    1    2  501    0  0.46445026711E+01 -0.24034245776E+02  0.11900403607E+03  0.12149558418E+03  0.00000000000E+00 0.  1.
         21    1    1    2  503  502 -0.46445026711E+01  0.24034245776E+02  0.15295777091E+03  0.15490415119E+03  0.00000000000E+00 0.  1.
</event>
<event>
 4    1  0.2293753E+005  0.2528861E+02  0.7546771E-02  0.1465600E+00
          2   -1    0    0  503    0  0.00000000000E+00  0.00000000000E+00  0.23729250280E+03  0.23729250280E+03  0.00000000000E+00 0.  1.
         21   -1    0    0  501  502 -0.00000000000E+00 -0.00000000000E+00 -0.26330939844E+02  0.26330939844E+02  0.00000000000E+00 0.  1.
          2    1    1    2  501    0 -0.18202332114E+02 -0.17555303018E+02  0.23036480767E+03  0.23174869616E+03  0.00000000000E+00 0.  1.
         21    1    1    2  503  502  0.18202332114E+02  0.17555303018E+02 -0.19403244710E+02  0.31874746489E+02  0.00000000000E+00 0.  1.
</event>
<event>
 4    1  0.2293753E+005  0.2660444E+02  0.7546771E-02  0.1451623E+00
          2   -1    0    0  502    0  0.00000000000E+00  0.00000000000E+00  0.42390033888E+03  0.42390033888E+03  0.00000000000E+00 0. -1.
         21   -1    0    0  503  502 -0.00000000000E+00 -0.00000000000E+00 -0.44462467351E+01  0.44462467351E+01  0.00000000000E+00 0. -1.
          2    1    1    2  501    0 -0.26594701443E+02  0.71983096473E+00  0.37897335289E+03  0.37990603905E+03  0.00000000000E+00 0. -1.
         21    1    1    2  503  501  0.26594701443E+02 -0.71983096473E+00  0.40480739253E+02  0.48440546569E+02  0.00000000000E+00 0. -1.
</event>
<event>
 4    1  0.2293753E+005  0.3794809E+02  0.7546771E-02  0.1360948E+00
          2   -1    0    0  503    0  0.00000000000E+00  0.00000000000E+00  0.13144753217E+04  0.13144753217E+04  0.00000000000E+00 0. -1.
         21   -1    0    0  501  502 -0.00000000000E+00 -0.00000000000E+00 -0.36926063918E+01  0.36926063918E+01  0.00000000000E+00 0.  1.
          2    1    1    2  501    0 -0.34954126038E+02  0.14773858190E+02  0.12081250274E+04  0.12087208692E+04  0.00000000000E+00 0. -1.
         21    1    1    2  503  502  0.34954126038E+02 -0.14773858190E+02  0.10265768789E+03  0.10944705887E+03  0.00000000000E+00 0.  1.
</event>
<event>
 4    1  0.2293753E+005  0.2277998E+02  0.7546771E-02  0.1495280E+00
          2   -1    0    0  502    0  0.00000000000E+00  0.00000000000E+00  0.26077533107E+03  0.26077533107E+03  0.00000000000E+00 0. -1.
         21   -1    0    0  503  502 -0.00000000000E+00 -0.00000000000E+00 -0.87677500196E+01  0.87677500196E+01  0.00000000000E+00 0. -1.
          2    1    1    2  501    0 -0.14372378494E+02 -0.17673773767E+02  0.24449844926E+03  0.24555736444E+03  0.00000000000E+00 0. -1.
         21    1    1    2  503  501  0.14372378494E+02  0.17673773767E+02  0.75091317917E+01  0.23985716646E+02  0.00000000000E+00 0. -1.
</event>
<event>
 4    1  0.2293753E+005  0.2135620E+02  0.7546771E-02  0.1514240E+00
          2   -1    0    0  502    0  0.00000000000E+00  0.00000000000E+00  0.78376012410E+03  0.78376012410E+03  0.00000000000E+00 0. -1.
         21   -1    0    0  503  502 -0.00000000000E+00 -0.00000000000E+00 -0.28634442161E+01  0.28634442161E+01  0.00000000000E+00 0. -1.
          2    1    1    2  501    0  0.41057469630E+01 -0.20957821078E+02  0.74152739954E+03  0.74183486821E+03  0.00000000000E+00 0. -1.
         21    1    1    2  503  501 -0.41057469630E+01  0.20957821078E+02  0.39369280344E+02  0.44788700107E+02  0.00000000000E+00 0. -1.
</event>
<event>
 4    1  0.2293753E+005  0.3046305E+02  0.7546771E-02  0.1415614E+00
          2   -1    0    0  503    0  0.00000000000E+00  0.00000000000E+00  0.14562969310E+02  0.14562969310E+02  0.00000000000E+00 0. -1.
         21   -1    0    0  501  502 -0.00000000000E+00 -0.00000000000E+00 -0.10792576966E+03  0.10792576966E+03  0.00000000000E+00 0. -1.
          2    1    1    2  501    0 -0.29706768255E+02 -0.67457446467E+01 -0.74866432858E+01  0.31369523087E+02  0.00000000000E+00 0. -1.
         21    1    1    2  503  502  0.29706768255E+02  0.67457446467E+01 -0.85876157069E+02  0.91119215887E+02  0.00000000000E+00 0. -1.
</event>
<event>
 4    1  0.2293753E+005  0.2208420E+02  0.7546771E-02  0.1504330E+00
          2   -1    0    0  502    0  0.00000000000E+00  0.00000000000E+00  0.59847118355E+03  0.59847118355E+03  0.00000000000E+00 0. -1.
         21   -1    0    0  503  502 -0.00000000000E+00 -0.00000000000E+00 -0.34432831001E+02  0.34432831001E+02  0.00000000000E+00 0.  1.
          2    1    1    2  501    0 -0.18526768641E+02 -0.12019589999E+02  0.59470399112E+03  0.59511389562E+03  0.00000000000E+00 0. -1.
         21    1    1    2  503  501  0.18526768641E+02  0.12019589999E+02 -0.30665638573E+02  0.37790118935E+02  0.00000000000E+00 0.  1.
</event>
<event>
 4    1  0.2293753E+005  0.2761443E+02  0.7546771E-02  0.1441532E+00
          2   -1    0    0  502    0  0.00000000000E+00  0.00000000000E+00  0.51765599378E+03  0.51765599378E+03  0.00000000000E+00 0.  1.
         21   -1    0    0  503  502 -0.00000000000E+00 -0.00000000000E+00 -0.38408094897E+01  0.38408094897E+01  0.00000000000E+00 0.  1.
          2    1    1    2  501    0 -0.15431489360E+01 -0.27571280514E+02  0.46163447492E+03  0.46245966879E+03  0.00000000000E+00 0.  1.
         21    1    1    2  503  501  0.15431489360E+01  0.27571280514E+02  0.52180709372E+02  0.59037134487E+02  0.00000000000E+00 0.  1.
</event>
<event>
 4    1  0.2293753E+005  0.2474227E+02  0.7546771E-02  0.1471707E+00
          2   -1    0    0  503    0  0.00000000000E+00  0.00000000000E+00  0.96451720116E+03  0.96451720116E+03  0.00000000000E+00 0.  1.
         21   -1    0    0  501  502 -0.00000000000E+00 -0.00000000000E+00 -0.15699981088E+03  0.15699981088E+03  0.00000000000E+00 0. -1.
          2    1    1    2  501    0 -0.23234260019E+02  0.85058353830E+01  0.96338256779E+03  0.96370023970E+03  0.00000000000E+00 0.  1.
         21    1    1    2  503  502  0.23234260019E+02 -0.85058353830E+01 -0.15586517751E+03  0.15781677235E+03  0.00000000000E+00 0. -1.
</event>
<event>
 4    1  0.2293753E+005  0.2296165E+02  0.7546771E-02  0.1492980E+00
          2   -1    0    0  502    0  0.00000000000E+00  0.00000000000E+00  0.49435588345E+02  0.49435588345E+02  0.00000000000E+00 0. -1.
         21   -1    0    0  503  502 -0.00000000000E+00 -0.00000000000E+00 -0.26646577372E+02  0.26646577372E+02  0.00000000000E+00 0.  1.
          2    1    1    2  501    0  0.92282952756E+01 -0.21025603877E+02  0.40855003064E+02  0.46865432116E+02  0.00000000000E+00 0. -1.
         21    1    1    2  503  501 -0.92282952756E+01  0.21025603877E+02 -0.18065992090E+02  0.29216733601E+02  0.00000000000E+00 0.  1.
</event>
<event>
 4    1  0.2293753E+005  0.3969616E+02  0.7546771E-02  0.1350276E+00
          2   -1    0    0  502    0  0.00000000000E+00  0.00000000000E+00  0.11963894953E+04  0.11963894953E+04  0.00000000000E+00 0.  1.
         21   -1    0    0  503  502 -0.00000000000E+00 -0.00000000000E+00 -0.27956938754E+02  0.27956938754E+02  0.00000000000E+00 0. -1.
          2    1    1    2  501    0  0.16869937640E+02  0.35933137174E+02  0.11817950668E+04  0.11824615702E+04  0.00000000000E+00 0.  1.
         21    1    1    2  503  501 -0.16869937640E+02 -0.35933137174E+02 -0.13362510205E+02  0.41884863879E+02  0.00000000000E+00 0. -1.
</event>
<event>
 4    1  0.2293753E+005  0.2049069E+02  0.7546771E-02  0.1526662E+00
          2   -1    0    0  503    0  0.00000000000E+00  0.00000000000E+00  0.73597060703E+03  0.73597060703E+03  0.00000000000E+00 0.  1.
         21   -1    0    0  501  502 -0.00000000000E+00 -0.00000000000E+00 -0.26912826653E+01  0.26912826653E+01  0.00000000000E+00 0.  1.
          2    1    1    2  501    0  0.10717075180E+02 -0.17464611267E+02  0.69449670983E+03  0.69479892654E+03  0.00000000000E+00 0.  1.
         21    1    1    2  503  502 -0.10717075180E+02  0.17464611267E+02  0.38782614525E+02  0.43862963153E+02  0.00000000000E+00 0.  1.
</event>
<event>
 4    1  0.2293753E+005  0.2014257E+02  0.7546771E-02  0.1531867E+00
          2   -1    0    0  502    0  0.00000000000E+00  0.00000000000E+00  0.53281490538E+03  0.53281490538E+03  0.00000000000E+00 0.  1.
         21   -1    0    0  503  502 -0.00000000000E+00 -0.00000000000E+00 -0.23389535905E+02  0.23389535905E+02  0.00000000000E+00 0. -1.
          2    1    1    2  501    0 -0.19324578654E+02  0.56818704483E+01  0.52825049390E+03  0.52863437960E+03  0.00000000000E+00 0.  1.
         21    1    1    2  503  501  0.19324578654E+02 -0.56818704483E+01 -0.18825124420E+02  0.27570061687E+02  0.00000000000E+00 0. -1.
</event>
<event>
 4    1  0.2293753E+005  0.4659550E+02  0.7546771E-02  0.1313649E+00
          2   -1    0    0  503    0  0.00000000000E+00  0.00000000000E+00  0.17892701709E+03  0.17892701709E+03  0.00000000000E+00 0. -1.
         21   -1    0    0  501  502 -0.00000000000E+00 -0.00000000000E+00 -0.47836911696E+02  0.47836911696E+02  0.00000000000E+00 0. -1.
          2    1    1    2  501    0 -0.21397671381E+01 -0.46546343423E+02  0.16349695148E+03  0.17000704054E+03  0.00000000000E+00 0. -1.
         21    1    1    2  503  502  0.21397671381E+01  0.46546343423E+02 -0.32406846091E+02  0.56756888243E+02  0.00000000000E+00 0. -1.
</event>
<event>
 4    1  0.2293753E+005  0.2664200E+02  0.7546771E-02  0.1451238E+00
          2   -1    0    0  502    0  0.00000000000E+00  0.00000000000E+00  0.12103309984E+04  0.12103309984E+04  0.00000000000E+00 0. -1.
         21   -1    0    0  503  502 -0.00000000000E+00 -0.00000000000E+00 -0.26471492519E+01  0.26471492519E+01  0.00000000000E+00 0. -1.
          2    1    1    2  501    0 -0.89494432104E-01  0.26641851316E+02  0.11389497221E+04  0.11392612807E+04  0.00000000000E+00 0. -1.
         21    1    1    2  503  501  0.89494432104E-01 -0.26641851316E+02  0.68734127045E+02  0.73716866939E+02  0.00000000000E+00 0. -1.
</event>
<event>
 4    1  0.2293753E+005  0.3499318E+02  0.7546771E-02  0.1380611E+00
          2   -1    0    0  502    0  0.00000000000E+00  0.00000000000E+00  0.32482990738E+03  0.32482990738E+03  0.00000000000E+00 0. -1.
         21   -1    0    0  503  502 -0.00000000000E+00 -0.00000000000E+00 -0.16528144720E+02  0.16528144720E+02  0.00000000000E+00 0.  1.
          2    1    1    2  501    0  0.34931627194E+02  0.20745708181E+01  0.30410775858E+03  0.30611444143E+03  0.00000000000E+00 0. -1.
         21    1    1    2  503  501 -0.34931627194E+02 -0.20745708181E+01  0.41940040744E+01  0.35243610665E+02  0.00000000000E+00 0.  1.
</event>
<event>
 4    1  0.2293753E+005  0.2263361E+02  0.7546771E-02  0.1497151E+00
          2   -1    0    0  503    0  0.00000000000E+00  0.00000000000E+00  0.10403997104E+03  0.10403997104E+03  0.00000000000E+00 0.  1.
         21   -1    0    0  501  502 -0.00000000000E+00 -0.00000000000E+00 -0.35173634677E+02  0.35173634677E+02  0.00000000000E+00 0.  1.
          2    1    1    2  501    0 -0.67462271160E+01  0.21604835690E+02  0.98984317429E+02  0.10153903487E+03  0.00000000000E+00 0.  1.
         21    1    1    2  503  502  0.67462271160E+01 -0.21604835690E+02 -0.30117981062E+02  0.37674570851E+02  0.00000000000E+00 0.  1.
</event>
<event>
 4    1  0.2293753E+005  0.2240992E+02  0.7546771E-02  0.1500044E+00
          2   -1    0    0  503    0  0.00000000000E+00  0.00000000000E+00  0.11182120815E+04  0.11182120815E+04  0.00000000000E+00 0. -1.
         21   -1    0    0  501  502 -0.00000000000E+00 -0.00000000000E+00 -0.70814348052E+00  0.70814348052E+00  0.00000000000E+00 0. -1.
          2    1    1    2  501    0 -0.19714983524E+02  0.10654755485E+02  0.89711532837E+03  0.89739518429E+03  0.00000000000E+00 0. -1.
         21    1    1    2  503  502  0.19714983524E+02 -0.10654755485E+02  0.22038860963E+03  0.22152504067E+03  0.00000000000E+00 0. -1.
</event>
<event>
 4    1  0.2293753E+005  0.2167146E+02  0.7546771E-02  0.1509890E+00
          2   -1    0    0  502    0  0.00000000000E+00  0.00000000000E+00  0.17694191822E+04  0.17694191822E+04  0.00000000000E+00 0.  1.
         21   -1    0    0  503  502 -0.00000000000E+00 -0.00000000000E+00 -0.39578179741E+00  0.39578179741E+00  0.00000000000E+00 0. -1.
          2    1    1    2  501    0 -0.54409271917E+01 -0.20977337358E+02  0.13923585536E+04  0.13925271970E+04  0.00000000000E+00 0.  1.
         21    1    1    2  503  501  0.54409271917E+01  0.20977337358E+02  0.37666484673E+03  0.37728776700E+03  0.00000000000E+00 0. -1.
</event>
<event>
 4    1  0.2293753E+005  0.4925237E+02  0.7546771E-02  0.1301447E+00
          2   -1    0    0  503    0  0.00000000000E+00  0.00000000000E+00  0.39903127713E+03  0.39903127713E+03  0.00000000000E+00 0. -1.
         21   -1    0    0  501  502 -0.00000000000E+00 -0.00000000000E+00 -0.16513402963E+03  0.16513402963E+03  0.00000000000E+00 0. -1.
          2    1    1    2  501    0  0.32552354684E+02  0.36961333808E+02  0.39379032147E+03  0.39685842976E+03  0.00000000000E+00 0. -1.
         21    1    1    2  503  502 -0.32552354684E+02 -0.36961333808E+02 -0.15989307396E+03  0.16730687701E+03  0.00000000000E+00 0. -1.
</event>
<event>
 4    1  0.2293753E+005  0.2232588E+02  0.7546771E-02  0.1501141E+00
          2   -1    0    0  502    0  0.00000000000E+00  0.00000000000E+00  0.16091778086E+03  0.16091778086E+03  0.00000000000E+00 0.  1.
         21   -1    0    0  503  502 -0.00000000000E+00 -0.00000000000E+00 -0.13789051884E+03  0.13789051884E+03  0.00000000000E+00 0.  1.
          2    1    1    2  501    0 -0.16065699123E+02 -0.15502847019E+02  0.15923017438E+03  0.16078772772E+03  0.00000000000E+00 0.  1.
         21    1    1    2  503  501  0.16065699123E+02  0.15502847019E+02 -0.13620291236E+03  0.13802057198E+03  0.00000000000E+00 0.  1.
</event>
<event>
 4    1  0.2293753E+005  0.2110798E+02  0.7546771E-02  0.1517729E+00
          2   -1    0    0  503    0  0.00000000000E+00  0.00000000000E+00  0.30285788682E+03  0.30285788682E+03  0.00000000000E+00 0. -1.
         21   -1    0    0  501  502 -0.00000000000E+00 -0.00000000000E+00 -0.27301984814E+01  0.27301984814E+01  0.00000000000E+00 0. -1.
          2    1    1    2  501    0  0.20336947139E+02  0.56529241758E+01  0.25382430938E+03  0.25470046526E+03  0.00000000000E+00 0. -1.
         21    1    1    2  503  502 -0.20336947139E+02 -0.56529241758E+01  0.46303378963E+02  0.50887620047E+02  0.00000000000E+00 0. -1.
</event>
<event>
 4    1  0.2293753E+005  0.4274572E+02  0.7546771E-02  0.1333106E+00
          2   -1    0    0  503    0  0.00000000000E+00  0.00000000000E+00  0.37354812885E+02  0.37354812885E+02  0.00000000000E+00 0.  1.
         21   -1    0    0  501  502 -0.00000000000E+00 -0.00000000000E+00 -0.16175184745E+03  0.16175184745E+03  0.00000000000E+00 0. -1.
          2    1    1    2  501    0 -0.42492641135E+02  0.46445920758E+01  0.20950544792E+02  0.47603803559E+02  0.00000000000E+00 0.  1.
         21    1    1    2  503  502  0.42492641135E+02 -0.46445920758E+01 -0.14534757935E+03  0.15150285677E+03  0.00000000000E+00 0. -1.
</event>
<event>
 4    1  0.2293753E+005  0.2042739E+02  0.7546771E-02  0.1527600E+00
          2   -1    0    0  502    0  0.00000000000E+00  0.00000000000E+00  0.16349915635E+03  0.16349915635E+03  0.00000000000E+00 0. -1.
         21   -1    0    0  503  502 -0.00000000000E+00 -0.00000000000E+00 -0.17082576373E+03  0.17082576373E+03  0.00000000000E+00 0.  1.
          2    1    1    2  501    0 -0.56479525306E+00 -0.20419577352E+02  0.16224573590E+03  0.16352662460E+03  0.00000000000E+00 0. -1.
         21    1    1    2  503  501  0.56479525306E+00  0.20419577352E+02 -0.16957234328E+03  0.17079829548E+03  0.00000000000E+00 0.  1.
</event>
<event>
 4    1  0.2293753E+005  0.2121093E+02  0.7546771E-02  0.1516275E+00
          2   -1    0    0  503    0  0.00000000000E+00  0.00000000000E+00  0.76700945382E+03  0.76700945382E+03  0.00000000000E+00 0. -1.
         21   -1    0    0  501  502 -0.00000000000E+00 -0.00000000000E+00 -0.49243786676E+03  0.49243786676E+03  0.00000000000E+00 0. -1.
          2    1    1    2  501    0 -0.81109306376E+01  0.19598885911E+02  0.76663429373E+03  0.76692766533E+03  0.00000000000E+00 0. -1.
         21    1    1    2  503  502  0.81109306376E+01 -0.19598885911E+02 -0.49206270666E+03  0.49251965525E+03  0.00000000000E+00 0. -1.
</event>
<event>
 4    1  0.2293753E+005  0.2848900E+02  0.7546771E-02  0.1433198E+00
          2   -1    0    0  503    0  0.00000000000E+00  0.00000000000E+00  0.11636885550E+03  0.11636885550E+03  0.00000000000E+00 0.  1.
         21   -1    0    0  501  502 -0.00000000000E+00 -0.00000000000E+00 -0.12705304068E+02  0.12705304068E+02  0.00000000000E+00 0. -1.
          2    1    1    2  501    0 -0.46510623068E+01 -0.28106775800E+02  0.95175052812E+02  0.99347440351E+02  0.00000000000E+00 0.  1.
         21    1    1    2  503  502  0.46510623068E+01  0.28106775800E+02  0.84884986174E+01  0.29726719214E+02  0.00000000000E+00 0. -1.
</event>
<event>
 4    1  0.2293753E+005  0.2009013E+02  0.7546771E-02  0.1532662E+00
          2   -1    0    0  503    0  0.00000000000E+00  0.00000000000E+00  0.75959470820E+03  0.75959470820E+03  0.00000000000E+00 0.  1.
         21   -1    0    0  501  502 -0.00000000000E+00 -0.00000000000E+00 -0.20388746292E+01  0.20388746292E+01  0.00000000000E+00 0. -1.
          2    1    1    2  501    0 -0.15522979425E+02 -0.12753445513E+02  0.70623360653E+03  0.70651929928E+03  0.00000000000E+00 0.  1.
         21    1    1    2  503  502  0.15522979425E+02  0.12753445513E+02  0.51322227038E+02  0.55114283546E+02  0.00000000000E+00 0. -1.
</event>
<event>
 4    1  0.2293753E+005  0.2625089E+02  0.7546771E-02  0.1455282E+00
          2   -1    0    0  502    0  0.00000000000E+00  0.00000000000E+00  0.66706541949E+03  0.66706541949E+03  0.00000000000E+00 0. -1.
         21   -1    0    0  503  502 -0.00000000000E+00 -0.00000000000E+00 -0.14128868478E+02  0.14128868478E+02  0.00000000000E+00 0.  1.
          2    1    1    2  501    0 -0.15911367046E+01  0.26202623590E+02  0.65437755127E+03  0.65490387753E+03  0.00000000000E+00 0. -1.
         21    1    1    2  503  501  0.15911367046E+01 -0.26202623590E+02 -0.14410002625E+01  0.26290410433E+02  0.00000000000E+00 0.  1.
</event>
<event>
 4    1  0.2293753E+005  0.2885544E+02  0.7546771E-02  0.1429810E+00
          2   -1    0    0  502    0  0.00000000000E+00  0.00000000000E+00  0.13993771649E+04  0.13993771649E+04  0.00000000000E+00 0.  1.
         21   -1    0    0  503  502 -0.00000000000E+00 -0.00000000000E+00 -0.15721216890E+02  0.15721216890E+02  0.00000000000E+00 0.  1.
          2    1    1    2  501    0 -0.24821491889E+02 -0.14714952020E+02  0.13858586240E+04  0.13861589959E+04  0.00000000000E+00 0.  1.
         21    1    1    2  503  501  0.24821491889E+02  0.14714952020E+02 -0.22026759916E+01  0.28939385862E+02  0.00000000000E+00 0.  1.
</event>
<event>
 4    1  0.2293753E+005  0.3148205E+02  0.7546771E-02  0.1407140E+00
          2   -1    0    0  503    0  0.00000000000E+00  0.00000000000E+00  0.15191048624E+04  0.15191048624E+04  0.00000000000E+00 0.  1.
         21   -1    0    0  501  502 -0.00000000000E+00 -0.00000000000E+00 -0.86116205337E+01  0.86116205337E+01  0.00000000000E+00 0. -1.
          2    1    1    2  501    0 -0.10032883326E+02  0.29840589406E+02  0.14895991562E+04  0.14899317990E+04  0.00000000000E+00 0.  1.
         21    1    1    2  503  502  0.10032883326E+02 -0.29840589406E+02  0.20894085663E+02  0.37784683929E+02  0.00000000000E+00 0. -1.
</event>
<event>
 4    1  0.2293753E+005  0.2113790E+02  0.7546771E-02  0.1517305E+00
          2   -1    0    0  503    0  0.00000000000E+00  0.00000000000E+00  0.72851383227E+01  0.72851383227E+01  0.00000000000E+00 0.  1.
         21   -1    0    0  501  502 -0.00000000000E+00 -0.00000000000E+00 -0.64484346949E+02  0.64484346949E+02  0.00000000000E+00 0.  1.
          2    1    1    2  501    0 -0.21129102816E+02  0.60976594028E+00 -0.20665242317E+02  0.29561174542E+02  0.00000000000E+00 0.  1.
         21    1    1    2  503  502  0.21129102816E+02 -0.60976594028E+00 -0.36533966310E+02  0.42208310729E+02  0.00000000000E+00 0.  1.
</event>
<event>
 4    1  0.2293753E+005  0.4493907E+02  0.7546771E-02  0.1321744E+00
          2   -1    0    0  503    0  0.00000000000E+00  0.00000000000E+00  0.48401673389E+02  0.48401673389E+02  0.00000000000E+00 0.  1.
         21   -1    0    0  501  502 -0.00000000000E+00 -0.00000000000E+00 -0.44617022255E+02  0.44617022255E+02  0.00000000000E+00 0. -1.
          2    1    1    2  501    0  0.20879259067E+02 -0.39794172586E+02  0.13735090612E+02  0.46991194335E+02  0.00000000000E+00 0.  1.
         21    1    1    2  503  502 -0.20879259067E+02  0.39794172586E+02 -0.99504394769E+01  0.46027501309E+02  0.00000000000E+00 0. -1.
</event>
<event>
 4    1  0.2293753E+005  0.3025995E+02  0.7546771E-02  0.1417351E+00
          2   -1    0    0  502    0  0.00000000000E+00  0.00000000000E+00  0.25676592606E+02  0.25676592606E+02  0.00000000000E+00 0. -1.
         21   -1    0    0  503  502 -0.00000000000E+00 -0.00000000000E+00 -0.15193084341E+03  0.15193084341E+03  0.00000000000E+00 0.  1.
          2    1    1    2  501    0 -0.89640524507E+01 -0.28901740110E+02  0.14558534042E+02  0.33579990042E+02  0.00000000000E+00 0. -1.
         21    1    1    2  503  501  0.89640524507E+01  0.28901740110E+02 -0.14081278485E+03  0.14402744598E+03  0.00000000000E+00 0.  1.
</event>
<event>
 4    1  0.2293753E+005  0.5022564E+02  0.7546771E-02  0.1297197E+00
          2   -1    0    0  503    0  0.00000000000E+00  0.00000000000E+00  0.82107057237E+02  0.82107057237E+02  0.00000000000E+00 0. -1.
         21   -1    0    0  501  502 -0.00000000000E+00 -0.00000000000E+00 -0.13475415808E+03  0.13475415808E+03  0.00000000000E+00 0.  1.
          2    1    1    2  501    0  0.42488391526E+02 -0.26783409303E+02  0.68947624548E+02  0.85301754725E+02  0.00000000000E+00 0. -1.
         21    1    1    2  503  502 -0.42488391526E+02  0.26783409303E+02 -0.12159472540E+03  0.13155946060E+03  0.00000000000E+00 0.  1.
</event>
<event>
 4    1  0.2293753E+005  0.2049292E+02  0.7546771E-02  0.1526629E+00
          2   -1    0    0  502    0  0.00000000000E+00  0.00000000000E+00  0.54389035861E+03  0.54389035861E+03  0.00000000000E+00 0. -1.
         21   -1    0    0  503  502 -0.00000000000E+00 -0.00000000000E+00 -0.19987553915E+02  0.19987553915E+02  0.00000000000E+00 0. -1.
          2    1    1    2  501    0  0.14587512169E+02 -0.14393197264E+02  0.53839092391E+03  0.53878079642E+03  0.00000000000E+00 0. -1.
         21    1    1    2  503  501 -0.14587512169E+02  0.14393197264E+02 -0.14488119213E+02  0.25097116111E+02  0.00000000000E+00 0. -1.
</event>
<event>
 4    1  0.2293753E+005  0.2444595E+02  0.7546771E-02  0.1475098E+00
          2   -1    0    0  503    0  0.00000000000E+00  0.00000000000E+00  0.73690181448E+02  0.73690181448E+02  0.00000000000E+00 0. -1.
         21   -1    0    0  501  502 -0.00000000000E+00 -0.00000000000E+00 -0.43987486835E+02  0.43987486835E+02  0.00000000000E+00 0. -1.
          2    1    1    2  501    0  0.66646561744E+00  0.24436864006E+02  0.67990223976E+02  0.72251470955E+02  0.00000000000E+00 0. -1.
         21    1    1    2  503  502 -0.66646561744E+00 -0.24436864006E+02 -0.38287529363E+02  0.45426197327E+02  0.00000000000E+00 0. -1.
</event>
<event>
 4    1  0.2293753E+005  0.2241208E+02  0.7546771E-02  0.1500016E+00
          2   -1    0    0  502    0  0.00000000000E+00  0.00000000000E+00  0.16348848953E+03  0.16348848953E+03  0.00000000000E+00 0.  1.
         21   -1    0    0  503  502 -0.00000000000E+00 -0.00000000000E+00 -0.11565111928E+02  0.11565111928E+02  0.00000000000E+00 0.  1.
          2    1    1    2  501    0 -0.75432338989E+01  0.21104522477E+02  0.15096655734E+03  0.15262110825E+03  0.00000000000E+00 0.  1.
         21    1    1    2  503  501  0.75432338989E+01 -0.21104522477E+02  0.95682025873E+00  0.22432493211E+02  0.00000000000E+00 0.  1.
</event>
<event>
 4    1  0.2293753E+005  0.2227477E+02  0.7546771E-02  0.1501811E+00
          2   -1    0    0  503    0  0.00000000000E+00  0.00000000000E+00  0.37799143920E+02  0.37799143920E+02  0.00000000000E+00 0. -1.
         21   -1    0    0  501  502 -0.00000000000E+00 -0.00000000000E+00 -0.17232896085E+02  0.17232896085E+02  0.00000000000E+00 0.  1.
          2    1    1    2  501    0  0.21232841773E+02 -0.67328874345E+01  0.23715228443E+02  0.32535786498E+02  0.00000000000E+00 0. -1.
         21    1    1    2  503  502 -0.21232841773E+02  0.67328874345E+01 -0.31489806082E+01  0.22496253507E+02  0.00000000000E+00 0.  1.
</event>
<event>
 4    1  0.2293753E+005  0.2415393E+02  0.7546771E-02  0.1478495E+00
          2   -1    0    0  503    0  0.00000000000E+00  0.00000000000E+00  0.24352114050E+03  0.24352114050E+03  0.00000000000E+00 0.  1.
         21   -1    0    0  501  502 -0.00000000000E+00 -0.00000000000E+00 -0.92633276803E+02  0.92633276803E+02  0.00000000000E+00 0.  1.
          2    1    1    2  501    0  0.18511028547E+02  0.15516252357E+02  0.24133344781E+03  0.24253916240E+03  0.00000000000E+00 0.  1.
         21    1    1    2  503  502 -0.18511028547E+02 -0.15516252357E+02 -0.90445584113E+02  0.93615254904E+02  0.00000000000E+00 0.  1.
</event>
<event>
 4    1  0.2293753E+005  0.2203677E+02  0.7546771E-02  0.1504961E+00
          2   -1    0    0  502    0  0.00000000000E+00  0.00000000000E+00  0.28723007936E+03  0.28723007936E+03  0.00000000000E+00 0.  1.
         21   -1    0    0  503  502 -0.00000000000E+00 -0.00000000000E+00 -0.57504908845E+01  0.57504908845E+01  0.00000000000E+00 0.  1.
          2    1    1    2  501    0 -0.20346322135E+02 -0.84644217102E+01  0.26382569694E+03  0.26474443833E+03  0.00000000000E+00 0.  1.
         21    1    1    2  503  501  0.20346322135E+02  0.84644217102E+01  0.17653891535E+02  0.28236131917E+02  0.00000000000E+00 0.  1.
</event>
<event>
 4    1  0.2293753E+005  0.3073438E+02  0.7546771E-02  0.1413320E+00
          2   -1    0    0  503    0  0.00000000000E+00  0.00000000000E+00  0.34499428086E+03  0.34499428086E+03  0.00000000000E+00 0.  1.
         21   -1    0    0  501  502 -0.00000000000E+00 -0.00000000000E+00 -0.58304556021E+01  0.58304556021E+01  0.00000000000E+00 0.  1.
          2    1    1    2  501    0  0.28035617248E+02  0.12593887263E+02  0.29733140346E+03  0.29891564916E+03  0.00000000000E+00 0.  1.
         21    1    1    2  503  502 -0.28035617248E+02 -0.12593887263E+02  0.41832421803E+02  0.51909087305E+02  0.00000000000E+00 0.  1.
</event>
<event>
 4    1  0.2293753E+005  0.2391418E+02  0.7546771E-02  0.1481327E+00
          2   -1    0    0  503    0  0.00000000000E+00  0.00000000000E+00  0.13381470700E+03  0.13381470700E+03  0.00000000000E+00 0. -1.
         21   -1    0    0  501  502 -0.00000000000E+00 -0.00000000000E+00 -0.43337086941E+01  0.43337086941E+01  0.00000000000E+00 0.  1.
          2    1    1    2  501    0 -0.23373016968E+02 -0.50586551196E+01  0.72866651047E+02  0.76690525808E+02  0.00000000000E+00 0. -1.
         21    1    1    2  503  502  0.23373016968E+02  0.50586551196E+01  0.56614347259E+02  0.61457889887E+02  0.00000000000E+00 0.  1.
</event>
<event>
 4    1  0.2293753E+005  0.2732387E+02  0.7546771E-02  0.1444382E+00
          2   -1    0    0  503    0  0.00000000000E+00  0.00000000000E+00  0.32024129912E+03  0.32024129912E+03  0.00000000000E+00 0. -1.
         21   -1    0    0  501  502 -0.00000000000E+00 -0.00000000000E+00 -0.32477381738E+01  0.32477381738E+01  0.00000000000E+00 0.  1.
          2    1    1    2  501    0 -0.13075603721E+02 -0.23992127810E+02  0.24441385929E+03  0.24593643127E+03  0.00000000000E+00 0. -1.
         21    1    1    2  503  502  0.13075603721E+02  0.23992127810E+02  0.72579701651E+02  0.77552606025E+02  0.00000000000E+00 0.  1.
</event>
<event>
 4    1  0.2293753E+005  0.2879073E+02  0.7546771E-02  0.1430404E+00
          2   -1    0    0  502    0  0.00000000000E+00  0.00000000000E+00  0.74744788157E+03  0.74744788157E+03  0.00000000000E+00 0. -1.
         21   -1    0    0  503  502 -0.00000000000E+00 -0.00000000000E+00 -0.28892048971E+01  0.28892048971E+01  0.00000000000E+00 0. -1.
          2    1    1    2  501    0  0.22080592689E+02  0.18475750101E+02  0.66677200941E+03  0.66739330118E+03  0.00000000000E+00 0. -1.
         21    1    1    2  503  501 -0.22080592689E+02 -0.18475750101E+02  0.77786667254E+02  0.82943785288E+02  0.00000000000E+00 0. -1.
</event>
<event>
 4    1  0.2293753E+005  0.2407258E+02  0.7546771E-02  0.1479452E+00
          2   -1    0    0  503    0  0.00000000000E+00  0.00000000000E+00  0.11059659513E+04  0.11059659513E+04  0.00000000000E+00 0. -1.
         21   -1    0    0  501  502 -0.00000000000E+00 -0.00000000000E+00 -0.62811623407E+00  0.62811623407E+00  0.00000000000E+00 0. -1.
          2    1    1    2  501    0  0.16124112403E+02 -0.17874617326E+02  0.77797230603E+03  0.77834465239E+03  0.00000000000E+00 0. -1.
         21    1    1    2  503  502 -0.16124112403E+02  0.17874617326E+02  0.32736552904E+03  0.32824941515E+03  0.00000000000E+00 0. -1.
</event>
<event>
 4    1  0.2293753E+005  0.2106372E+02  0.7546771E-02  0.1518357E+00
          2   -1    0    0  503    0  0.00000000000E+00  0.00000000000E+00  0.69534162927E+03  0.69534162927E+03  0.00000000000E+00 0. -1.
         21   -1    0    0  501  502 -0.00000000000E+00 -0.00000000000E+00 -0.21323852287E+01  0.21323852287E+01  0.00000000000E+00 0. -1.
          2    1    1    2  501    0 -0.19772524580E+02 -0.72613898103E+01  0.63853917768E+03  0.63888650161E+03  0.00000000000E+00 0. -1.
         21    1    1    2  503  502  0.19772524580E+02  0.72613898103E+01  0.54670066357E+02  0.58587512882E+02  0.00000000000E+00 0. -1.
</event>
<event>
 4    1  0.2293753E+005  0.2660149E+02  0.7546771E-02  0.1451653E+00
          2   -1    0    0  502    0  0.00000000000E+00  0.00000000000E+00  0.93198474472E+03  0.93198474472E+03  0.00000000000E+00 0. -1.
         21   -1    0    0  503  502 -0.00000000000E+00 -0.00000000000E+00 -0.27752053569E+01  0.27752053569E+01  0.00000000000E+00 0. -1.
          2    1    1    2  501    0 -0.22525544756E+02  0.14150583718E+02  0.86294993741E+03  0.86335985178E+03  0.00000000000E+00 0. -1.
         21    1    1    2  503  501  0.22525544756E+02 -0.14150583718E+02  0.66259601950E+02  0.71400098296E+02  0.00000000000E+00 0. -1.
</event>
<event>
 4    1  0.2293753E+005  0.2302071E+02  0.7546771E-02  0.1492238E+00
          2   -1    0    0  503    0  0.00000000000E+00  0.00000000000E+00  0.33206849323E+03  0.33206849323E+03  0.00000000000E+00 0. -1.
         21   -1    0    0  501  502 -0.00000000000E+00 -0.00000000000E+00 -0.12717237295E+02  0.12717237295E+02  0.00000000000E+00 0. -1.
          2    1    1    2  501    0  0.27883060308E+01  0.22851223466E+02  0.32088901977E+03  0.32171371757E+03  0.00000000000E+00 0. -1.
         21    1    1    2  503  502 -0.27883060308E+01 -0.22851223466E+02 -0.15377638289E+01  0.23072012960E+02  0.00000000000E+00 0. -1.
</event>
<event>
 4    1  0.2293753E+005  0.2039062E+02  0.7546771E-02  0.1528146E+00
          2   -1    0    0  502    0  0.00000000000E+00  0.00000000000E+00  0.12201770511E+04  0.12201770511E+04  0.00000000000E+00 0. -1.
         21   -1    0    0  503  502 -0.00000000000E+00 -0.00000000000E+00 -0.82357830140E+00  0.82357830140E+00  0.00000000000E+00 0. -1.
          2    1    1    2  501    0 -0.19412432870E+02  0.62397832228E+01  0.10771201278E+04  0.10773131148E+04  0.00000000000E+00 0. -1.
         21    1    1    2  503  501  0.19412432870E+02 -0.62397832228E+01  0.14223334498E+03  0.14368751465E+03  0.00000000000E+00 0. -1.
</event>
<event>
 4    1  0.2293753E+005  0.2442662E+02  0.7546771E-02  0.1475321E+00
          2   -1    0    0  503    0  0.00000000000E+00  0.00000000000E+00  0.13602309810E+04  0.13602309810E+04  0.00000000000E+00 0. -1.
         21   -1    0    0  501  502 -0.00000000000E+00 -0.00000000000E+00 -0.16311776540E+01  0.16311776540E+01  0.00000000000E+00 0. -1.
          2    1    1    2  501    0 -0.24399338600E+02 -0.11542271910E+01  0.12615203731E+04  0.12617568354E+04  0.00000000000E+00 0. -1.
         21    1    1    2  503  502  0.24399338600E+02  0.11542271910E+01  0.97079430275E+02  0.10010532327E+03  0.00000000000E+00 0. -1.
</event>
<event>
 4    1  0.2293753E+005  0.2708443E+02  0.7546771E-02  0.1446762E+00
          2   -1    0    0  503    0  0.00000000000E+00  0.00000000000E+00  0.20791853136E+04  0.20791853136E+04  0.00000000000E+00 0. -1.
         21   -1    0    0  501  502 -0.00000000000E+00 -0.00000000000E+00 -0.45990145006E+00  0.45990145006E+00  0.00000000000E+00 0. -1.
          2    1    1    2  501    0  0.13264538138E+02  0.23613947289E+02  0.15411219508E+04  0.15413599300E+04  0.00000000000E+00 0. -1.
         21    1    1    2  503  502 -0.13264538138E+02 -0.23613947289E+02  0.53760346132E+03  0.53828528505E+03  0.00000000000E+00 0. -1.
</event>
<event>
 4    1  0.2293753E+005  0.2742450E+02  0.7546771E-02  0.1443390E+00
          2   -1    0    0  503    0  0.00000000000E+00  0.00000000000E+00  0.12097949907E+04  0.12097949907E+04  0.00000000000E+00 0.  1.
         21   -1    0    0  501  502 -0.00000000000E+00 -0.00000000000E+00 -0.33326150938E+02  0.33326150938E+02  0.00000000000E+00 0.  1.
          2    1    1    2  501    0 -0.21264795672E+02  0.17317961737E+02  0.12039702886E+04  0.12042825910E+04  0.00000000000E+00 0.  1.
         21    1    1    2  503  502  0.21264795672E+02 -0.17317961737E+02 -0.27501448747E+02  0.38838550654E+02  0.00000000000E+00 0.  1.
</event>
<event>
 4    1  0.2293753E+005  0.2543436E+02  0.7546771E-02  0.1464002E+00
          2   -1    0    0  503    0  0.00000000000E+00  0.00000000000E+00  0.12526941239E+03  0.12526941239E+03  0.00000000000E+00 0.  1.
         21   -1    0    0  501  502 -0.00000000000E+00 -0.00000000000E+00 -0.72313172795E+01  0.72313172795E+01  0.00000000000E+00 0.  1.
          2    1    1    2  501    0  0.21760092648E+02  0.13168336616E+02  0.94440809195E+02  0.97805793094E+02  0.00000000000E+00 0.  1.
         21    1    1    2  503  502 -0.21760092648E+02 -0.13168336616E+02  0.23597285911E+02  0.34694936571E+02  0.00000000000E+00 0.  1.
</event>
<event>
 4    1  0.2293753E+005  0.2932273E+02  0.7546771E-02  0.1425575E+00
          2   -1    0    0  503    0  0.00000000000E+00  0.00000000000E+00  0.14364039920E+04  0.14364039920E+04  0.00000000000E+00 0. -1.
         21   -1    0    0  501  502 -0.00000000000E+00 -0.00000000000E+00 -0.65765534352E+00  0.65765534352E+00  0.00000000000E+00 0.  1.
          2    1    1    2  501    0  0.29091701457E+02  0.36736234343E+01  0.93320013424E+03  0.93366070558E+03  0.00000000000E+00 0. -1.
         21    1    1    2  503  502 -0.29091701457E+02 -0.36736234343E+01  0.50254620238E+03  0.50340094172E+03  0.00000000000E+00 0.  1.
</event>
<event>
 4    1  0.2293753E+005  0.2496038E+02  0.7546771E-02  0.1469247E+00
          2   -1    0    0  503    0  0.00000000000E+00  0.00000000000E+00  0.11241605173E+04  0.11241605173E+04  0.00000000000E+00 0. -1.
         21   -1    0    0  501  502 -0.00000000000E+00 -0.00000000000E+00 -0.53563242756E+01  0.53563242756E+01  0.00000000000E+00 0. -1.
          2    1    1    2  501    0 -0.24960223941E+02  0.88528821820E-01  0.10941456345E+04  0.10944303039E+04  0.00000000000E+00 0. -1.
         21    1    1    2  503  502  0.24960223941E+02 -0.88528821820E-01  0.24658558502E+02  0.35086537645E+02  0.00000000000E+00 0. -1.
</event>
<event>
 4    1  0.2293753E+005  0.2014032E+02  0.7546771E-02  0.1531901E+00
          2   -1    0    0  503    0  0.00000000000E+00  0.00000000000E+00  0.10480468593E+04  0.10480468593E+04  0.00000000000E+00 0. -1.
         21   -1    0    0  501  502 -0.00000000000E+00 -0.00000000000E+00 -0.28289380366E+01  0.28289380366E+01  0.00000000000E+00 0. -1.
          2    1    1    2  501    0  0.20133678739E+02 -0.51731006651E+00  0.10107819322E+04  0.10109825652E+04  0.00000000000E+00 0. -1.
         21    1    1    2  503  502 -0.20133678739E+02  0.51731006651E+00  0.34435989051E+02  0.39893232147E+02  0.00000000000E+00 0. -1.
</event>
<event>
 4    1  0.2293753E+005  0.2188774E+02  0.7546771E-02  0.1506958E+00
          2   -1    0    0  503    0  0.00000000000E+00  0.00000000000E+00  0.83100433411E+00  0.83100433411E+00  0.00000000000E+00 0. -1.
         21   -1    0    0  501  502 -0.00000000000E+00 -0.00000000000E+00 -0.63281753692E+03  0.63281753692E+03  0.00000000000E+00 0.  1.
          2    1    1    2  501    0 -0.57075384293E+01  0.21130482063E+02 -0.22147746711E+03  0.22255637871E+03  0.00000000000E+00 0. -1.
         21    1    1    2  503  502  0.57075384293E+01 -0.21130482063E+02 -0.41050906547E+03  0.41109216254E+03  0.00000000000E+00 0.  1.
</event>
<event>
 4    1  0.2293753E+005  0.2597298E+02  0.7546771E-02  0.1458207E+00
          2   -1    0    0  503    0  0.00000000000E+00  0.00000000000E+00  0.74302803630E+03  0.74302803630E+03  0.00000000000E+00 0.  1.
         21   -1    0    0  501  502 -0.00000000000E+00 -0.00000000000E+00 -0.76540389540E+02  0.76540389540E+02  0.00000000000E+00 0.  1.
          2    1    1    2  501    0 -0.24803476665E+02 -0.77060659956E+01  0.74059041241E+03  0.74104571712E+03  0.00000000000E+00 0.  1.
         21    1    1    2  503  502  0.24803476665E+02  0.77060659956E+01 -0.74102765650E+02  0.78522708720E+02  0.00000000000E+00 0.  1.
</event>
<event>
 4    1  0.2293753E+005  0.2790466E+02  0.7546771E-02  0.1438726E+00
          2   -1    0    0  502    0  0.00000000000E+00  0.00000000000E+00  0.12257839090E+04  0.12257839090E+04  0.00000000000E+00 0.  1.
         21   -1    0    0  503  502 -0.00000000000E+00 -0.00000000000E+00 -0.84245923367E+00  0.84245923367E+00  0.00000000000E+00 0. -1.
          2    1    1    2  501    0 -0.26946453075E+02 -0.72497461555E+01  0.91664337702E+03  0.91706801862E+03  0.00000000000E+00 0.  1.
         21    1    1    2  503  501  0.26946453075E+02  0.72497461555E+01  0.30829807279E+03  0.30955834965E+03  0.00000000000E+00 0. -1.
</event>
<event>
 4    1  0.2293753E+005  0.2068737E+02  0.7546771E-02  0.1523776E+00
          2   -1    0    0  502    0  0.00000000000E+00  0.00000000000E+00  0.16092799089E+03  0.16092799089E+03  0.00000000000E+00 0.  1.
         21   -1    0    0  503  502 -0.00000000000E+00 -0.00000000000E+00 -0.81184872382E+02  0.81184872382E+02  0.00000000000E+00 0. -1.
          2    1    1    2  501    0  0.79314320294E+01 -0.19106530656E+02  0.15892876151E+03  0.16026951788E+03  0.00000000000E+00 0.  1.
         21    1    1    2  503  501 -0.79314320294E+01  0.19106530656E+02 -0.79185642999E+02  0.81843345392E+02  0.00000000000E+00 0. -1.
</event>
<event>
 4    1  0.2293753E+005  0.2577665E+02  0.7546771E-02  0.1460300E+00
          2   -1    0    0  503    0  0.00000000000E+00  0.00000000000E+00  0.15877340685E+04  0.15877340685E+04  0.00000000000E+00 0.  1.
         21   -1    0    0  501  502 -0.00000000000E+00 -0.00000000000E+00 -0.67227778758E+00  0.67227778758E+00  0.00000000000E+00 0.  1.
          2    1    1    2  501    0 -0.13104835714E+02  0.22196828119E+02  0.12815093460E+04  0.12817685594E+04  0.00000000000E+00 0.  1.
         21    1    1    2  503  502  0.13104835714E+02 -0.22196828119E+02  0.30555244475E+03  0.30663778696E+03  0.00000000000E+00 0.  1.
</event>
<event>
 4    1  0.2293753E+005  0.2004081E+02  0.7546771E-02  0.1533413E+00
          2   -1    0    0  503    0  0.00000000000E+00  0.00000000000E+00  0.11954990455E+03  0.11954990455E+03  0.00000000000E+00 0.  1.
         21   -1    0    0  501  502 -0.00000000000E+00 -0.00000000000E+00 -0.73987542641E+01  0.73987542641E+01  0.00000000000E+00 0.  1.
          2    1    1    2  501    0 -0.12976534209E+01  0.19998752799E+02  0.10297490819E+03  0.10490693844E+03  0.00000000000E+00 0.  1.
         21    1    1    2  503  502  0.12976534209E+01 -0.19998752799E+02  0.91762421051E+01  0.22041720375E+02  0.00000000000E+00 0.  1.
</event>
<event>
 4    1  0.2293753E+005  0.2102242E+02  0.7546771E-02  0.1518945E+00
          2   -1    0    0  503    0  0.00000000000E+00  0.00000000000E+00  0.15934248966E+04  0.15934248966E+04  0.00000000000E+00 0.  1.
         21   -1    0    0  501  502 -0.00000000000E+00 -0.00000000000E+00 -0.12637473873E+01  0.12637473873E+01  0.00000000000E+00 0. -1.
          2    1    1    2  501    0  0.21005767228E+02  0.83670393572E+00  0.15005155444E+04  0.15006628006E+04  0.00000000000E+00 0.  1.
         21    1    1    2  503  502 -0.21005767228E+02 -0.83670393572E+00  0.91645604889E+02  0.94025843393E+02  0.00000000000E+00 0. -1.
</event>
<event>
 4    1  0.2293753E+005  0.4038999E+02  0.7546771E-02  0.1346216E+00
          2   -1    0    0  502    0  0.00000000000E+00  0.00000000000E+00  0.15132931521E+03  0.15132931521E+03  0.00000000000E+00 0.  1.
         21   -1    0    0  503  502 -0.00000000000E+00 -0.00000000000E+00 -0.50560975494E+02  0.50560975494E+02  0.00000000000E+00 0. -1.
          2    1    1    2  501    0 -0.15623808361E+01 -0.40359759710E+02  0.13992366975E+03  0.14563648098E+03  0.00000000000E+00 0.  1.
         21    1    1    2  503  501  0.15623808361E+01  0.40359759710E+02 -0.39155330033E+02  0.56253809718E+02  0.00000000000E+00 0. -1.
</event>
<event>
 4    1  0.2293753E+005  0.2928541E+02  0.7546771E-02  0.1425909E+00
          2   -1    0    0  502    0  0.00000000000E+00  0.00000000000E+00  0.34176735583E+03  0.34176735583E+03  0.00000000000E+00 0.  1.
         21   -1    0    0  503  502 -0.00000000000E+00 -0.00000000000E+00 -0.45514006639E+02  0.45514006639E+02  0.00000000000E+00 0.  1.
          2    1    1    2  501    0 -0.28012565655E+02  0.85400051037E+01  0.33635348830E+03  0.33762598332E+03  0.00000000000E+00 0.  1.
         21    1    1    2  503  501  0.28012565655E+02 -0.85400051037E+01 -0.40100139109E+02  0.49655379148E+02  0.00000000000E+00 0.  1.
</event>
<event>
 4    1  0.2293753E+005  0.4500163E+02  0.7546771E-02  0.1321431E+00
          2   -1    0    0  503    0  0.00000000000E+00  0.00000000000E+00  0.93210302220E+02  0.93210302220E+02  0.00000000000E+00 0.  1.
         21   -1    0    0  501  502 -0.00000000000E+00 -0.00000000000E+00 -0.22471033544E+02  0.22471033544E+02  0.00000000000E+00 0.  1.
          2    1    1    2  501    0 -0.41393966157E+02  0.17654636866E+02  0.45897084894E+02  0.64278215896E+02  0.00000000000E+00 0.  1.
         21    1    1    2  503  502  0.41393966157E+02 -0.17654636866E+02  0.24842183781E+02  0.51403119867E+02  0.00000000000E+00 0.  1.
</event>
<event>
 4    1  0.2293753E+005  0.2135437E+02  0.7546771E-02  0.1514265E+00
          2   -1    0    0  503    0  0.00000000000E+00  0.00000000000E+00  0.14355443404E+04  0.14355443404E+04  0.00000000000E+00 0. -1.
         21   -1    0    0  501  502 -0.00000000000E+00 -0.00000000000E+00 -0.33675437029E+01  0.33675437029E+01  0.00000000000E+00 0.  1.
          2    1    1    2  501    0 -0.85551985344E+01 -0.19565730536E+02  0.14007713432E+04  0.14009341045E+04  0.00000000000E+00 0. -1.
         21    1    1    2  503  502  0.85551985344E+01  0.19565730536E+02  0.31405453458E+02  0.37977779559E+02  0.00000000000E+00 0.  1.
</event>
<event>
 4    1  0.2293753E+005  0.2161934E+02  0.7546771E-02  0.1510603E+00
          2   -1    0    0  503    0  0.00000000000E+00  0.00000000000E+00  0.12389310850E+04  0.12389310850E+04  0.00000000000E+00 0.  1.
         21   -1    0    0  501  502 -0.00000000000E+00 -0.00000000000E+00 -0.25091442775E+01  0.25091442775E+01  0.00000000000E+00 0.  1.
          2    1    1    2  501    0  0.21271121464E+02  0.38646434458E+01  0.11903677748E+04  0.11905640828E+04  0.00000000000E+00 0.  1.
         21    1    1    2  503  502 -0.21271121464E+02 -0.38646434458E+01  0.46054165949E+02  0.50876146459E+02  0.00000000000E+00 0.  1.
</event>
<event>
 4    1  0.2293753E+005  0.5305627E+02  0.7546771E-02  0.1285439E+00
          2   -1    0    0  502    0  0.00000000000E+00  0.00000000000E+00  0.16677804656E+02  0.16677804656E+02  0.00000000000E+00 0. -1.
         21   -1    0    0  503  502 -0.00000000000E+00 -0.00000000000E+00 -0.18282767690E+03  0.18282767690E+03  0.00000000000E+00 0. -1.
          2    1    1    2  501    0 -0.90381840645E+01  0.52280773978E+02 -0.55429443650E+02  0.76729338081E+02  0.00000000000E+00 0. -1.
         21    1    1    2  503  501  0.90381840645E+01 -0.52280773978E+02 -0.11072042859E+03  0.12277614348E+03  0.00000000000E+00 0. -1.
</event>
<event>
 4    1  0.2293753E+005  0.5290578E+02  0.7546771E-02  0.1286043E+00
          2   -1    0    0  502    0  0.00000000000E+00  0.00000000000E+00  0.19974392237E+04  0.19974392237E+04  0.00000000000E+00 0. -1.
         21   -1    0    0  503  502 -0.00000000000E+00 -0.00000000000E+00 -0.86262339258E+01  0.86262339258E+01  0.00000000000E+00 0. -1.
          2    1    1    2  501    0  0.52877690784E+02  0.17238629435E+01  0.19123612450E+04  0.19130929285E+04  0.00000000000E+00 0. -1.
         21    1    1    2  503  501 -0.52877690784E+02 -0.17238629435E+01  0.76451744841E+02  0.92972529143E+02  0.00000000000E+00 0. -1.
</event>
<event>
 4    1  0.2293753E+005  0.2972330E+02  0.7546771E-02  0.1422016E+00
          2   -1    0    0  503    0  0.00000000000E+00  0.00000000000E+00  0.31511458885E+03  0.31511458885E+03  0.00000000000E+00 0. -1.
         21   -1    0    0  501  502 -0.00000000000E+00 -0.00000000000E+00 -0.31576551011E+01  0.31576551011E+01  0.00000000000E+00 0. -1.
          2    1    1    2  501    0 -0.55889266160E+00 -0.29718045842E+02  0.20926091747E+03  0.21136131668E+03  0.00000000000E+00 0. -1.
         21    1    1    2  503  502  0.55889266160E+00  0.29718045842E+02  0.10269601628E+03  0.10691092727E+03  0.00000000000E+00 0. -1.
</event>
<event>
 4    1  0.2293753E+005  0.2368677E+02  0.7546771E-02  0.1484050E+00
          2   -1    0    0  503    0  0.00000000000E+00  0.00000000000E+00  0.16409696102E+04  0.16409696102E+04  0.00000000000E+00 0.  1.
         21   -1    0    0  501  502 -0.00000000000E+00 -0.00000000000E+00 -0.87751921390E+03  0.87751921390E+03  0.00000000000E+00 0. -1.
          2    1    1    2  501    0  0.16552195203E+02 -0.16943672837E+02  0.16407242653E+04  0.16408952367E+04  0.00000000000E+00 0.  1.
         21    1    1    2  503  502 -0.16552195203E+02  0.16943672837E+02 -0.87727386904E+03  0.87759358733E+03  0.00000000000E+00 0. -1.
</event>
<event>
 4    1  0.2293753E+005  0.2213050E+02  0.7546771E-02  0.1503715E+00
          2   -1    0    0  502    0  0.00000000000E+00  0.00000000000E+00  0.32382083664E+02  0.32382083664E+02  0.00000000000E+00 0.  1.
         21   -1    0    0  503  502 -0.00000000000E+00 -0.00000000000E+00 -0.54287535422E+02  0.54287535422E+02  0.00000000000E+00 0. -1.
          2    1    1    2  501    0 -0.19679666144E+02  0.10122731060E+02  0.25853871159E+02  0.34032067195E+02  0.00000000000E+00 0.  1.
         21    1    1    2  503  501  0.19679666144E+02 -0.10122731060E+02 -0.47759322916E+02  0.52637551891E+02  0.00000000000E+00 0. -1.
</event>
<event>
 4    1  0.2293753E+005  0.2223104E+02  0.7546771E-02  0.1502386E+00
          2   -1    0    0  503    0  0.00000000000E+00  0.00000000000E+00  0.13301892377E+03  0.13301892377E+03  0.00000000000E+00 0.  1.
         21   -1    0    0  501  502 -0.00000000000E+00 -0.00000000000E+00 -0.53295934737E+01  0.53295934737E+01  0.00000000000E+00 0. -1.
          2    1    1    2  501    0 -0.20994143674E+02 -0.73119848454E+01  0.10191393748E+03  0.10431044935E+03  0.00000000000E+00 0.  1.
         21    1    1    2  503  502  0.20994143674E+02  0.73119848454E+01  0.25775392811E+02  0.34038067888E+02  0.00000000000E+00 0. -1.
</event>
<event>
 4    1  0.2293753E+005  0.2359960E+02  0.7546771E-02  0.1485103E+00
          2   -1    0    0  503    0  0.00000000000E+00  0.00000000000E+00  0.70589933152E+03  0.70589933152E+03  0.00000000000E+00 0. -1.
         21   -1    0    0  501  502 -0.00000000000E+00 -0.00000000000E+00 -0.10668945991E+01  0.10668945991E+01  0.00000000000E+00 0. -1.
          2    1    1    2  501    0  0.23589779972E+02  0.68081745269E+00  0.53282710199E+03  0.53334947440E+03  0.00000000000E+00 0. -1.
         21    1    1    2  503  502 -0.23589779972E+02 -0.68081745269E+00  0.17200533493E+03  0.17361675171E+03  0.00000000000E+00 0. -1.
</event>
<event>
 4    1  0.2293753E+005  0.2977124E+02  0.7546771E-02  0.1421595E+00
          2   -1    0    0  502    0  0.00000000000E+00  0.00000000000E+00  0.47856162744E+02  0.47856162744E+02  0.00000000000E+00 0.  1.
         21   -1    0    0  503  502 -0.00000000000E+00 -0.00000000000E+00 -0.23082372589E+02  0.23082372589E+02  0.00000000000E+00 0. -1.
          2    1    1    2  501    0  0.25944658320E+02  0.14601426145E+02  0.28154899457E+02  0.40975911267E+02  0.00000000000E+00 0.  1.
         21    1    1    2  503  501 -0.25944658320E+02 -0.14601426145E+02 -0.33811093013E+01  0.29962624065E+02  0.00000000000E+00 0. -1.
</event>
<event>
 4    1  0.2293753E+005  0.2190065E+02  0.7546771E-02  0.1506784E+00
          2   -1    0    0  502    0  0.00000000000E+00  0.00000000000E+00  0.49790498263E+03  0.49790498263E+03  0.00000000000E+00 0. -1.
         21   -1    0    0  503  502 -0.00000000000E+00 -0.00000000000E+00 -0.51795302357E+01  0.51795302357E+01  0.00000000000E+00 0.  1.
          2    1    1    2  501    0 -0.14054427664E+02  0.16796181135E+02  0.47331117841E+03  0.47381759174E+03  0.00000000000E+00 0. -1.
         21    1    1    2  503  501  0.14054427664E+02 -0.16796181135E+02  0.19414273988E+02  0.29266921126E+02  0.00000000000E+00 0.  1.
</event>
<event>
 4    1  0.2293753E+005  0.2308712E+02  0.7546771E-02  0.1491407E+00
          2   -1    0    0  503    0  0.00000000000E+00  0.00000000000E+00  0.10710949531E+04  0.10710949531E+04  0.00000000000E+00 0. -1.
         21   -1    0    0  501  502 -0.00000000000E+00 -0.00000000000E+00 -0.10106913997E+01  0.10106913997E+01  0.00000000000E+00 0.  1.
          2    1    1    2  501    0  0.23011803113E+02  0.18633089228E+01  0.91696933469E+03  0.91725992814E+03  0.00000000000E+00 0. -1.
         21    1    1    2  503  502 -0.23011803113E+02 -0.18633089228E+01  0.15311492698E+03  0.15484571633E+03  0.00000000000E+00 0.  1.
</event>
<event>
 4    1  0.2293753E+005  0.3358361E+02  0.7546771E-02  0.1390804E+00
          2   -1    0    0  503    0  0.00000000000E+00  0.00000000000E+00  0.10061768367E+04  0.10061768367E+04  0.00000000000E+00 0.  1.
         21   -1    0    0  501  502 -0.00000000000E+00 -0.00000000000E+00 -0.34201429404E+02  0.34201429404E+02  0.00000000000E+00 0.  1.
          2    1    1    2  501    0  0.17720213645E+02  0.28528104632E+02  0.99758135129E+03  0.99814648783E+03  0.00000000000E+00 0.  1.
         21    1    1    2  503  502 -0.17720213645E+02 -0.28528104632E+02 -0.25605944015E+02  0.42231778253E+02  0.00000000000E+00 0.  1.
</event>
<event>
 4    1  0.2293753E+005  0.2237335E+02  0.7546771E-02  0.1500521E+00
          2   -1    0    0  502    0  0.00000000000E+00  0.00000000000E+00  0.37589737236E+02  0.37589737236E+02  0.00000000000E+00 0. -1.
         21   -1    0    0  503  502 -0.00000000000E+00 -0.00000000000E+00 -0.69276253117E+02  0.69276253117E+02  0.00000000000E+00 0.  1.
          2    1    1    2  501    0  0.17924906279E+02  0.13388962720E+02  0.32180365443E+02  0.39193653923E+02  0.00000000000E+00 0. -1.
         21    1    1    2  503  501 -0.17924906279E+02 -0.13388962720E+02 -0.63866881324E+02  0.67672336430E+02  0.00000000000E+00 0.  1.
</event>
<event>
 4    1  0.2293753E+005  0.3452661E+02  0.7546771E-02  0.1383922E+00
          2   -1    0    0  503    0  0.00000000000E+00  0.00000000000E+00  0.31049715557E+02  0.31049715557E+02  0.00000000000E+00 0.  1.
         21   -1    0    0  501  502 -0.00000000000E+00 -0.00000000000E+00 -0.43195317851E+02  0.43195317851E+02  0.00000000000E+00 0. -1.
          2    1    1    2  501    0 -0.18491611661E+02 -0.29157287227E+02  0.63052213058E+01  0.35097619805E+02  0.00000000000E+00 0.  1.
         21    1    1    2  503  502  0.18491611661E+02  0.29157287227E+02 -0.18450823600E+02  0.39147413602E+02  0.00000000000E+00 0. -1.
</event>
<event>
 4    1  0.2293753E+005  0.2154229E+02  0.7546771E-02  0.1511661E+00
          2   -1    0    0  502    0  0.00000000000E+00  0.00000000000E+00  0.57631299520E+03  0.57631299520E+03  0.00000000000E+00 0.  1.
         21   -1    0    0  503  502 -0.00000000000E+00 -0.00000000000E+00 -0.12739941840E+02  0.12739941840E+02  0.00000000000E+00 0.  1.
          2    1    1    2  501    0 -0.63862128093E+01 -0.20573930279E+02  0.56685316402E+03  0.56726235542E+03  0.00000000000E+00 0.  1.
         21    1    1    2  503  501  0.63862128093E+01  0.20573930279E+02 -0.32801106610E+01  0.21790581615E+02  0.00000000000E+00 0.  1.
</event>
<event>
 4    1  0.2293753E+005  0.4177747E+02  0.7546771E-02  0.1338373E+00
          2   -1    0    0  502    0  0.00000000000E+00  0.00000000000E+00  0.48067722635E+03  0.48067722635E+03  0.00000000000E+00 0.  1.
         21   -1    0    0  503  502 -0.00000000000E+00 -0.00000000000E+00 -0.16441494379E+03  0.16441494379E+03  0.00000000000E+00 0.  1.
          2    1    1    2  501    0  0.73250616846E+01 -0.41130281719E+02  0.47709569277E+03  0.47892134705E+03  0.00000000000E+00 0.  1.
         21    1    1    2  503  501 -0.73250616846E+01  0.41130281719E+02 -0.16083341021E+03  0.16617082308E+03  0.00000000000E+00 0.  1.
</event>
<event>
 4    1  0.2293753E+005  0.2285835E+02  0.7546771E-02  0.1494285E+00
          2   -1    0    0  503    0  0.00000000000E+00  0.00000000000E+00  0.87852309637E+01  0.87852309637E+01  0.00000000000E+00 0. -1.
         21   -1    0    0  501  502 -0.00000000000E+00 -0.00000000000E+00 -0.24786090455E+03  0.24786090455E+03  0.00000000000E+00 0. -1.
          2    1    1    2  501    0 -0.11556234023E+02  0.19722010774E+02 -0.76650197425E+01  0.24109267542E+02  0.00000000000E+00 0. -1.
         21    1    1    2  503  502  0.11556234023E+02 -0.19722010774E+02 -0.23141065385E+03  0.23253686798E+03  0.00000000000E+00 0. -1.
</event>
<event>
 4    1  0.2293753E+005  0.2839623E+02  0.7546771E-02  0.1434065E+00
          2   -1    0    0  502    0  0.00000000000E+00  0.00000000000E+00  0.83988361158E+03  0.83988361158E+03  0.00000000000E+00 0.  1.
         21   -1    0    0  503  502 -0.00000000000E+00 -0.00000000000E+00 -0.13657757225E+02  0.13657757225E+02  0.00000000000E+00 0. -1.
          2    1    1    2  501    0  0.16519057273E+02  0.23096901336E+02  0.82461044235E+03  0.82509922296E+03  0.00000000000E+00 0.  1.
         21    1    1    2  503  501 -0.16519057273E+02 -0.23096901336E+02  0.16154120129E+01  0.28442145849E+02  0.00000000000E+00 0. -1.
</event>
<event>
 4    1  0.2293753E+005  0.2280385E+02  0.7546771E-02  0.1494976E+00
          2   -1    0    0  503    0  0.00000000000E+00  0.00000000000E+00  0.30271394010E+03  0.30271394010E+03  0.00000000000E+00 0. -1.
         21   -1    0    0  501  502 -0.00000000000E+00 -0.00000000000E+00 -0.15413950257E+02  0.15413950257E+02  0.00000000000E+00 0. -1.
          2    1    1    2  501    0  0.63582779837E+01 -0.21899497853E+02  0.29358854669E+03  0.29447283483E+03  0.00000000000E+00 0. -1.
         21    1    1    2  503  502 -0.63582779837E+01  0.21899497853E+02 -0.62885568419E+01  0.23655055533E+02  0.00000000000E+00 0. -1.
</event>
<event>
 4    1  0.2293753E+005  0.2056724E+02  0.7546771E-02  0.1525534E+00
          2   -1    0    0  502    0  0.00000000000E+00  0.00000000000E+00  0.52517481628E+03  0.52517481628E+03  0.00000000000E+00 0. -1.
         21   -1    0    0  503  502 -0.00000000000E+00 -0.00000000000E+00 -0.93206412249E+00  0.93206412249E+00  0.00000000000E+00 0.  1.
          2    1    1    2  501    0  0.19765717165E+02  0.56857577575E+01  0.35906775554E+03  0.35965631440E+03  0.00000000000E+00 0. -1.
         21    1    1    2  503  501 -0.19765717165E+02 -0.56857577575E+01  0.16517499662E+03  0.16645056601E+03  0.00000000000E+00 0.  1.
</event>
<event>
 4    1  0.2293753E+005  0.3709673E+02  0.7546771E-02  0.1366393E+00
          2   -1    0    0  503    0  0.00000000000E+00  0.00000000000E+00  0.18114863075E+04  0.18114863075E+04  0.00000000000E+00 0. -1.
         21   -1    0    0  501  502 -0.00000000000E+00 -0.00000000000E+00 -0.30341606780E+01  0.30341606780E+01  0.00000000000E+00 0. -1.
          2    1    1    2  501    0 -0.36509075935E+02  0.65768163605E+01  0.16897380414E+04  0.16901452055E+04  0.00000000000E+00 0. -1.
         21    1    1    2  503  502  0.36509075935E+02 -0.65768163605E+01  0.11871410546E+03  0.12437526271E+03  0.00000000000E+00 0. -1.
</event>
<event>
 4    1  0.2293753E+005  0.2142396E+02  0.7546771E-02  0.1513297E+00
          2   -1    0    0  502    0  0.00000000000E+00  0.00000000000E+00  0.28743176431E+02  0.28743176431E+02  0.00000000000E+00 0.  1.
         21   -1    0    0  503  502 -0.00000000000E+00 -0.00000000000E+00 -0.40680298814E+03  0.40680298814E+03  0.00000000000E+00 0. -1.
          2    1    1    2  501    0 -0.19949087316E+02  0.78115241334E+01  0.24426188876E+02  0.32490378530E+02  0.00000000000E+00 0.  1.
         21    1    1    2  503  501  0.19949087316E+02 -0.78115241334E+01 -0.40248600059E+03  0.40305578605E+03  0.00000000000E+00 0. -1.
</event>
<event>
 4    1  0.2293753E+005  0.3479025E+02  0.7546771E-02  0.1382044E+00
          2   -1    0    0  503    0  0.00000000000E+00  0.00000000000E+00  0.42761067056E+03  0.42761067056E+03  0.00000000000E+00 0.  1.
         21   -1    0    0  501  502 -0.00000000000E+00 -0.00000000000E+00 -0.41752303700E+02  0.41752303700E+02  0.00000000000E+00 0.  1.
          2    1    1    2  501    0 -0.15172016128E+02 -0.31307690667E+02  0.41951617035E+03  0.42095626703E+03  0.00000000000E+00 0.  1.
         21    1    1    2  503  502  0.15172016128E+02  0.31307690667E+02 -0.33657803493E+02  0.48406707224E+02  0.00000000000E+00 0.  1.
</event>
<event>
 4    1  0.2293753E+005  0.2041673E+02  0.7546771E-02  0.1527758E+00
          2   -1    0    0  502    0  0.00000000000E+00  0.00000000000E+00  0.13260667015E+04  0.13260667015E+04  0.00000000000E+00 0.  1.
         21   -1    0    0  503  502 -0.00000000000E+00 -0.00000000000E+00 -0.14485717625E+02  0.14485717625E+02  0.00000000000E+00 0. -1.
          2    1    1    2  501    0  0.18070618668E+02  0.95023978528E+01  0.13187541953E+04  0.13189122300E+04  0.00000000000E+00 0.  1.
         21    1    1    2  503  501 -0.18070618668E+02 -0.95023978528E+01 -0.71732114109E+01  0.21640189138E+02  0.00000000000E+00 0. -1.
</event>
<event>
 4    1  0.2293753E+005  0.2289630E+02  0.7546771E-02  0.1493804E+00
          2   -1    0    0  502    0  0.00000000000E+00  0.00000000000E+00  0.14103177486E+04  0.14103177486E+04  0.00000000000E+00 0. -1.
         21   -1    0    0  503  502 -0.00000000000E+00 -0.00000000000E+00 -0.64030293024E+01  0.64030293024E+01  0.00000000000E+00 0.  1.
          2    1    1    2  501    0  0.22882118044E+02 -0.80579389881E+00  0.13894489531E+04  0.13896375908E+04  0.00000000000E+00 0. -1.
         21    1    1    2  503  501 -0.22882118044E+02  0.80579389881E+00  0.14465766226E+02  0.27083187082E+02  0.00000000000E+00 0.  1.
</event>
<event>
 4    1  0.2293753E+005  0.3615728E+02  0.7546771E-02  0.1372605E+00
          2   -1    0    0  502    0  0.00000000000E+00  0.00000000000E+00  0.21340372110E+04  0.21340372110E+04  0.00000000000E+00 0. -1.
         21   -1    0    0  503  502 -0.00000000000E+00 -0.00000000000E+00 -0.45634528071E+02  0.45634528071E+02  0.00000000000E+00 0.  1.
          2    1    1    2  501    0  0.15838989818E+02  0.32503463820E+02  0.21266972806E+04  0.21270046243E+04  0.00000000000E+00 0. -1.
         21    1    1    2  503  501 -0.15838989818E+02 -0.32503463820E+02 -0.38294597681E+02  0.52667114696E+02  0.00000000000E+00 0.  1.
</event>
<event>
 4    1  0.2293753E+005  0.3081962E+02  0.7546771E-02  0.1412605E+00
          2   -1    0    0  502    0  0.00000000000E+00  0.00000000000E+00  0.94396980426E+03  0.94396980426E+03  0.00000000000E+00 0. -1.
         21   -1    0    0  503  502 -0.00000000000E+00 -0.00000000000E+00 -0.55122920764E+01  0.55122920764E+01  0.00000000000E+00 0.  1.
          2    1    1    2  501    0  0.23158978652E+01  0.30732488091E+02  0.89845803326E+03  0.89898647750E+03  0.00000000000E+00 0. -1.
         21    1    1    2  503  501 -0.23158978652E+01 -0.30732488091E+02  0.39999478931E+02  0.50495618839E+02  0.00000000000E+00 0.  1.
</event>
<event>
 4    1  0.2293753E+005  0.3518511E+02  0.7546771E-02  0.1379266E+00
          2   -1    0    0  503    0  0.00000000000E+00  0.00000000000E+00  0.56572022446E+03  0.56572022446E+03  0.00000000000E+00 0. -1.
         21   -1    0    0  501  502 -0.00000000000E+00 -0.00000000000E+00 -0.19763589666E+02  0.19763589666E+02  0.00000000000E+00 0.  1.
          2    1    1    2  501    0 -0.19815008936E+02 -0.29075028811E+02  0.54903779042E+03  0.55016405479E+03  0.00000000000E+00 0. -1.
         21    1    1    2  503  502  0.19815008936E+02  0.29075028811E+02 -0.30811556215E+01  0.35319759334E+02  0.00000000000E+00 0.  1.
</event>
<event>
 4    1  0.2293753E+005  0.2511734E+02  0.7546771E-02  0.1467495E+00
          2   -1    0    0  502    0  0.00000000000E+00  0.00000000000E+00  0.13162299934E+03  0.13162299934E+03  0.00000000000E+00 0.  1.
         21   -1    0    0  503  502 -0.00000000000E+00 -0.00000000000E+00 -0.40730087755E+02  0.40730087755E+02  0.00000000000E+00 0. -1.
          2    1    1    2  501    0 -0.15483952851E+02 -0.19776957003E+02  0.12639374266E+03  0.12886527464E+03  0.00000000000E+00 0.  1.
         21    1    1    2  503  501  0.15483952851E+02  0.19776957003E+02 -0.35500831082E+02  0.43487812450E+02  0.00000000000E+00 0. -1.
</event>
<event>
 4    1  0.2293753E+005  0.3239667E+02  0.7546771E-02  0.1399851E+00
          2   -1    0    0  502    0  0.00000000000E+00  0.00000000000E+00  0.37890477735E+03  0.37890477735E+03  0.00000000000E+00 0. -1.
         21   -1    0    0  503  502 -0.00000000000E+00 -0.00000000000E+00 -0.94483342280E+02  0.94483342280E+02  0.00000000000E+00 0.  1.
          2    1    1    2  501    0 -0.31489753745E+02 -0.76117886394E+01  0.37540942270E+03  0.37680469553E+03  0.00000000000E+00 0. -1.
         21    1    1    2  503  501  0.31489753745E+02  0.76117886394E+01 -0.90987987635E+02  0.96583424101E+02  0.00000000000E+00 0.  1.
</event>
<event>
 4    1  0.2293753E+005  0.2130471E+02  0.7546771E-02  0.1514959E+00
          2   -1    0    0  503    0  0.00000000000E+00  0.00000000000E+00  0.49232634212E+03  0.49232634212E+03  0.00000000000E+00 0.  1.
         21   -1    0    0  501  502 -0.00000000000E+00 -0.00000000000E+00 -0.10559053630E+02  0.10559053630E+02  0.00000000000E+00 0.  1.
          2    1    1    2  501    0 -0.47115713284E+01  0.20777193376E+02  0.48109870562E+03  0.48157019760E+03  0.00000000000E+00 0.  1.
         21    1    1    2  503  502  0.47115713284E+01 -0.20777193376E+02  0.66858286871E+00  0.21315198147E+02  0.00000000000E+00 0.  1.
</event>
<event>
 4    1  0.2293753E+005  0.2478199E+02  0.7546771E-02  0.1471257E+00
          2   -1    0    0  503    0  0.00000000000E+00  0.00000000000E+00  0.80597926148E+03  0.80597926148E+03  0.00000000000E+00 0.  1.
         21   -1    0    0  501  502 -0.00000000000E+00 -0.00000000000E+00 -0.10720687936E+02  0.10720687936E+02  0.00000000000E+00 0. -1.
          2    1    1    2  501    0  0.22067631174E+01 -0.24683537203E+02  0.79119977132E+03  0.79158778727E+03  0.00000000000E+00 0.  1.
         21    1    1    2  503  502 -0.22067631174E+01  0.24683537203E+02  0.40588022233E+01  0.25112162149E+02  0.00000000000E+00 0. -1.
</event>
<event>
 4    1  0.2293753E+005  0.2088986E+02  0.7546771E-02  0.1520843E+00
          2   -1    0    0  503    0  0.00000000000E+00  0.00000000000E+00  0.88860417827E+02  0.88860417827E+02  0.00000000000E+00 0.  1.
         21   -1    0    0  501  502 -0.00000000000E+00 -0.00000000000E+00 -0.58317099439E+02  0.58317099439E+02  0.00000000000E+00 0. -1.
          2    1    1    2  501    0 -0.17849152296E+02  0.10853292463E+02  0.85693809872E+02  0.88203260968E+02  0.00000000000E+00 0.  1.
         21    1    1    2  503  502  0.17849152296E+02 -0.10853292463E+02 -0.55150491484E+02  0.58974256298E+02  0.00000000000E+00 0. -1.
</event>
<event>
 4    1  0.2293753E+005  0.4208372E+02  0.7546771E-02  0.1336690E+00
          2   -1    0    0  503    0  0.00000000000E+00  0.00000000000E+00  0.63965755538E+03  0.63965755538E+03  0.00000000000E+00 0.  1.
         21   -1    0    0  501  502 -0.00000000000E+00 -0.00000000000E+00 -0.27268693288E+02  0.27268693288E+02  0.00000000000E+00 0.  1.
          2    1    1    2  501    0 -0.36221904710E+02 -0.21424585866E+02  0.62227541267E+03  0.62369682416E+03  0.00000000000E+00 0.  1.
         21    1    1    2  503  502  0.36221904710E+02  0.21424585866E+02 -0.98865505791E+01  0.43229424501E+02  0.00000000000E+00 0.  1.
</event>
<event>
 4    1  0.2293753E+005  0.3169518E+02  0.7546771E-02  0.1405416E+00
          2   -1    0    0  502    0  0.00000000000E+00  0.00000000000E+00  0.10738057762E+03  0.10738057762E+03  0.00000000000E+00 0. -1.
         21   -1    0    0  503  502 -0.00000000000E+00 -0.00000000000E+00 -0.45562287716E+02  0.45562287716E+02  0.00000000000E+00 0. -1.
          2    1    1    2  501    0 -0.93118144770E+01  0.30296446925E+02  0.99078983931E+02  0.10402513947E+03  0.00000000000E+00 0. -1.
         21    1    1    2  503  501  0.93118144770E+01 -0.30296446925E+02 -0.37260694023E+02  0.48917725869E+02  0.00000000000E+00 0. -1.
</event>
<event>
 4    1  0.2293753E+005  0.2884640E+02  0.7546771E-02  0.1429893E+00
          2   -1    0    0  502    0  0.00000000000E+00  0.00000000000E+00  0.25679571782E+02  0.25679571782E+02  0.00000000000E+00 0. -1.
         21   -1    0    0  503  502 -0.00000000000E+00 -0.00000000000E+00 -0.13316236216E+03  0.13316236216E+03  0.00000000000E+00 0. -1.
          2    1    1    2  501    0  0.92854431367E+01 -0.27311082754E+02  0.15343879841E+02  0.32673373624E+02  0.00000000000E+00 0. -1.
         21    1    1    2  503  501 -0.92854431367E+01  0.27311082754E+02 -0.12282667022E+03  0.12616856032E+03  0.00000000000E+00 0. -1.
</event>
<event>
 4    1  0.2293753E+005  0.2275000E+02  0.7546771E-02  0.1495661E+00
          2   -1    0    0  503    0  0.00000000000E+00  0.00000000000E+00  0.60344704782E+02  0.60344704782E+02  0.00000000000E+00 0.  1.
         21   -1    0    0  501  502 -0.00000000000E+00 -0.00000000000E+00 -0.86297087406E+01  0.86297087406E+01  0.00000000000E+00 0. -1.
          2    1    1    2  501    0 -0.77174028001E+01 -0.21401032380E+02  0.28558703858E+02  0.36512491821E+02  0.00000000000E+00 0.  1.
         21    1    1    2  503  502  0.77174028001E+01  0.21401032380E+02  0.23156292183E+02  0.32461921702E+02  0.00000000000E+00 0. -1.
</event>
<event>
 4    1  0.2293753E+005  0.2010044E+02  0.7546771E-02  0.1532506E+00
          2   -1    0    0  502    0  0.00000000000E+00  0.00000000000E+00  0.12153697140E+04  0.12153697140E+04  0.00000000000E+00 0. -1.
         21   -1    0    0  503  502 -0.00000000000E+00 -0.00000000000E+00 -0.55821022640E+00  0.55821022640E+00  0.00000000000E+00 0. -1.
          2    1    1    2  501    0  0.59748809455E+01 -0.19191889543E+02  0.99405746427E+03  0.99426066507E+03  0.00000000000E+00 0. -1.
         21    1    1    2  503  501 -0.59748809455E+01  0.19191889543E+02  0.22075403950E+03  0.22166725915E+03  0.00000000000E+00 0. -1.
</event>
<event>
 4    1  0.2293753E+005  0.2176041E+02  0.7546771E-02  0.1508679E+00
          2   -1    0    0  503    0  0.00000000000E+00  0.00000000000E+00  0.53116253311E+03  0.53116253311E+03  0.00000000000E+00 0.  1.
         21   -1    0    0  501  502 -0.00000000000E+00 -0.00000000000E+00 -0.13091476558E+01  0.13091476558E+01  0.00000000000E+00 0.  1.
          2    1    1    2  501    0  0.18856905509E+02 -0.10859672816E+02  0.41530767147E+03  0.41587735856E+03  0.00000000000E+00 0.  1.
         21    1    1    2  503  502 -0.18856905509E+02  0.10859672816E+02  0.11454571399E+03  0.11659432221E+03  0.00000000000E+00 0.  1.
</event>
<event>
 4    1  0.2293753E+005  0.2215109E+02  0.7546771E-02  0.1503442E+00
          2   -1    0    0  502    0  0.00000000000E+00  0.00000000000E+00  0.48598748164E+03  0.48598748164E+03  0.00000000000E+00 0.  1.
         21   -1    0    0  503  502 -0.00000000000E+00 -0.00000000000E+00 -0.17076232067E+01  0.17076232067E+01  0.00000000000E+00 0.  1.
          2    1    1    2  501    0 -0.19024763450E+02 -0.11345887100E+02  0.39803985277E+03  0.39865573515E+03  0.00000000000E+00 0.  1.
         21    1    1    2  503  501  0.19024763450E+02  0.11345887100E+02  0.86240005671E+02  0.89039369700E+02  0.00000000000E+00 0.  1.
</event>
<event>
 4    1  0.2293753E+005  0.2167512E+02  0.7546771E-02  0.1509840E+00
          2   -1    0    0  502    0  0.00000000000E+00  0.00000000000E+00  0.12417556915E+03  0.12417556915E+03  0.00000000000E+00 0.  1.
         21   -1    0    0  503  502 -0.00000000000E+00 -0.00000000000E+00 -0.34020053144E+02  0.34020053144E+02  0.00000000000E+00 0.  1.
          2    1    1    2  501    0  0.13360757502E+02 -0.17067536071E+02  0.11964765690E+03  0.12159511680E+03  0.00000000000E+00 0.  1.
         21    1    1    2  503  501 -0.13360757502E+02  0.17067536071E+02 -0.29492140888E+02  0.36600505498E+02  0.00000000000E+00 0.  1.
</event>
<event>
 4    1  0.2293753E+005  0.5122396E+02  0.7546771E-02  0.1292951E+00
          2   -1    0    0  502    0  0.00000000000E+00  0.00000000000E+00  0.84768661900E+03  0.84768661900E+03  0.00000000000E+00 0.  1.
         21   -1    0    0  503  502 -0.00000000000E+00 -0.00000000000E+00 -0.80654048661E+02  0.80654048661E+02  0.00000000000E+00 0.  1.
          2    1    1    2  501    0 -0.50886294240E+02 -0.58719081363E+01  0.83869246428E+03  0.84025528495E+03  0.00000000000E+00 0.  1.
         21    1    1    2  503  501  0.50886294240E+02  0.58719081363E+01 -0.71659893944E+02  0.88085382707E+02  0.00000000000E+00 0.  1.
</event>
<event>
 4    1  0.2293753E+005  0.7368789E+02  0.7546771E-02  0.1219312E+00
          2   -1    0    0  502    0  0.00000000000E+00  0.00000000000E+00  0.19966054671E+04  0.19966054671E+04  0.00000000000E+00 0. -1.
         21   -1    0    0  503  502 -0.00000000000E+00 -0.00000000000E+00 -0.52644788448E+01  0.52644788448E+01  0.00000000000E+00 0. -1.
          2    1    1    2  501    0 -0.41112140121E+02 -0.61153057263E+02  0.16915987207E+04  0.16932029224E+04  0.00000000000E+00 0. -1.
         21    1    1    2  503  501  0.41112140121E+02  0.61153057263E+02  0.29974226755E+03  0.30866702356E+03  0.00000000000E+00 0. -1.
</event>
<event>
 4    1  0.2293753E+005  0.2286868E+02  0.7546771E-02  0.1494154E+00
          2   -1    0    0  502    0  0.00000000000E+00  0.00000000000E+00  0.13985359797E+04  0.13985359797E+04  0.00000000000E+00 0.  1.
         21   -1    0    0  503  502 -0.00000000000E+00 -0.00000000000E+00 -0.83751578746E+00  0.83751578746E+00  0.00000000000E+00 0. -1.
          2    1    1    2  501    0  0.11815741434E+01 -0.22838136670E+02  0.12194020717E+04  0.12196164926E+04  0.00000000000E+00 0.  1.
         21    1    1    2  503  501 -0.11815741434E+01  0.22838136670E+02  0.17829639223E+03  0.17975700288E+03  0.00000000000E+00 0. -1.
</event>
<event>
 4    1  0.2293753E+005  0.2003536E+02  0.7546771E-02  0.1533496E+00
          2   -1    0    0  503    0  0.00000000000E+00  0.00000000000E+00  0.36400326148E+01  0.36400326148E+01  0.00000000000E+00 0. -1.
         21   -1    0    0  501  502 -0.00000000000E+00 -0.00000000000E+00 -0.22785228491E+03  0.22785228491E+03  0.00000000000E+00 0.  1.
          2    1    1    2  501    0 -0.18318735832E+02 -0.81141694528E+01 -0.28961170122E+02  0.35215979374E+02  0.00000000000E+00 0. -1.
         21    1    1    2  503  502  0.18318735832E+02  0.81141694528E+01 -0.19525108217E+03  0.19627633815E+03  0.00000000000E+00 0.  1.
</event>
<event>
 4    1  0.2293753E+005  0.2540908E+02  0.7546771E-02  0.1464279E+00
          2   -1    0    0  503    0  0.00000000000E+00  0.00000000000E+00  0.37451637561E+01  0.37451637561E+01  0.00000000000E+00 0.  1.
         21   -1    0    0  501  502 -0.00000000000E+00 -0.00000000000E+00 -0.62701454970E+03  0.62701454970E+03  0.00000000000E+00 0. -1.
          2    1    1    2  501    0  0.22807970333E+02  0.11199012619E+02 -0.43086319632E+02  0.50020519128E+02  0.00000000000E+00 0.  1.
         21    1    1    2  503  502 -0.22807970333E+02 -0.11199012619E+02 -0.58018306631E+03  0.58073919433E+03  0.00000000000E+00 0. -1.
</event>
<event>
 4    1  0.2293753E+005  0.2758984E+02  0.7546771E-02  0.1441771E+00
          2   -1    0    0  503    0  0.00000000000E+00  0.00000000000E+00  0.60018485600E+02  0.60018485600E+02  0.00000000000E+00 0.  1.
         21   -1    0    0  501  502 -0.00000000000E+00 -0.00000000000E+00 -0.21729492288E+02  0.21729492288E+02  0.00000000000E+00 0. -1.
          2    1    1    2  501    0  0.24196897731E+02  0.13255546640E+02  0.45518033293E+02  0.53226785845E+02  0.00000000000E+00 0.  1.
         21    1    1    2  503  502 -0.24196897731E+02 -0.13255546640E+02 -0.72290399815E+01  0.28521192043E+02  0.00000000000E+00 0. -1.
</event>
<event>
 4    1  0.2293753E+005  0.2761929E+02  0.7546771E-02  0.1441484E+00
          2   -1    0    0  502    0  0.00000000000E+00  0.00000000000E+00  0.22984814794E+03  0.22984814794E+03  0.00000000000E+00 0. -1.
         21   -1    0    0  503  502 -0.00000000000E+00 -0.00000000000E+00 -0.56295638211E+02  0.56295638211E+02  0.00000000000E+00 0. -1.
          2    1    1    2  501    0 -0.11481659123E+02  0.25119645682E+02  0.22556679864E+03  0.22725141527E+03  0.00000000000E+00 0. -1.
         21    1    1    2  503  501  0.11481659123E+02 -0.25119645682E+02 -0.52014288917E+02  0.58892370872E+02  0.00000000000E+00 0. -1.
</event>
<event>
 4    1  0.2293753E+005  0.4110360E+02  0.7546771E-02  0.1342137E+00
          2   -1    0    0  503    0  0.00000000000E+00  0.00000000000E+00  0.25565347620E+03  0.25565347620E+03  0.00000000000E+00 0. -1.
         21   -1    0    0  501  502 -0.00000000000E+00 -0.00000000000E+00 -0.73717624579E+01  0.73717624579E+01  0.00000000000E+00 0. -1.
          2    1    1    2  501    0 -0.15405345579E+02 -0.38107494214E+02  0.16645608514E+03  0.17145592456E+03  0.00000000000E+00 0. -1.
         21    1    1    2  503  502  0.15405345579E+02  0.38107494214E+02  0.81825628609E+02  0.91569314101E+02  0.00000000000E+00 0. -1.
</event>
<event>
 4    1  0.2293753E+005  0.2036314E+02  0.7546771E-02  0.1528555E+00
          2   -1    0    0  503    0  0.00000000000E+00  0.00000000000E+00  0.15221648438E+04  0.15221648438E+04  0.00000000000E+00 0.  1.
         21   -1    0    0  501  502 -0.00000000000E+00 -0.00000000000E+00 -0.89805443781E+00  0.89805443781E+00  0.00000000000E+00 0. -1.
          2    1    1    2  501    0  0.95301531565E+01  0.17995379653E+02  0.13962558923E+04  0.13964043735E+04  0.00000000000E+00 0.  1.
         21    1    1    2  503  502 -0.95301531565E+01 -0.17995379653E+02  0.12501089706E+03  0.12665852475E+03  0.00000000000E+00 0. -1.
</event>
<event>
 4    1  0.2293753E+005  0.2193150E+02  0.7546771E-02  0.1506370E+00
          2   -1    0    0  503    0  0.00000000000E+00  0.00000000000E+00  0.42587467097E+02  0.42587467097E+02  0.00000000000E+00 0. -1.
         21   -1    0    0  501  502 -0.00000000000E+00 -0.00000000000E+00 -0.68755820373E+02  0.68755820373E+02  0.00000000000E+00 0. -1.
          2    1    1    2  501    0  0.74815578270E+01 -0.20615935162E+02  0.37810026930E+02  0.43710280559E+02  0.00000000000E+00 0. -1.
         21    1    1    2  503  502 -0.74815578270E+01  0.20615935162E+02 -0.63978380206E+02  0.67633006912E+02  0.00000000000E+00 0. -1.
</event>
<event>
 4    1  0.2293753E+005  0.3111730E+02  0.7546771E-02  0.1410129E+00
          2   -1    0    0  503    0  0.00000000000E+00  0.00000000000E+00  0.19935217790E+02  0.19935217790E+02  0.00000000000E+00 0.  1.
         21   -1    0    0  501  502 -0.00000000000E+00 -0.00000000000E+00 -0.59697507624E+02  0.59697507624E+02  0.00000000000E+00 0.  1.
          2    1    1    2  501    0 -0.28005948568E+01  0.30991019097E+02 -0.26921666781E+01  0.31233545391E+02  0.00000000000E+00 0.  1.
         21    1    1    2  503  502  0.28005948568E+01 -0.30991019097E+02 -0.37070123156E+02  0.48399180024E+02  0.00000000000E+00 0.  1.
</event>
<event>
 4    1  0.2293753E+005  0.2047435E+02  0.7546771E-02  0.1526904E+00
          2   -1    0    0  502    0  0.00000000000E+00  0.00000000000E+00  0.78860853631E+03  0.78860853631E+03  0.00000000000E+00 0. -1.
         21   -1    0    0  503  502 -0.00000000000E+00 -0.00000000000E+00 -0.83452773779E+00  0.83452773779E+00  0.00000000000E+00 0.  1.
          2    1    1    2  501    0 -0.19653580201E+02 -0.57389587224E+01  0.63171505155E+03  0.63204675873E+03  0.00000000000E+00 0. -1.
         21    1    1    2  503  501  0.19653580201E+02  0.57389587224E+01  0.15605895702E+03  0.15739630532E+03  0.00000000000E+00 0.  1.
</event>
<event>
 4    1  0.2293753E+005  0.2773972E+02  0.7546771E-02  0.1440316E+00
          2   -1    0    0  502    0  0.00000000000E+00  0.00000000000E+00  0.20474870105E+04  0.20474870105E+04  0.00000000000E+00 0.  1.
         21   -1    0    0  503  502 -0.00000000000E+00 -0.00000000000E+00 -0.31251260768E+02  0.31251260768E+02  0.00000000000E+00 0.  1.
          2    1    1    2  501    0 -0.26074329385E+02 -0.94668474521E+01  0.20412184653E+04  0.20414069449E+04  0.00000000000E+00 0.  1.
         21    1    1    2  503  501  0.26074329385E+02  0.94668474521E+01 -0.24982715513E+02  0.37331326362E+02  0.00000000000E+00 0.  1.
</event>
<event>
 4    1  0.2293753E+005  0.3244066E+02  0.7546771E-02  0.1399508E+00
          2   -1    0    0  502    0  0.00000000000E+00  0.00000000000E+00  0.13130367134E+04  0.13130367134E+04  0.00000000000E+00 0.  1.
         21   -1    0    0  503  502 -0.00000000000E+00 -0.00000000000E+00 -0.62515939962E+01  0.62515939962E+01  0.00000000000E+00 0.  1.
          2    1    1    2  501    0  0.56494679925E+01  0.31944956169E+02  0.12693013443E+04  0.12697158341E+04  0.00000000000E+00 0.  1.
         21    1    1    2  503  501 -0.56494679925E+01 -0.31944956169E+02  0.37483775113E+02  0.49572473309E+02  0.00000000000E+00 0.  1.
</event>
<event>
 4    1  0.2293753E+005  0.2027574E+02  0.7546771E-02  0.1529861E+00
          2   -1    0    0  503    0  0.00000000000E+00  0.00000000000E+00  0.75404855656E+03  0.75404855656E+03  0.00000000000E+00 0. -1.
         21   -1    0    0  501  502 -0.00000000000E+00 -0.00000000000E+00 -0.18588285879E+01  0.18588285879E+01  0.00000000000E+00 0. -1.
          2    1    1    2  501    0 -0.19785820211E+02 -0.44302178627E+01  0.69382294730E+03  0.69411914518E+03  0.00000000000E+00 0. -1.
         21    1    1    2  503  502  0.19785820211E+02  0.44302178627E+01  0.58366780669E+02  0.61788239960E+02  0.00000000000E+00 0. -1.
</event>
<event>
 4    1  0.2293753E+005  0.3258724E+02  0.7546771E-02  0.1398368E+00
          2   -1    0    0  502    0  0.00000000000E+00  0.00000000000E+00  0.57630889209E+03  0.57630889209E+03  0.00000000000E+00 0. -1.
         21   -1    0    0  503  502 -0.00000000000E+00 -0.00000000000E+00 -0.31898002775E+01  0.31898002775E+01  0.00000000000E+00 0. -1.
          2    1    1    2  501    0 -0.32535457663E+02  0.18363497744E+01  0.47485975812E+03  0.47597659403E+03  0.00000000000E+00 0. -1.
         21    1    1    2  503  501  0.32535457663E+02 -0.18363497744E+01  0.98259333691E+02  0.10352209833E+03  0.00000000000E+00 0. -1.
</event>
<event>
 4    1  0.2293753E+005  0.3958722E+02  0.7546771E-02  0.1350922E+00
          2   -1    0    0  502    0  0.00000000000E+00  0.00000000000E+00  0.64218221141E+03  0.64218221141E+03  0.00000000000E+00 0. -1.
         21   -1    0    0  503  502 -0.00000000000E+00 -0.00000000000E+00 -0.61275318778E+01  0.61275318778E+01  0.00000000000E+00 0.  1.
          2    1    1    2  501    0  0.37869357775E+02  0.11535138186E+02  0.56948055803E+03  0.57085484464E+03  0.00000000000E+00 0. -1.
         21    1    1    2  503  501 -0.37869357775E+02 -0.11535138186E+02  0.66574121502E+02  0.77454898651E+02  0.00000000000E+00 0.  1.
</event>
<event>
 4    1  0.2293753E+005  0.2007106E+02  0.7546771E-02  0.1532952E+00
          2   -1    0    0  503    0  0.00000000000E+00  0.00000000000E+00  0.46012585223E+03  0.46012585223E+03  0.00000000000E+00 0. -1.
         21   -1    0    0  501  502 -0.00000000000E+00 -0.00000000000E+00 -0.91193798525E+00  0.91193798525E+00  0.00000000000E+00 0. -1.
          2    1    1    2  501    0  0.19421610192E+02 -0.50644349167E+01  0.18353814573E+03  0.18463233297E+03  0.00000000000E+00 0. -1.
         21    1    1    2  503  502 -0.19421610192E+02  0.50644349167E+01  0.27567576852E+03  0.27640545724E+03  0.00000000000E+00 0. -1.
</event>
<event>
 4    1  0.2293753E+005  0.3810444E+02  0.7546771E-02  0.1359967E+00
          2   -1    0    0  503    0  0.00000000000E+00  0.00000000000E+00  0.18889440961E+04  0.18889440961E+04  0.00000000000E+00 0. -1.
         21   -1    0    0  501  502 -0.00000000000E+00 -0.00000000000E+00 -0.83515852665E+01  0.83515852665E+01  0.00000000000E+00 0. -1.
          2    1    1    2  501    0 -0.31337274722E+02  0.21677713753E+02  0.18442351374E+04  0.18446287405E+04  0.00000000000E+00 0. -1.
         21    1    1    2  503  502  0.31337274722E+02 -0.21677713753E+02  0.36357373361E+02  0.52666940848E+02  0.00000000000E+00 0. -1.
</event>
<event>
 4    1  0.2293753E+005  0.5585635E+02  0.7546771E-02  0.1274601E+00
          2   -1    0    0  502    0  0.00000000000E+00  0.00000000000E+00  0.34618737584E+03  0.34618737584E+03  0.00000000000E+00 0.  1.
         21   -1    0    0  503  502 -0.00000000000E+00 -0.00000000000E+00 -0.47987404946E+02  0.47987404946E+02  0.00000000000E+00 0. -1.
          2    1    1    2  501    0  0.24498486576E+02  0.50197169255E+02  0.32671883793E+03  0.33145909357E+03  0.00000000000E+00 0.  1.
         21    1    1    2  503  501 -0.24498486576E+02 -0.50197169255E+02 -0.28518867044E+02  0.62715687218E+02  0.00000000000E+00 0. -1.
</event>
<event>
 4    1  0.2293753E+005  0.6512358E+02  0.7546771E-02  0.1243352E+00
          2   -1    0    0  502    0  0.00000000000E+00  0.00000000000E+00  0.22250595400E+04  0.22250595400E+04  0.00000000000E+00 0. -1.
         21   -1    0    0  503  502 -0.00000000000E+00 -0.00000000000E+00 -0.30572786664E+01  0.30572786664E+01  0.00000000000E+00 0.  1.
          2    1    1    2  501    0 -0.25752209416E+02  0.59815586225E+02  0.17946305517E+04  0.17958117657E+04  0.00000000000E+00 0. -1.
         21    1    1    2  503  501  0.25752209416E+02 -0.59815586225E+02  0.42737170957E+03  0.43230505293E+03  0.00000000000E+00 0.  1.
</event>
<event>
 4    1  0.2293753E+005  0.2016864E+02  0.7546771E-02  0.1531473E+00
          2   -1    0    0  502    0  0.00000000000E+00  0.00000000000E+00  0.23901031200E+03  0.23901031200E+03  0.00000000000E+00 0. -1.
         21   -1    0    0  503  502 -0.00000000000E+00 -0.00000000000E+00 -0.27315279532E+01  0.27315279532E+01  0.00000000000E+00 0.  1.
          2    1    1    2  501    0 -0.20084846116E+02 -0.18365532993E+01  0.19234848387E+03  0.19340298141E+03  0.00000000000E+00 0. -1.
         21    1    1    2  503  501  0.20084846116E+02  0.18365532993E+01  0.43930300171E+02  0.48338858537E+02  0.00000000000E+00 0.  1.
</event>
<event>
 4    1  0.2293753E+005  0.2049135E+02  0.7546771E-02  0.1526652E+00
          2   -1    0    0  503    0  0.00000000000E+00  0.00000000000E+00  0.47439718244E+01  0.47439718244E+01  0.00000000000E+00 0. -1.
         21   -1    0    0  501  502 -0.00000000000E+00 -0.00000000000E+00 -0.97255569166E+02  0.97255569166E+02  0.00000000000E+00 0. -1.
          2    1    1    2  501    0  0.46996538142E+01 -0.19945138206E+02 -0.30963532548E+02  0.37129982923E+02  0.00000000000E+00 0. -1.
         21    1    1    2  503  502 -0.46996538142E+01  0.19945138206E+02 -0.61548064794E+02  0.64869558068E+02  0.00000000000E+00 0. -1.
</event>
<event>
 4    1  0.2293753E+005  0.2467195E+02  0.7546771E-02  0.1472507E+00
          2   -1    0    0  503    0  0.00000000000E+00  0.00000000000E+00  0.20439163452E+04  0.20439163452E+04  0.00000000000E+00 0. -1.
         21   -1    0    0  501  502 -0.00000000000E+00 -0.00000000000E+00 -0.70739627203E+00  0.70739627203E+00  0.00000000000E+00 0.  1.
          2    1    1    2  501    0 -0.95314599874E+01  0.22756460806E+02  0.17995031418E+04  0.17996722653E+04  0.00000000000E+00 0. -1.
         21    1    1    2  503  502  0.95314599874E+01 -0.22756460806E+02  0.24370580713E+03  0.24495147614E+03  0.00000000000E+00 0.  1.
</event>
<event>
 4    1  0.2293753E+005  0.2497310E+02  0.7546771E-02  0.1469105E+00
          2   -1    0    0  502    0  0.00000000000E+00  0.00000000000E+00  0.18114165849E+02  0.18114165849E+02  0.00000000000E+00 0. -1.
         21   -1    0    0  503  502 -0.00000000000E+00 -0.00000000000E+00 -0.70132964200E+03  0.70132964200E+03  0.00000000000E+00 0.  1.
          2    1    1    2  501    0  0.23867541451E+02 -0.73481986344E+01  0.91734549099E+01  0.26604658109E+02  0.00000000000E+00 0. -1.
         21    1    1    2  503  501 -0.23867541451E+02  0.73481986344E+01 -0.69238893106E+03  0.69283914974E+03  0.00000000000E+00 0.  1.
</event>
<event>
 4    1  0.2293753E+005  0.2009831E+02  0.7546771E-02  0.1532538E+00
          2   -1    0    0  503    0  0.00000000000E+00  0.00000000000E+00  0.55617738452E+03  0.55617738452E+03  0.00000000000E+00 0.  1.
         21   -1    0    0  501  502 -0.00000000000E+00 -0.00000000000E+00 -0.72709252344E+00  0.72709252344E+00  0.00000000000E+00 0.  1.
          2    1    1    2  501    0  0.95632655766E+00  0.20075543916E+02  0.28701792271E+03  0.28772075000E+03  0.00000000000E+00 0.  1.
         21    1    1    2  503  502 -0.95632655766E+00 -0.20075543916E+02  0.26843236929E+03  0.26918372705E+03  0.00000000000E+00 0.  1.
</event>
<event>
 4    1  0.2293753E+005  0.2767333E+02  0.7546771E-02  0.1440959E+00
          2   -1    0    0  502    0  0.00000000000E+00  0.00000000000E+00  0.29835326203E+02  0.29835326203E+02  0.00000000000E+00 0.  1.
         21   -1    0    0  503  502 -0.00000000000E+00 -0.00000000000E+00 -0.35387407438E+02  0.35387407438E+02  0.00000000000E+00 0.  1.
          2    1    1    2  501    0  0.25275070475E+02 -0.11268729475E+02  0.14314834422E+02  0.31156507122E+02  0.00000000000E+00 0.  1.
         21    1    1    2  503  501 -0.25275070475E+02  0.11268729475E+02 -0.19866915657E+02  0.34066226519E+02  0.00000000000E+00 0.  1.
</event>
<event>
 4    1  0.2293753E+005  0.2673346E+02  0.7546771E-02  0.1450304E+00
          2   -1    0    0  503    0  0.00000000000E+00  0.00000000000E+00  0.27573078873E+04  0.27573078873E+04  0.00000000000E+00 0.  1.
         21   -1    0    0  501  502 -0.00000000000E+00 -0.00000000000E+00 -0.31711856357E+00  0.31711856357E+00  0.00000000000E+00 0.  1.
          2    1    1    2  501    0 -0.26678908760E+02  0.17069875039E+01  0.78921045780E+03  0.78966310834E+03  0.00000000000E+00 0.  1.
         21    1    1    2  503  502  0.26678908760E+02 -0.17069875039E+01  0.19677803110E+04  0.19679618975E+04  0.00000000000E+00 0.  1.
</event>
<event>
 4    1  0.2293753E+005  0.2381899E+02  0.7546771E-02  0.1482462E+00
          2   -1    0    0  502    0  0.00000000000E+00  0.00000000000E+00  0.24498511092E+02  0.24498511092E+02  0.00000000000E+00 0. -1.
         21   -1    0    0  503  502 -0.00000000000E+00 -0.00000000000E+00 -0.53596598611E+02  0.53596598611E+02  0.00000000000E+00 0.  1.
          2    1    1    2  501    0  0.17011850373E+02 -0.16671564586E+02  0.14877234888E+02  0.28083380081E+02  0.00000000000E+00 0. -1.
         21    1    1    2  503  501 -0.17011850373E+02  0.16671564586E+02 -0.43975322408E+02  0.50011729622E+02  0.00000000000E+00 0.  1.
</event>
<event>
 4    1  0.2293753E+005  0.3990049E+02  0.7546771E-02  0.1349070E+00
          2   -1    0    0  502    0  0.00000000000E+00  0.00000000000E+00  0.33632724794E+03  0.33632724794E+03  0.00000000000E+00 0.  1.
         21   -1    0    0  503  502 -0.00000000000E+00 -0.00000000000E+00 -0.79232801175E+01  0.79232801175E+01  0.00000000000E+00 0. -1.
          2    1    1    2  501    0  0.29537928860E+02 -0.26824609761E+02  0.27341228422E+03  0.27630838947E+03  0.00000000000E+00 0.  1.
         21    1    1    2  503  501 -0.29537928860E+02  0.26824609761E+02  0.54991683603E+02  0.67942138586E+02  0.00000000000E+00 0. -1.
</event>
<event>
 4    1  0.2293753E+005  0.2769943E+02  0.7546771E-02  0.1440706E+00
          2   -1    0    0  503    0  0.00000000000E+00  0.00000000000E+00  0.27386177501E+03  0.27386177501E+03  0.00000000000E+00 0.  1.
         21   -1    0    0  501  502 -0.00000000000E+00 -0.00000000000E+00 -0.31018495121E+01  0.31018495121E+01  0.00000000000E+00 0.  1.
          2    1    1    2  501    0 -0.10571128314E+02 -0.25602920485E+02  0.17846283698E+03  0.18059967462E+03  0.00000000000E+00 0.  1.
         21    1    1    2  503  502  0.10571128314E+02  0.25602920485E+02  0.92297088518E+02  0.96363949899E+02  0.00000000000E+00 0.  1.
</event>
<event>
 4    1  0.2293753E+005  0.2024059E+02  0.7546771E-02  0.1530389E+00
          2   -1    0    0  502    0  0.00000000000E+00  0.00000000000E+00  0.31221989398E+03  0.31221989398E+03  0.00000000000E+00 0.  1.
         21   -1    0    0  503  502 -0.00000000000E+00 -0.00000000000E+00 -0.51975938517E+01  0.51975938517E+01  0.00000000000E+00 0. -1.
          2    1    1    2  501    0 -0.18578453622E+02  0.80325917530E+01  0.29073184705E+03  0.29143556468E+03  0.00000000000E+00 0.  1.
         21    1    1    2  503  501  0.18578453622E+02 -0.80325917530E+01  0.16290453073E+02  0.25981923150E+02  0.00000000000E+00 0. -1.
</event>
<event>
 4    1  0.2293753E+005  0.2202411E+02  0.7546771E-02  0.1505130E+00
          2   -1    0    0  503    0  0.00000000000E+00  0.00000000000E+00  0.98431093683E+01  0.98431093683E+01  0.00000000000E+00 0. -1.
         21   -1    0    0  501  502 -0.00000000000E+00 -0.00000000000E+00 -0.65511700848E+02  0.65511700848E+02  0.00000000000E+00 0. -1.
          2    1    1    2  501    0 -0.20944870167E+01  0.21924288906E+02 -0.90794617182E+01  0.23822215367E+02  0.00000000000E+00 0. -1.
         21    1    1    2  503  502  0.20944870167E+01 -0.21924288906E+02 -0.46589129761E+02  0.51532594849E+02  0.00000000000E+00 0. -1.
</event>
<event>
 4    1  0.2293753E+005  0.2211388E+02  0.7546771E-02  0.1503935E+00
          2   -1    0    0  503    0  0.00000000000E+00  0.00000000000E+00  0.16107541106E+03  0.16107541106E+03  0.00000000000E+00 0. -1.
         21   -1    0    0  501  502 -0.00000000000E+00 -0.00000000000E+00 -0.16319210786E+03  0.16319210786E+03  0.00000000000E+00 0.  1.
          2    1    1    2  501    0  0.17330193480E+02  0.13736380673E+02  0.15956017905E+03  0.16108530193E+03  0.00000000000E+00 0. -1.
         21    1    1    2  503  502 -0.17330193480E+02 -0.13736380673E+02 -0.16167687584E+03  0.16318221699E+03  0.00000000000E+00 0.  1.
</event>
<event>
 4    1  0.2293753E+005  0.2626261E+02  0.7546771E-02  0.1455159E+00
          2   -1    0    0  502    0  0.00000000000E+00  0.00000000000E+00  0.48680158517E+03  0.48680158517E+03  0.00000000000E+00 0. -1.
         21   -1    0    0  503  502 -0.00000000000E+00 -0.00000000000E+00 -0.10503757661E+02  0.10503757661E+02  0.00000000000E+00 0.  1.
          2    1    1    2  501    0  0.12797758888E+02 -0.22933426601E+02  0.46942399757E+03  0.47015807361E+03  0.00000000000E+00 0. -1.
         21    1    1    2  503  501 -0.12797758888E+02  0.22933426601E+02  0.68738299445E+01  0.27147269224E+02  0.00000000000E+00 0.  1.
</event>
<event>
 4    1  0.2293753E+005  0.2984444E+02  0.7546771E-02  0.1420953E+00
          2   -1    0    0  503    0  0.00000000000E+00  0.00000000000E+00  0.11672577902E+04  0.11672577902E+04  0.00000000000E+00 0.  1.
         21   -1    0    0  501  502 -0.00000000000E+00 -0.00000000000E+00 -0.86166609659E+02  0.86166609659E+02  0.00000000000E+00 0.  1.
          2    1    1    2  501    0 -0.18423389408E+02  0.23479127271E+02  0.11644766430E+04  0.11648590227E+04  0.00000000000E+00 0.  1.
         21    1    1    2  503  502  0.18423389408E+02 -0.23479127271E+02 -0.83385462416E+02  0.88565377192E+02  0.00000000000E+00 0.  1.
</event>
<event>
 4    1  0.2293753E+005  0.2059523E+02  0.7546771E-02  0.1525123E+00
          2   -1    0    0  503    0  0.00000000000E+00  0.00000000000E+00  0.99590649160E+03  0.99590649160E+03  0.00000000000E+00 0.  1.
         21   -1    0    0  501  502 -0.00000000000E+00 -0.00000000000E+00 -0.18298198197E+01  0.18298198197E+01  0.00000000000E+00 0. -1.
          2    1    1    2  501    0  0.60400401030E+01 -0.19689629907E+02  0.93400839327E+03  0.93423543195E+03  0.00000000000E+00 0.  1.
         21    1    1    2  503  502 -0.60400401030E+01  0.19689629907E+02  0.60068278504E+02  0.63500879465E+02  0.00000000000E+00 0. -1.
</event>
<event>
 4    1  0.2293753E+005  0.2021916E+02  0.7546771E-02  0.1530711E+00
          2   -1    0    0  502    0  0.00000000000E+00  0.00000000000E+00  0.14201059800E+04  0.14201059800E+04  0.00000000000E+00 0.  1.
         21   -1    0    0  503  502 -0.00000000000E+00 -0.00000000000E+00 -0.32584951941E+01  0.32584951941E+01  0.00000000000E+00 0. -1.
          2    1    1    2  501    0  0.10816463688E+02  0.17082695594E+02  0.13879419193E+04  0.13880891851E+04  0.00000000000E+00 0.  1.
         21    1    1    2  503  501 -0.10816463688E+02 -0.17082695594E+02  0.28905565489E+02  0.35275290101E+02  0.00000000000E+00 0. -1.
</event>
<event>
 4    1  0.2293753E+005  0.2692374E+02  0.7546771E-02  0.1448376E+00
          2   -1    0    0  503    0  0.00000000000E+00  0.00000000000E+00  0.12032331061E+04  0.12032331061E+04  0.00000000000E+00 0.  1.
         21   -1    0    0  501  502 -0.00000000000E+00 -0.00000000000E+00 -0.60465189616E+00  0.60465189616E+00  0.00000000000E+00 0.  1.
          2    1    1    2  501    0 -0.37218107916E+01  0.26665253585E+02  0.63763849095E+03  0.63820665366E+03  0.00000000000E+00 0.  1.
         21    1    1    2  503  502  0.37218107916E+01 -0.26665253585E+02  0.56498996326E+03  0.56563110435E+03  0.00000000000E+00 0.  1.
</event>
<event>
 4    1  0.2293753E+005  0.2153584E+02  0.7546771E-02  0.1511750E+00
          2   -1    0    0  503    0  0.00000000000E+00  0.00000000000E+00  0.43663446961E+02  0.43663446961E+02  0.00000000000E+00 0. -1.
         21   -1    0    0  501  502 -0.00000000000E+00 -0.00000000000E+00 -0.39605893592E+03  0.39605893592E+03  0.00000000000E+00 0.  1.
          2    1    1    2  501    0 -0.21535740648E+02  0.65623585356E-01  0.40695159265E+02  0.46042246028E+02  0.00000000000E+00 0. -1.
         21    1    1    2  503  502  0.21535740648E+02 -0.65623585356E-01 -0.39309064823E+03  0.39368013686E+03  0.00000000000E+00 0.  1.
</event>
<event>
 4    1  0.2293753E+005  0.3376126E+02  0.7546771E-02  0.1389487E+00
          2   -1    0    0  503    0  0.00000000000E+00  0.00000000000E+00  0.17859173501E+04  0.17859173501E+04  0.00000000000E+00 0.  1.
         21   -1    0    0  501  502 -0.00000000000E+00 -0.00000000000E+00 -0.33505679649E+02  0.33505679649E+02  0.00000000000E+00 0.  1.
          2    1    1    2  501    0 -0.22710366740E+02 -0.24981236196E+02  0.17772114361E+04  0.17775320845E+04  0.00000000000E+00 0.  1.
         21    1    1    2  503  502  0.22710366740E+02  0.24981236196E+02 -0.24799765619E+02  0.41890945252E+02  0.00000000000E+00 0.  1.
</event>
<event>
 4    1  0.2293753E+005  0.2200769E+02  0.7546771E-02  0.1505349E+00
          2   -1    0    0  503    0  0.00000000000E+00  0.00000000000E+00  0.13185268245E+03  0.13185268245E+03  0.00000000000E+00 0.  1.
         21   -1    0    0  501  502 -0.00000000000E+00 -0.00000000000E+00 -0.54867639701E+02  0.54867639701E+02  0.00000000000E+00 0.  1.
          2    1    1    2  501    0 -0.11622090971E+02 -0.18688643869E+02  0.12867336613E+03  0.13054184601E+03  0.00000000000E+00 0.  1.
         21    1    1    2  503  502  0.11622090971E+02  0.18688643869E+02 -0.51688323379E+02  0.56178476145E+02  0.00000000000E+00 0.  1.
</event>
<event>
 4    1  0.2293753E+005  0.2157857E+02  0.7546771E-02  0.1511162E+00
          2   -1    0    0  503    0  0.00000000000E+00  0.00000000000E+00  0.41063837341E+03  0.41063837341E+03  0.00000000000E+00 0. -1.
         21   -1    0    0  501  502 -0.00000000000E+00 -0.00000000000E+00 -0.39607311838E+01  0.39607311838E+01  0.00000000000E+00 0. -1.
          2    1    1    2  501    0 -0.85607785599E+01  0.19807768474E+02  0.37846796124E+03  0.37908261937E+03  0.00000000000E+00 0. -1.
         21    1    1    2  503  502  0.85607785599E+01 -0.19807768474E+02  0.28209680987E+02  0.35516485226E+02  0.00000000000E+00 0. -1.
</event>
<event>
 4    1  0.2293753E+005  0.2296650E+02  0.7546771E-02  0.1492919E+00
          2   -1    0    0  503    0  0.00000000000E+00  0.00000000000E+00  0.88796179694E+03  0.88796179694E+03  0.00000000000E+00 0. -1.
         21   -1    0    0  501  502 -0.00000000000E+00 -0.00000000000E+00 -0.15876633800E+01  0.15876633800E+01  0.00000000000E+00 0. -1.
          2    1    1    2  501    0 -0.21892287927E+00  0.22965452280E+02  0.79505356603E+03  0.79538521031E+03  0.00000000000E+00 0. -1.
         21    1    1    2  503  502  0.21892287927E+00 -0.22965452280E+02  0.91320567532E+02  0.94164250010E+02  0.00000000000E+00 0. -1.
</event>
<event>
 4    1  0.2293753E+005  0.3723380E+02  0.7546771E-02  0.1365505E+00
          2   -1    0    0  502    0  0.00000000000E+00  0.00000000000E+00  0.59208751181E+01  0.59208751181E+01  0.00000000000E+00 0. -1.
         21   -1    0    0  503  502 -0.00000000000E+00 -0.00000000000E+00 -0.71854147070E+03  0.71854147070E+03  0.00000000000E+00 0.  1.
          2    1    1    2  501    0  0.30543303553E+02  0.21294657703E+02 -0.58897646195E+02  0.69679900731E+02  0.00000000000E+00 0. -1.
         21    1    1    2  503  501 -0.30543303553E+02 -0.21294657703E+02 -0.65372294939E+03  0.65478244509E+03  0.00000000000E+00 0.  1.
</event>
<event>
 4    1  0.2293753E+005  0.2237737E+02  0.7546771E-02  0.1500468E+00
          2   -1    0    0  502    0  0.00000000000E+00  0.00000000000E+00  0.68096994113E+02  0.68096994113E+02  0.00000000000E+00 0.  1.
         21   -1    0    0  503  502 -0.00000000000E+00 -0.00000000000E+00 -0.10901033868E+03  0.10901033868E+03  0.00000000000E+00 0. -1.
          2    1    1    2  501    0 -0.72437039307E+01  0.21172513394E+02  0.65058101107E+02  0.68799005005E+02  0.00000000000E+00 0.  1.
         21    1    1    2  503  501  0.72437039307E+01 -0.21172513394E+02 -0.10597144567E+03  0.10830832778E+03  0.00000000000E+00 0. -1.
</event>
<event>
 4    1  0.2293753E+005  0.2644934E+02  0.7546771E-02  0.1453219E+00
          2   -1    0    0  502    0  0.00000000000E+00  0.00000000000E+00  0.17702605421E+04  0.17702605421E+04  0.00000000000E+00 0. -1.
         21   -1    0    0  503  502 -0.00000000000E+00 -0.00000000000E+00 -0.18949245435E+01  0.18949245435E+01  0.00000000000E+00 0. -1.
          2    1    1    2  501    0 -0.26188749290E+02 -0.37036150385E+01  0.16724706938E+04  0.16726798226E+04  0.00000000000E+00 0. -1.
         21    1    1    2  503  501  0.26188749290E+02  0.37036150385E+01  0.95894923825E+02  0.99475644100E+02  0.00000000000E+00 0. -1.
</event>
<event>
 4    1  0.2293753E+005  0.2123310E+02  0.7546771E-02  0.1515963E+00
          2   -1    0    0  503    0  0.00000000000E+00  0.00000000000E+00  0.10702504632E+03  0.10702504632E+03  0.00000000000E+00 0. -1.
         21   -1    0    0  501  502 -0.00000000000E+00 -0.00000000000E+00 -0.11174024149E+02  0.11174024149E+02  0.00000000000E+00 0. -1.
          2    1    1    2  501    0  0.10182697003E+02 -0.18632149841E+02  0.94573298107E+02  0.96927565949E+02  0.00000000000E+00 0. -1.
         21    1    1    2  503  502 -0.10182697003E+02  0.18632149841E+02  0.12777240685E+01  0.21271504525E+02  0.00000000000E+00 0. -1.
</event>
<event>
 4    1  0.2293753E+005  0.2556782E+02  0.7546771E-02  0.1462550E+00
          2   -1    0    0  503    0  0.00000000000E+00  0.00000000000E+00  0.14058259118E+04  0.14058259118E+04  0.00000000000E+00 0.  1.
         21   -1    0    0  501  502 -0.00000000000E+00 -0.00000000000E+00 -0.53664871615E+02  0.53664871615E+02  0.00000000000E+00 0.  1.
          2    1    1    2  501    0  0.15110137012E+02  0.20625155979E+02  0.14026574323E+04  0.14028904397E+04  0.00000000000E+00 0.  1.
         21    1    1    2  503  502 -0.15110137012E+02 -0.20625155979E+02 -0.50496392101E+02  0.56600343770E+02  0.00000000000E+00 0.  1.
</event>
<event>
 4    1  0.2293753E+005  0.2705657E+02  0.7546771E-02  0.1447041E+00
          2   -1    0    0  502    0  0.00000000000E+00  0.00000000000E+00  0.23509055044E+02  0.23509055044E+02  0.00000000000E+00 0. -1.
         21   -1    0    0  503  502 -0.00000000000E+00 -0.00000000000E+00 -0.38435720220E+02  0.38435720220E+02  0.00000000000E+00 0. -1.
          2    1    1    2  501    0 -0.26548551712E+02 -0.52184634070E+01  0.60312359602E+01  0.27720637899E+02  0.00000000000E+00 0. -1.
         21    1    1    2  503  501  0.26548551712E+02  0.52184634070E+01 -0.20957901136E+02  0.34224137365E+02  0.00000000000E+00 0. -1.
</event>
<event>
 4    1  0.2293753E+005  0.2546521E+02  0.7546771E-02  0.1463666E+00
          2   -1    0    0  503    0  0.00000000000E+00  0.00000000000E+00  0.14594110427E+04  0.14594110427E+04  0.00000000000E+00 0. -1.
         21   -1    0    0  501  502 -0.00000000000E+00 -0.00000000000E+00 -0.13417110987E+01  0.13417110987E+01  0.00000000000E+00 0. -1.
          2    1    1    2  501    0 -0.21916718814E+02 -0.12966670781E+02  0.13263488819E+04  0.13265933189E+04  0.00000000000E+00 0. -1.
         21    1    1    2  503  502  0.21916718814E+02  0.12966670781E+02  0.13172044969E+03  0.13415943494E+03  0.00000000000E+00 0. -1.
</event>
<event>
 4    1  0.2293753E+005  0.2125120E+02  0.7546771E-02  0.1515708E+00
          2   -1    0    0  502    0  0.00000000000E+00  0.00000000000E+00  0.76375366754E+03  0.76375366754E+03  0.00000000000E+00 0. -1.
         21   -1    0    0  503  502 -0.00000000000E+00 -0.00000000000E+00 -0.14098564307E+01  0.14098564307E+01  0.00000000000E+00 0.  1.
          2    1    1    2  501    0  0.18102405168E+02  0.11131766580E+02  0.67268571389E+03  0.67302130945E+03  0.00000000000E+00 0. -1.
         21    1    1    2  503  501 -0.18102405168E+02 -0.11131766580E+02  0.89658097219E+02  0.92142214522E+02  0.00000000000E+00 0.  1.
</event>
<event>
 4    1  0.2293753E+005  0.2241655E+02  0.7546771E-02  0.1499957E+00
          2   -1    0    0  502    0  0.00000000000E+00  0.00000000000E+00  0.14699325059E+04  0.14699325059E+04  0.00000000000E+00 0.  1.
         21   -1    0    0  503  502 -0.00000000000E+00 -0.00000000000E+00 -0.30487706531E+01  0.30487706531E+01  0.00000000000E+00 0.  1.
          2    1    1    2  501    0  0.41967109255E+01 -0.22020203195E+02  0.14274144722E+04  0.14275904795E+04  0.00000000000E+00 0.  1.
         21    1    1    2  503  501 -0.41967109255E+01  0.22020203195E+02  0.39469263071E+02  0.45390797071E+02  0.00000000000E+00 0.  1.
</event>
<event>
 4    1  0.2293753E+005  0.2204685E+02  0.7546771E-02  0.1504827E+00
          2   -1    0    0  502    0  0.00000000000E+00  0.00000000000E+00  0.14622259922E+01  0.14622259922E+01  0.00000000000E+00 0.  1.
         21   -1    0    0  503  502 -0.00000000000E+00 -0.00000000000E+00 -0.80313351478E+03  0.80313351478E+03  0.00000000000E+00 0.  1.
          2    1    1    2  501    0  0.13219213159E+02 -0.17644145045E+02 -0.92846607918E+02  0.95428277008E+02  0.00000000000E+00 0.  1.
         21    1    1    2  503  501 -0.13219213159E+02  0.17644145045E+02 -0.70882468087E+03  0.70916746376E+03  0.00000000000E+00 0.  1.
</event>
<event>
 4    1  0.2293753E+005  0.2305039E+02  0.7546771E-02  0.1491866E+00
          2   -1    0    0  503    0  0.00000000000E+00  0.00000000000E+00  0.86454853840E+03  0.86454853840E+03  0.00000000000E+00 0.  1.
         21   -1    0    0  501  502 -0.00000000000E+00 -0.00000000000E+00 -0.95507343909E+00  0.95507343909E+00  0.00000000000E+00 0. -1.
          2    1    1    2  501    0  0.12522127074E+01  0.23016349643E+02  0.69019232282E+03  0.69057712304E+03  0.00000000000E+00 0.  1.
         21    1    1    2  503  502 -0.12522127074E+01 -0.23016349643E+02  0.17340114214E+03  0.17492648880E+03  0.00000000000E+00 0. -1.
</event>
<event>
 4    1  0.2293753E+005  0.2295871E+02  0.7546771E-02  0.1493017E+00
          2   -1    0    0  503    0  0.00000000000E+00  0.00000000000E+00  0.13446921554E+03  0.13446921554E+03  0.00000000000E+00 0. -1.
         21   -1    0    0  501  502 -0.00000000000E+00 -0.00000000000E+00 -0.50398242205E+01  0.50398242205E+01  0.00000000000E+00 0.  1.
          2    1    1    2  501    0  0.22826178152E+02 -0.24633274176E+01  0.97597133340E+02  0.10026117308E+03  0.00000000000E+00 0. -1.
         21    1    1    2  503  502 -0.22826178152E+02  0.24633274176E+01  0.31832257981E+02  0.39247866683E+02  0.00000000000E+00 0.  1.
</event>
<event>
 4    1  0.2293753E+005  0.2031703E+02  0.7546771E-02  0.1529243E+00
          2   -1    0    0  502    0  0.00000000000E+00  0.00000000000E+00  0.30663100223E+03  0.30663100223E+03  0.00000000000E+00 0.  1.
         21   -1    0    0  503  502 -0.00000000000E+00 -0.00000000000E+00 -0.16623752881E+03  0.16623752881E+03  0.00000000000E+00 0. -1.
          2    1    1    2  501    0 -0.12946170937E+02 -0.15658174002E+02  0.30567173925E+03  0.30634619947E+03  0.00000000000E+00 0.  1.
         21    1    1    2  503  501  0.12946170937E+02  0.15658174002E+02 -0.16527826583E+03  0.16652233157E+03  0.00000000000E+00 0. -1.
</event>
<event>
 4    1  0.2293753E+005  0.2334078E+02  0.7546771E-02  0.1488263E+00
          2   -1    0    0  502    0  0.00000000000E+00  0.00000000000E+00  0.58794584752E+02  0.58794584752E+02  0.00000000000E+00 0. -1.
         21   -1    0    0  503  502 -0.00000000000E+00 -0.00000000000E+00 -0.41648940284E+02  0.41648940284E+02  0.00000000000E+00 0.  1.
          2    1    1    2  501    0  0.23323022168E+02 -0.91021935554E+00  0.52856937274E+02  0.57781032185E+02  0.00000000000E+00 0. -1.
         21    1    1    2  503  501 -0.23323022168E+02  0.91021935554E+00 -0.35711292807E+02  0.42662492851E+02  0.00000000000E+00 0.  1.
</event>
<event>
 4    1  0.2293753E+005  0.3433426E+02  0.7546771E-02  0.1385305E+00
          2   -1    0    0  503    0  0.00000000000E+00  0.00000000000E+00  0.69378727757E+03  0.69378727757E+03  0.00000000000E+00 0. -1.
         21   -1    0    0  501  502 -0.00000000000E+00 -0.00000000000E+00 -0.21449106730E+01  0.21449106730E+01  0.00000000000E+00 0.  1.
          2    1    1    2  501    0  0.77369264679E+00  0.34325546130E+02  0.50445218558E+03  0.50561927303E+03  0.00000000000E+00 0. -1.
         21    1    1    2  503  502 -0.77369264679E+00 -0.34325546130E+02  0.18719018131E+03  0.19031291522E+03  0.00000000000E+00 0.  1.
</event>
<event>
 4    1  0.2293753E+005  0.2603600E+02  0.7546771E-02  0.1457540E+00
          2   -1    0    0  502    0  0.00000000000E+00  0.00000000000E+00  0.57448249183E+02  0.57448249183E+02  0.00000000000E+00 0.  1.
         21   -1    0    0  503  502 -0.00000000000E+00 -0.00000000000E+00 -0.59394429602E+03  0.59394429602E+03  0.00000000000E+00 0.  1.
          2    1    1    2  501    0  0.13597945073E+02 -0.22202911933E+02  0.54196761391E+02  0.60126220185E+02  0.00000000000E+00 0.  1.
         21    1    1    2  503  501 -0.13597945073E+02  0.22202911933E+02 -0.59069280823E+03  0.59126632502E+03  0.00000000000E+00 0.  1.
</event>
<event>
 4    1  0.2293753E+005  0.3265309E+02  0.7546771E-02  0.1397859E+00
          2   -1    0    0  502    0  0.00000000000E+00  0.00000000000E+00  0.99464848705E+03  0.99464848705E+03  0.00000000000E+00 0.  1.
         21   -1    0    0  503  502 -0.00000000000E+00 -0.00000000000E+00 -0.70829594967E+02  0.70829594967E+02  0.00000000000E+00 0. -1.
          2    1    1    2  501    0 -0.22424150244E+02 -0.23735662939E+02  0.99060178452E+03  0.99113980835E+03  0.00000000000E+00 0.  1.
         21    1    1    2  503  501  0.22424150244E+02  0.23735662939E+02 -0.66782892436E+02  0.74338273665E+02  0.00000000000E+00 0. -1.
</event>
<event>
 4    1  0.2293753E+005  0.4742394E+02  0.7546771E-02  0.1309745E+00
          2   -1    0    0  502    0  0.00000000000E+00  0.00000000000E+00  0.18565349429E+04  0.18565349429E+04  0.00000000000E+00 0.  1.
         21   -1    0    0  503  502 -0.00000000000E+00 -0.00000000000E+00 -0.18143763081E+01  0.18143763081E+01  0.00000000000E+00 0. -1.
          2    1    1    2  501    0  0.28821600600E+02  0.37660929958E+02  0.14630078874E+04  0.14637763179E+04  0.00000000000E+00 0.  1.
         21    1    1    2  503  501 -0.28821600600E+02 -0.37660929958E+02  0.39171267919E+03  0.39457300129E+03  0.00000000000E+00 0. -1.
</event>
<event>
 4    1  0.2293753E+005  0.2402769E+02  0.7546771E-02  0.1479981E+00
          2   -1    0    0  503    0  0.00000000000E+00  0.00000000000E+00  0.43126705033E+02  0.43126705033E+02  0.00000000000E+00 0. -1.
         21   -1    0    0  501  502 -0.00000000000E+00 -0.00000000000E+00 -0.37400944414E+02  0.37400944414E+02  0.00000000000E+00 0.  1.
          2    1    1    2  501    0  0.11367343158E+02 -0.21168686375E+02  0.35126051326E+02  0.42557834238E+02  0.00000000000E+00 0. -1.
         21    1    1    2  503  502 -0.11367343158E+02  0.21168686375E+02 -0.29400290707E+02  0.37969815208E+02  0.00000000000E+00 0.  1.
</event>
<event>
 4    1  0.2293753E+005  0.6279987E+02  0.7546771E-02  0.1250605E+00
          2   -1    0    0  502    0  0.00000000000E+00  0.00000000000E+00  0.52199598449E+03  0.52199598449E+03  0.00000000000E+00 0.  1.
         21   -1    0    0  503  502 -0.00000000000E+00 -0.00000000000E+00 -0.14649486422E+02  0.14649486422E+02  0.00000000000E+00 0. -1.
          2    1    1    2  501    0  0.58179317287E+02 -0.23642984034E+02  0.44039646154E+03  0.44485151117E+03  0.00000000000E+00 0.  1.
         21    1    1    2  503  501 -0.58179317287E+02  0.23642984034E+02  0.66950036528E+02  0.91793959742E+02  0.00000000000E+00 0. -1.
</event>
<event>
 4    1  0.2293753E+005  0.2112084E+02  0.7546771E-02  0.1517546E+00
          2   -1    0    0  502    0  0.00000000000E+00  0.00000000000E+00  0.22225458538E+03  0.22225458538E+03  0.00000000000E+00 0.  1.
         21   -1    0    0  503  502 -0.00000000000E+00 -0.00000000000E+00 -0.10679189481E+03  0.10679189481E+03  0.00000000000E+00 0.  1.
          2    1    1    2  501    0 -0.14873442274E+02 -0.14995688704E+02  0.22070117636E+03  0.22170949283E+03  0.00000000000E+00 0.  1.
         21    1    1    2  503  501  0.14873442274E+02  0.14995688704E+02 -0.10523848579E+03  0.10733698736E+03  0.00000000000E+00 0.  1.
</event>
<event>
 4    1  0.2293753E+005  0.2566018E+02  0.7546771E-02  0.1461552E+00
          2   -1    0    0  502    0  0.00000000000E+00  0.00000000000E+00  0.17582906127E+04  0.17582906127E+04  0.00000000000E+00 0.  1.
         21   -1    0    0  503  502 -0.00000000000E+00 -0.00000000000E+00 -0.30512348983E+01  0.30512348983E+01  0.00000000000E+00 0. -1.
          2    1    1    2  501    0 -0.16534665081E+02 -0.19622679498E+02  0.17024794880E+04  0.17026728551E+04  0.00000000000E+00 0.  1.
         21    1    1    2  503  501  0.16534665081E+02  0.19622679498E+02  0.52759889828E+02  0.58668992446E+02  0.00000000000E+00 0. -1.
</event>
<event>
 4    1  0.2293753E+005  0.3221751E+02  0.7546771E-02  0.1401257E+00
          2   -1    0    0  503    0  0.00000000000E+00  0.00000000000E+00  0.19594432791E+04  0.19594432791E+04  0.00000000000E+00 0. -1.
         21   -1    0    0  501  502 -0.00000000000E+00 -0.00000000000E+00 -0.12246033053E+02  0.12246033053E+02  0.00000000000E+00 0. -1.
          2    1    1    2  501    0 -0.29097841930E+02  0.13830518551E+02  0.19378852618E+04  0.19381530527E+04  0.00000000000E+00 0. -1.
         21    1    1    2  503  502  0.29097841930E+02 -0.13830518551E+02  0.93119842135E+01  0.33536259457E+02  0.00000000000E+00 0. -1.
</event>
<event>
 4    1  0.2293753E+005  0.2582348E+02  0.7546771E-02  0.1459798E+00
          2   -1    0    0  503    0  0.00000000000E+00  0.00000000000E+00  0.30261672754E+03  0.30261672754E+03  0.00000000000E+00 0. -1.
         21   -1    0    0  501  502 -0.00000000000E+00 -0.00000000000E+00 -0.22137663507E+01  0.22137663507E+01  0.00000000000E+00 0. -1.
          2    1    1    2  501    0 -0.11358678219E+02 -0.23191213950E+02  0.13988245904E+03  0.14224610478E+03  0.00000000000E+00 0. -1.
         21    1    1    2  503  502  0.11358678219E+02  0.23191213950E+02  0.16052050215E+03  0.16258438912E+03  0.00000000000E+00 0. -1.
</event>
<event>
 4    1  0.2293753E+005  0.4432560E+02  0.7546771E-02  0.1324846E+00
          2   -1    0    0  503    0  0.00000000000E+00  0.00000000000E+00  0.17273519862E+03  0.17273519862E+03  0.00000000000E+00 0.  1.
         21   -1    0    0  501  502 -0.00000000000E+00 -0.00000000000E+00 -0.11479721090E+02  0.11479721090E+02  0.00000000000E+00 0. -1.
          2    1    1    2  501    0  0.22200458204E+02  0.38365334355E+02  0.89450144583E+02  0.99830293952E+02  0.00000000000E+00 0.  1.
         21    1    1    2  503  502 -0.22200458204E+02 -0.38365334355E+02  0.71805332944E+02  0.84384625755E+02  0.00000000000E+00 0. -1.
</event>
<event>
 4    1  0.2293753E+005  0.2478279E+02  0.7546771E-02  0.1471248E+00
          2   -1    0    0  503    0  0.00000000000E+00  0.00000000000E+00  0.56258828470E+01  0.56258828470E+01  0.00000000000E+00 0. -1.
         21   -1    0    0  501  502 -0.00000000000E+00 -0.00000000000E+00 -0.12984337333E+03  0.12984337333E+03  0.00000000000E+00 0. -1.
          2    1    1    2  501    0  0.18041681579E+02 -0.16990717544E+02 -0.35082265024E+02  0.42952905327E+02  0.00000000000E+00 0. -1.
         21    1    1    2  503  502 -0.18041681579E+02  0.16990717544E+02 -0.89135225457E+02  0.92516350847E+02  0.00000000000E+00 0. -1.
</event>
<event>
 4    1  0.2293753E+005  0.3287484E+02  0.7546771E-02  0.1396153E+00
          2   -1    0    0  502    0  0.00000000000E+00  0.00000000000E+00  0.12856110904E+04  0.12856110904E+04  0.00000000000E+00 0. -1.
         21   -1    0    0  503  502 -0.00000000000E+00 -0.00000000000E+00 -0.32463096183E+01  0.32463096183E+01  0.00000000000E+00 0. -1.
          2    1    1    2  501    0 -0.24218949760E+02 -0.22230554762E+02  0.11959314353E+04  0.11963831965E+04  0.00000000000E+00 0. -1.
         21    1    1    2  503  501  0.24218949760E+02  0.22230554762E+02  0.86433345481E+02  0.92474203449E+02  0.00000000000E+00 0. -1.
</event>
<event>
 4    1  0.2293753E+005  0.2524011E+02  0.7546771E-02  0.1466135E+00
          2   -1    0    0  502    0  0.00000000000E+00  0.00000000000E+00  0.16806343993E+04  0.16806343993E+04  0.00000000000E+00 0.  1.
         21   -1    0    0  503  502 -0.00000000000E+00 -0.00000000000E+00 -0.24192672087E+01  0.24192672087E+01  0.00000000000E+00 0.  1.
          2    1    1    2  501    0  0.20289036704E+01 -0.25158433163E+02  0.16119003632E+04  0.16120979635E+04  0.00000000000E+00 0.  1.
         21    1    1    2  503  501 -0.20289036704E+01  0.25158433163E+02  0.66314768955E+02  0.70955703018E+02  0.00000000000E+00 0.  1.
</event>
<event>
 4    1  0.2293753E+005  0.3623839E+02  0.7546771E-02  0.1372060E+00
          2   -1    0    0  502    0  0.00000000000E+00  0.00000000000E+00  0.14598986688E+02  0.14598986688E+02  0.00000000000E+00 0.  1.
         21   -1    0    0  503  502 -0.00000000000E+00 -0.00000000000E+00 -0.11926634074E+03  0.11926634074E+03  0.00000000000E+00 0.  1.
          2    1    1    2  501    0  0.35856581030E+02  0.52465766894E+01 -0.19150904347E+02  0.40987536001E+02  0.00000000000E+00 0.  1.
         21    1    1    2  503  501 -0.35856581030E+02 -0.52465766894E+01 -0.85516449703E+02  0.92877791424E+02  0.00000000000E+00 0.  1.
</event>
<event>
 4    1  0.2293753E+005  0.2279786E+02  0.7546771E-02  0.1495052E+00
          2   -1    0    0  503    0  0.00000000000E+00  0.00000000000E+00  0.66091812605E+02  0.66091812605E+02  0.00000000000E+00 0. -1.
         21   -1    0    0  501  502 -0.00000000000E+00 -0.00000000000E+00 -0.41069213898E+02  0.41069213898E+02  0.00000000000E+00 0.  1.
          2    1    1    2  501    0 -0.58056572537E+01 -0.22046239454E+02  0.60689677938E+02  0.64830389004E+02  0.00000000000E+00 0. -1.
         21    1    1    2  503  502  0.58056572537E+01  0.22046239454E+02 -0.35667079231E+02  0.42330637499E+02  0.00000000000E+00 0.  1.
</event>
<event>
 4    1  0.2293753E+005  0.2216266E+02  0.7546771E-02  0.1503289E+00
          2   -1    0    0  503    0  0.00000000000E+00  0.00000000000E+00  0.25689733367E+03  0.25689733367E+03  0.00000000000E+00 0.  1.
         21   -1    0    0  501  502 -0.00000000000E+00 -0.00000000000E+00 -0.13159775638E+03  0.13159775638E+03  0.00000000000E+00 0. -1.
          2    1    1    2  501    0 -0.11045462273E+02 -0.19214090984E+02  0.25548105933E+03  0.25644054907E+03  0.00000000000E+00 0.  1.
         21    1    1    2  503  502  0.11045462273E+02  0.19214090984E+02 -0.13018148203E+03  0.13205454098E+03  0.00000000000E+00 0. -1.
</event>
<event>
 4    1  0.2293753E+005  0.2432642E+02  0.7546771E-02  0.1476482E+00
          2   -1    0    0  503    0  0.00000000000E+00  0.00000000000E+00  0.16194486442E+03  0.16194486442E+03  0.00000000000E+00 0. -1.
         21   -1    0    0  501  502 -0.00000000000E+00 -0.00000000000E+00 -0.20230693663E+02  0.20230693663E+02  0.00000000000E+00 0.  1.
          2    1    1    2  501    0 -0.20717647948E+02  0.12749656881E+02  0.15330912526E+03  0.15522713222E+03  0.00000000000E+00 0. -1.
         21    1    1    2  503  502  0.20717647948E+02 -0.12749656881E+02 -0.11594954501E+02  0.26948425872E+02  0.00000000000E+00 0.  1.
</event>
<event>
 4    1  0.2293753E+005  0.2322062E+02  0.7546771E-02  0.1489746E+00
          2   -1    0    0  502    0  0.00000000000E+00  0.00000000000E+00  0.13682449650E+04  0.13682449650E+04  0.00000000000E+00 0.  1.
         21   -1    0    0  503  502 -0.00000000000E+00 -0.00000000000E+00 -0.25716553602E+02  0.25716553602E+02  0.00000000000E+00 0.  1.
          2    1    1    2  501    0 -0.18435655241E+02  0.14118208909E+02  0.13628840957E+04  0.13630818961E+04  0.00000000000E+00 0.  1.
         21    1    1    2  503  501  0.18435655241E+02 -0.14118208909E+02 -0.20355684248E+02  0.30879622540E+02  0.00000000000E+00 0.  1.
</event>
<event>
 4    1  0.2293753E+005  0.2448701E+02  0.7546771E-02  0.1474625E+00
          2   -1    0    0  503    0  0.00000000000E+00  0.00000000000E+00  0.89947856712E+03  0.89947856712E+03  0.00000000000E+00 0. -1.
         21   -1    0    0  501  502 -0.00000000000E+00 -0.00000000000E+00 -0.62592634678E+02  0.62592634678E+02  0.00000000000E+00 0. -1.
          2    1    1    2  501    0  0.23516620391E+02  0.68251337154E+01  0.89691014839E+03  0.89724435254E+03  0.00000000000E+00 0. -1.
         21    1    1    2  503  502 -0.23516620391E+02 -0.68251337154E+01 -0.60024215946E+02  0.64826849258E+02  0.00000000000E+00 0. -1.
</event>
<event>
 4    1  0.2293753E+005  0.2362437E+02  0.7546771E-02  0.1484803E+00
          2   -1    0    0  503    0  0.00000000000E+00  0.00000000000E+00  0.42522657620E+03  0.42522657620E+03  0.00000000000E+00 0. -1.
         21   -1    0    0  501  502 -0.00000000000E+00 -0.00000000000E+00 -0.41687023860E+01  0.41687023860E+01  0.00000000000E+00 0. -1.
          2    1    1    2  501    0 -0.23514377063E+02  0.22769928011E+01  0.32815126169E+02  0.40434430012E+02  0.00000000000E+00 0. -1.
         21    1    1    2  503  502  0.23514377063E+02 -0.22769928011E+01  0.38824274765E+03  0.38896084858E+03  0.00000000000E+00 0. -1.
</event>
<event>
 4    1  0.2293753E+005  0.2925438E+02  0.7546771E-02  0.1426188E+00
          2   -1    0    0  503    0  0.00000000000E+00  0.00000000000E+00  0.91138318636E+02  0.91138318636E+02  0.00000000000E+00 0. -1.
         21   -1    0    0  501  502 -0.00000000000E+00 -0.00000000000E+00 -0.14697981456E+02  0.14697981456E+02  0.00000000000E+00 0.  1.
          2    1    1    2  501    0  0.90297245684E+01  0.27825936709E+02  0.70020166918E+02  0.75885719703E+02  0.00000000000E+00 0. -1.
         21    1    1    2  503  502 -0.90297245684E+01 -0.27825936709E+02  0.64201702614E+01  0.29950580390E+02  0.00000000000E+00 0.  1.
</event>
<event>
 4    1  0.2293753E+005  0.2112329E+02  0.7546771E-02  0.1517512E+00
          2   -1    0    0  503    0  0.00000000000E+00  0.00000000000E+00  0.24194250234E+04  0.24194250234E+04  0.00000000000E+00 0.  1.
         21   -1    0    0  501  502 -0.00000000000E+00 -0.00000000000E+00 -0.20126744374E+00  0.20126744374E+00  0.00000000000E+00 0.  1.
          2    1    1    2  501    0 -0.94579345754E+01  0.18887579142E+02  0.15596243935E+04  0.15597674320E+04  0.00000000000E+00 0.  1.
         21    1    1    2  503  502  0.94579345754E+01 -0.18887579142E+02  0.85959936251E+03  0.85985885888E+03  0.00000000000E+00 0.  1.
</event>
<event>
 4    1  0.2293753E+005  0.2213353E+02  0.7546771E-02  0.1503675E+00
          2   -1    0    0  502    0  0.00000000000E+00  0.00000000000E+00  0.13225110234E+04  0.13225110234E+04  0.00000000000E+00 0. -1.
         21   -1    0    0  503  502 -0.00000000000E+00 -0.00000000000E+00 -0.20430384138E+01  0.20430384138E+01  0.00000000000E+00 0.  1.
          2    1    1    2  501    0  0.39326877666E+01  0.21781352797E+02  0.12594715110E+04  0.12596659797E+04  0.00000000000E+00 0. -1.
         21    1    1    2  503  501 -0.39326877666E+01 -0.21781352797E+02  0.60996473924E+02  0.64888082063E+02  0.00000000000E+00 0.  1.
</event>
<event>
 4    1  0.2293753E+005  0.2669110E+02  0.7546771E-02  0.1450736E+00
          2   -1    0    0  502    0  0.00000000000E+00  0.00000000000E+00  0.59820651153E+03  0.59820651153E+03  0.00000000000E+00 0. -1.
         21   -1    0    0  503  502 -0.00000000000E+00 -0.00000000000E+00 -0.11929760224E+01  0.11929760224E+01  0.00000000000E+00 0.  1.
          2    1    1    2  501    0  0.23757898891E+02 -0.12164575857E+02  0.28605768584E+03  0.28730021631E+03  0.00000000000E+00 0. -1.
         21    1    1    2  503  501 -0.23757898891E+02  0.12164575857E+02  0.31095584966E+03  0.31209927124E+03  0.00000000000E+00 0.  1.
</event>
<event>
 4    1  0.2293753E+005  0.2208778E+02  0.7546771E-02  0.1504282E+00
          2   -1    0    0  502    0  0.00000000000E+00  0.00000000000E+00  0.25174760219E+03  0.25174760219E+03  0.00000000000E+00 0.  1.
         21   -1    0    0  503  502 -0.00000000000E+00 -0.00000000000E+00 -0.81845999782E+01  0.81845999782E+01  0.00000000000E+00 0. -1.
          2    1    1    2  501    0 -0.13471656859E+02  0.17503837496E+02  0.23532324357E+03  0.23635756562E+03  0.00000000000E+00 0.  1.
         21    1    1    2  503  501  0.13471656859E+02 -0.17503837496E+02  0.82397586452E+01  0.23574636543E+02  0.00000000000E+00 0. -1.
</event>
<event>
 4    1  0.2293753E+005  0.2024862E+02  0.7546771E-02  0.1530269E+00
          2   -1    0    0  503    0  0.00000000000E+00  0.00000000000E+00  0.11014593763E+04  0.11014593763E+04  0.00000000000E+00 0.  1.
         21   -1    0    0  501  502 -0.00000000000E+00 -0.00000000000E+00 -0.67662671757E+00  0.67662671757E+00  0.00000000000E+00 0.  1.
          2    1    1    2  501    0  0.18747746761E+02 -0.76503900524E+01  0.92000158908E+03  0.92022439132E+03  0.00000000000E+00 0.  1.
         21    1    1    2  503  502 -0.18747746761E+02  0.76503900524E+01  0.18078116048E+03  0.18191161167E+03  0.00000000000E+00 0.  1.
</event>
<event>
 4    1  0.2293753E+005  0.2248947E+02  0.7546771E-02  0.1499010E+00
          2   -1    0    0  503    0  0.00000000000E+00  0.00000000000E+00  0.23969196733E+02  0.23969196733E+02  0.00000000000E+00 0. -1.
         21   -1    0    0  501  502 -0.00000000000E+00 -0.00000000000E+00 -0.18879750382E+03  0.18879750382E+03  0.00000000000E+00 0.  1.
          2    1    1    2  501    0 -0.22249989148E+02  0.32732836254E+01  0.17848089131E+02  0.28711159649E+02  0.00000000000E+00 0. -1.
         21    1    1    2  503  502  0.22249989148E+02 -0.32732836254E+01 -0.18267639622E+03  0.18405554090E+03  0.00000000000E+00 0.  1.
</event>
<event>
 4    1  0.2293753E+005  0.2568391E+02  0.7546771E-02  0.1461296E+00
          2   -1    0    0  502    0  0.00000000000E+00  0.00000000000E+00  0.47543664653E+02  0.47543664653E+02  0.00000000000E+00 0.  1.
         21   -1    0    0  503  502 -0.00000000000E+00 -0.00000000000E+00 -0.45116644808E+02  0.45116644808E+02  0.00000000000E+00 0. -1.
          2    1    1    2  501    0 -0.16097415470E+02  0.20013402370E+02  0.39766944296E+02  0.47339971672E+02  0.00000000000E+00 0.  1.
         21    1    1    2  503  501  0.16097415470E+02 -0.20013402370E+02 -0.37339924451E+02  0.45320337789E+02  0.00000000000E+00 0. -1.
</event>
<event>
 4    1  0.2293753E+005  0.2705283E+02  0.7546771E-02  0.1447078E+00
          2   -1    0    0  503    0  0.00000000000E+00  0.00000000000E+00  0.34215463775E+03  0.34215463775E+03  0.00000000000E+00 0. -1.
         21   -1    0    0  501  502 -0.00000000000E+00 -0.00000000000E+00 -0.59810145242E+01  0.59810145242E+01  0.00000000000E+00 0. -1.
          2    1    1    2  501    0  0.25598556434E+02  0.87503894966E+01  0.30759920379E+03  0.30878653724E+03  0.00000000000E+00 0. -1.
         21    1    1    2  503  502 -0.25598556434E+02 -0.87503894966E+01  0.28574419431E+02  0.39349115031E+02  0.00000000000E+00 0. -1.
</event>
<event>
 4    1  0.2293753E+005  0.4888417E+02  0.7546771E-02  0.1303084E+00
          2   -1    0    0  503    0  0.00000000000E+00  0.00000000000E+00  0.95789088466E+03  0.95789088466E+03  0.00000000000E+00 0. -1.
         21   -1    0    0  501  502 -0.00000000000E+00 -0.00000000000E+00 -0.52580077222E+01  0.52580077222E+01  0.00000000000E+00 0. -1.
          2    1    1    2  501    0 -0.48227843193E+02 -0.79835852166E+01  0.82542978860E+03  0.82687604778E+03  0.00000000000E+00 0. -1.
         21    1    1    2  503  502  0.48227843193E+02  0.79835852166E+01  0.12720308834E+03  0.13627284460E+03  0.00000000000E+00 0. -1.
</event>
<event>
 4    1  0.2293753E+005  0.3410633E+02  0.7546771E-02  0.1386957E+00
          2   -1    0    0  503    0  0.00000000000E+00  0.00000000000E+00  0.66368179764E+03  0.66368179764E+03  0.00000000000E+00 0. -1.
         21   -1    0    0  501  502 -0.00000000000E+00 -0.00000000000E+00 -0.95341410882E+01  0.95341410882E+01  0.00000000000E+00 0. -1.
          2    1    1    2  501    0 -0.97820831434E+01  0.32673421576E+02  0.63117167752E+03  0.63209249966E+03  0.00000000000E+00 0. -1.
         21    1    1    2  503  502  0.97820831434E+01 -0.32673421576E+02  0.22975979035E+02  0.41123439067E+02  0.00000000000E+00 0. -1.
</event>
<event>
 4    1  0.2293753E+005  0.2122550E+02  0.7546771E-02  0.1516070E+00
          2   -1    0    0  502    0  0.00000000000E+00  0.00000000000E+00  0.28383580226E+03  0.28383580226E+03  0.00000000000E+00 0. -1.
         21   -1    0    0  503  502 -0.00000000000E+00 -0.00000000000E+00 -0.51003823943E+01  0.51003823943E+01  0.00000000000E+00 0.  1.
          2    1    1    2  501    0  0.20756729237E+02 -0.44362115762E+01  0.25926713097E+03  0.26013451709E+03  0.00000000000E+00 0. -1.
         21    1    1    2  503  501 -0.20756729237E+02  0.44362115762E+01  0.19468288896E+02  0.28801667561E+02  0.00000000000E+00 0.  1.
</event>
<event>
 4    1  0.2293753E+005  0.2436257E+02  0.7546771E-02  0.1476062E+00
          2   -1    0    0  502    0  0.00000000000E+00  0.00000000000E+00  0.26103330645E+03  0.26103330645E+03  0.00000000000E+00 0. -1.
         21   -1    0    0  503  502 -0.00000000000E+00 -0.00000000000E+00 -0.72306479519E+02  0.72306479519E+02  0.00000000000E+00 0.  1.
          2    1    1    2  501    0 -0.15839375187E+02 -0.18510783037E+02  0.25839177659E+03  0.25953775276E+03  0.00000000000E+00 0. -1.
         21    1    1    2  503  501  0.15839375187E+02  0.18510783037E+02 -0.69664949662E+02  0.73802033212E+02  0.00000000000E+00 0.  1.
</event>
<event>
 4    1  0.2293753E+005  0.2459430E+02  0.7546771E-02  0.1473393E+00
          2   -1    0    0  503    0  0.00000000000E+00  0.00000000000E+00  0.14703204717E+03  0.14703204717E+03  0.00000000000E+00 0.  1.
         21   -1    0    0  501  502 -0.00000000000E+00 -0.00000000000E+00 -0.49416758283E+01  0.49416758283E+01  0.00000000000E+00 0.  1.
          2    1    1    2  501    0 -0.82330339752E+01  0.23175345097E+02  0.39945927777E+02  0.46910090756E+02  0.00000000000E+00 0.  1.
         21    1    1    2  503  502  0.82330339752E+01 -0.23175345097E+02  0.10214444356E+03  0.10506363224E+03  0.00000000000E+00 0.  1.
</event>
<event>
 4    1  0.2293753E+005  0.2071191E+02  0.7546771E-02  0.1523418E+00
          2   -1    0    0  503    0  0.00000000000E+00  0.00000000000E+00  0.14177932261E+04  0.14177932261E+04  0.00000000000E+00 0. -1.
         21   -1    0    0  501  502 -0.00000000000E+00 -0.00000000000E+00 -0.68729645327E+00  0.68729645327E+00  0.00000000000E+00 0.  1.
          2    1    1    2  501    0  0.10952035063E+02  0.17579425830E+02  0.12391889787E+04  0.12393620570E+04  0.00000000000E+00 0. -1.
         21    1    1    2  503  502 -0.10952035063E+02 -0.17579425830E+02  0.17791695091E+03  0.17911846556E+03  0.00000000000E+00 0.  1.
</event>
<event>
 4    1  0.2293753E+005  0.3046585E+02  0.7546771E-02  0.1415591E+00
          2   -1    0    0  503    0  0.00000000000E+00  0.00000000000E+00  0.12859935091E+04  0.12859935091E+04  0.00000000000E+00 0.  1.
         21   -1    0    0  501  502 -0.00000000000E+00 -0.00000000000E+00 -0.18068915763E+03  0.18068915763E+03  0.00000000000E+00 0. -1.
          2    1    1    2  501    0  0.27792624835E+02 -0.12479491904E+02  0.12845274007E+04  0.12848886375E+04  0.00000000000E+00 0.  1.
         21    1    1    2  503  502 -0.27792624835E+02  0.12479491904E+02 -0.17922304917E+03  0.18179402924E+03  0.00000000000E+00 0. -1.
</event>
<event>
 4    1  0.2293753E+005  0.2837437E+02  0.7546771E-02  0.1434270E+00
          2   -1    0    0  503    0  0.00000000000E+00  0.00000000000E+00  0.68620475371E+03  0.68620475371E+03  0.00000000000E+00 0.  1.
         21   -1    0    0  501  502 -0.00000000000E+00 -0.00000000000E+00 -0.14689966666E+02  0.14689966666E+02  0.00000000000E+00 0.  1.
          2    1    1    2  501    0  0.17455194633E+02  0.22370096222E+02  0.67191863178E+03  0.67251747394E+03  0.00000000000E+00 0.  1.
         21    1    1    2  503  502 -0.17455194633E+02 -0.22370096222E+02 -0.40384473486E+00  0.28377246435E+02  0.00000000000E+00 0.  1.
</event>
<event>
 4    1  0.2293753E+005  0.3595304E+02  0.7546771E-02  0.1373984E+00
          2   -1    0    0  503    0  0.00000000000E+00  0.00000000000E+00  0.17479015482E+04  0.17479015482E+04  0.00000000000E+00 0. -1.
         21   -1    0    0  501  502 -0.00000000000E+00 -0.00000000000E+00 -0.10336617585E+01  0.10336617585E+01  0.00000000000E+00 0. -1.
          2    1    1    2  501    0  0.30397559619E+02 -0.19199197354E+02  0.13399080022E+04  0.13403902697E+04  0.00000000000E+00 0. -1.
         21    1    1    2  503  502 -0.30397559619E+02  0.19199197354E+02  0.40695988425E+03  0.40854494024E+03  0.00000000000E+00 0. -1.
</event>
<event>
 4    1  0.2293753E+005  0.2016097E+02  0.7546771E-02  0.1531589E+00
          2   -1    0    0  503    0  0.00000000000E+00  0.00000000000E+00  0.22984976122E+03  0.22984976122E+03  0.00000000000E+00 0.  1.
         21   -1    0    0  501  502 -0.00000000000E+00 -0.00000000000E+00 -0.26738755151E+02  0.26738755151E+02  0.00000000000E+00 0. -1.
          2    1    1    2  501    0 -0.52633464853E+01  0.19461808703E+02  0.22553476431E+03  0.22643408472E+03  0.00000000000E+00 0.  1.
         21    1    1    2  503  502  0.52633464853E+01 -0.19461808703E+02 -0.22423758240E+02  0.30154431645E+02  0.00000000000E+00 0. -1.
</event>
<event>
 4    1  0.2293753E+005  0.3528899E+02  0.7546771E-02  0.1378543E+00
          2   -1    0    0  503    0  0.00000000000E+00  0.00000000000E+00  0.31055496895E+03  0.31055496895E+03  0.00000000000E+00 0.  1.
         21   -1    0    0  501  502 -0.00000000000E+00 -0.00000000000E+00 -0.40730259709E+01  0.40730259709E+01  0.00000000000E+00 0. -1.
          2    1    1    2  501    0  0.32737168863E+02  0.13175377961E+02  0.17281627338E+03  0.17638247406E+03  0.00000000000E+00 0.  1.
         21    1    1    2  503  502 -0.32737168863E+02 -0.13175377961E+02  0.13366566960E+03  0.13824552086E+03  0.00000000000E+00 0. -1.
</event>
<event>
 4    1  0.2293753E+005  0.2073218E+02  0.7546771E-02  0.1523123E+00
          2   -1    0    0  503    0  0.00000000000E+00  0.00000000000E+00  0.92966218017E+02  0.92966218017E+02  0.00000000000E+00 0. -1.
         21   -1    0    0  501  502 -0.00000000000E+00 -0.00000000000E+00 -0.46239413318E+01  0.46239413318E+01  0.00000000000E+00 0. -1.
          2    1    1    2  501    0  0.50517860328E+01  0.20107280007E+02  0.43660450329E+02  0.48332785709E+02  0.00000000000E+00 0. -1.
         21    1    1    2  503  502 -0.50517860328E+01 -0.20107280007E+02  0.44681826355E+02  0.49257373640E+02  0.00000000000E+00 0. -1.
</event>
<event>
 4    1  0.2293753E+005  0.2361669E+02  0.7546771E-02  0.1484896E+00
          2   -1    0    0  503    0  0.00000000000E+00  0.00000000000E+00  0.41977624486E+03  0.41977624486E+03  0.00000000000E+00 0.  1.
         21   -1    0    0  501  502 -0.00000000000E+00 -0.00000000000E+00 -0.14394025245E+01  0.14394025245E+01  0.00000000000E+00 0.  1.
          2    1    1    2  501    0 -0.24372958889E+01 -0.23490584976E+02  0.15075632447E+03  0.15259494540E+03  0.00000000000E+00 0.  1.
         21    1    1    2  503  502  0.24372958889E+01  0.23490584976E+02  0.26758051786E+03  0.26862070198E+03  0.00000000000E+00 0.  1.
</event>
<event>
 4    1  0.2293753E+005  0.2213948E+02  0.7546771E-02  0.1503596E+00
          2   -1    0    0  503    0  0.00000000000E+00  0.00000000000E+00  0.12837452025E+04  0.12837452025E+04  0.00000000000E+00 0.  1.
         21   -1    0    0  501  502 -0.00000000000E+00 -0.00000000000E+00 -0.16644213444E+01  0.16644213444E+01  0.00000000000E+00 0.  1.
          2    1    1    2  501    0  0.88884553033E+01  0.20276876412E+02  0.12052314318E+04  0.12054347600E+04  0.00000000000E+00 0.  1.
         21    1    1    2  503  502 -0.88884553033E+01 -0.20276876412E+02  0.76849349353E+02  0.79974863868E+02  0.00000000000E+00 0.  1.
</event>
<event>
 4    1  0.2293753E+005  0.3272278E+02  0.7546771E-02  0.1397321E+00
          2   -1    0    0  502    0  0.00000000000E+00  0.00000000000E+00  0.52461526919E+03  0.52461526919E+03  0.00000000000E+00 0.  1.
         21   -1    0    0  503  502 -0.00000000000E+00 -0.00000000000E+00 -0.14805057015E+03  0.14805057015E+03  0.00000000000E+00 0. -1.
          2    1    1    2  501    0 -0.31484474148E+02 -0.89167531354E+01  0.52228882040E+03  0.52331290115E+03  0.00000000000E+00 0.  1.
         21    1    1    2  503  501  0.31484474148E+02  0.89167531354E+01 -0.14572412136E+03  0.14935293819E+03  0.00000000000E+00 0. -1.
</event>
<event>
 4    1  0.2293753E+005  0.2101072E+02  0.7546771E-02  0.1519112E+00
          2   -1    0    0  502    0  0.00000000000E+00  0.00000000000E+00  0.15043660573E+04  0.15043660573E+04  0.00000000000E+00 0.  1.
         21   -1    0    0  503  502 -0.00000000000E+00 -0.00000000000E+00 -0.11277435512E+01  0.11277435512E+01  0.00000000000E+00 0. -1.
          2    1    1    2  501    0 -0.20934486812E+02  0.17881383921E+01  0.13990662547E+04  0.13992240118E+04  0.00000000000E+00 0.  1.
         21    1    1    2  503  501  0.20934486812E+02 -0.17881383921E+01  0.10417205904E+03  0.10626978904E+03  0.00000000000E+00 0. -1.
</event>
<event>
 4    1  0.2293753E+005  0.2589240E+02  0.7546771E-02  0.1459063E+00
          2   -1    0    0  503    0  0.00000000000E+00  0.00000000000E+00  0.67470906406E+02  0.67470906406E+02  0.00000000000E+00 0. -1.
         21   -1    0    0  501  502 -0.00000000000E+00 -0.00000000000E+00 -0.37838746496E+03  0.37838746496E+03  0.00000000000E+00 0. -1.
          2    1    1    2  501    0  0.25713668052E+02  0.30370195408E+01  0.64524397420E+02  0.69525636098E+02  0.00000000000E+00 0. -1.
         21    1    1    2  503  502 -0.25713668052E+02 -0.30370195408E+01 -0.37544095597E+03  0.37633273526E+03  0.00000000000E+00 0. -1.
</event>
<event>
 4    1  0.2293753E+005  0.2397669E+02  0.7546771E-02  0.1480585E+00
          2   -1    0    0  503    0  0.00000000000E+00  0.00000000000E+00  0.61287995948E+03  0.61287995948E+03  0.00000000000E+00 0.  1.
         21   -1    0    0  501  502 -0.00000000000E+00 -0.00000000000E+00 -0.24232183140E+01  0.24232183140E+01  0.00000000000E+00 0.  1.
          2    1    1    2  501    0  0.61831992674E+01  0.23165698221E+02  0.54608466981E+03  0.54661078303E+03  0.00000000000E+00 0.  1.
         21    1    1    2  503  502 -0.61831992674E+01 -0.23165698221E+02  0.64372071355E+02  0.68692394759E+02  0.00000000000E+00 0.  1.
</event>
<event>
 4    1  0.2293753E+005  0.3464249E+02  0.7546771E-02  0.1383094E+00
          2   -1    0    0  503    0  0.00000000000E+00  0.00000000000E+00  0.33980877423E+03  0.33980877423E+03  0.00000000000E+00 0.  1.
         21   -1    0    0  501  502 -0.00000000000E+00 -0.00000000000E+00 -0.56041361145E+01  0.56041361145E+01  0.00000000000E+00 0.  1.
          2    1    1    2  501    0 -0.10716886063E+01 -0.34625912274E+02  0.27212785603E+03  0.27432402801E+03  0.00000000000E+00 0.  1.
         21    1    1    2  503  502  0.10716886063E+01  0.34625912274E+02  0.62076782089E+02  0.71088882336E+02  0.00000000000E+00 0.  1.
</event>
<event>
 4    1  0.2293753E+005  0.4117906E+02  0.7546771E-02  0.1341712E+00
          2   -1    0    0  503    0  0.00000000000E+00  0.00000000000E+00  0.78034497263E+02  0.78034497263E+02  0.00000000000E+00 0. -1.
         21   -1    0    0  501  502 -0.00000000000E+00 -0.00000000000E+00 -0.10623163255E+03  0.10623163255E+03  0.00000000000E+00 0. -1.
          2    1    1    2  501    0 -0.63464479594E+01 -0.40687072924E+02  0.68072758298E+02  0.79558882139E+02  0.00000000000E+00 0. -1.
         21    1    1    2  503  502  0.63464479594E+01  0.40687072924E+02 -0.96269893589E+02  0.10470724768E+03  0.00000000000E+00 0. -1.
</event>
<event>
 4    1  0.2293753E+005  0.2141366E+02  0.7546771E-02  0.1513440E+00
          2   -1    0    0  502    0  0.00000000000E+00  0.00000000000E+00  0.92527058733E+03  0.92527058733E+03  0.00000000000E+00 0.  1.
         21   -1    0    0  503  502 -0.00000000000E+00 -0.00000000000E+00 -0.37951112453E+02  0.37951112453E+02  0.00000000000E+00 0. -1.
          2    1    1    2  501    0  0.17187644468E+02 -0.12772232038E+02  0.92211572959E+03  0.92236433354E+03  0.00000000000E+00 0.  1.
         21    1    1    2  503  501 -0.17187644468E+02  0.12772232038E+02 -0.34796254716E+02  0.40857366237E+02  0.00000000000E+00 0. -1.
</event>
<event>
 4    1  0.2293753E+005  0.3001197E+02  0.7546771E-02  0.1419492E+00
          2   -1    0    0  503    0  0.00000000000E+00  0.00000000000E+00  0.65759651529E+02  0.65759651529E+02  0.00000000000E+00 0.  1.
         21   -1    0    0  501  502 -0.00000000000E+00 -0.00000000000E+00 -0.27150035557E+03  0.27150035557E+03  0.00000000000E+00 0.  1.
          2    1    1    2  501    0 -0.50471154941E+01  0.29584544164E+02  0.61450931866E+02  0.68388125105E+02  0.00000000000E+00 0.  1.
         21    1    1    2  503  502  0.50471154941E+01 -0.29584544164E+02 -0.26719163590E+03  0.26887188199E+03  0.00000000000E+00 0.  1.
</event>
<event>
 4    1  0.2293753E+005  0.2044447E+02  0.7546771E-02  0.1527346E+00
          2   -1    0    0  503    0  0.00000000000E+00  0.00000000000E+00  0.11661936846E+04  0.11661936846E+04  0.00000000000E+00 0. -1.
         21   -1    0    0  501  502 -0.00000000000E+00 -0.00000000000E+00 -0.36083263870E+00  0.36083263870E+00  0.00000000000E+00 0. -1.
          2    1    1    2  501    0 -0.19677514377E+02  0.55472217692E+01  0.53512964039E+03  0.53552003535E+03  0.00000000000E+00 0. -1.
         21    1    1    2  503  502  0.19677514377E+02 -0.55472217692E+01  0.63070321160E+03  0.63103448191E+03  0.00000000000E+00 0. -1.
</event>
<event>
 4    1  0.2293753E+005  0.2777081E+02  0.7546771E-02  0.1440015E+00
          2   -1    0    0  503    0  0.00000000000E+00  0.00000000000E+00  0.58265562695E+03  0.58265562695E+03  0.00000000000E+00 0. -1.
         21   -1    0    0  501  502 -0.00000000000E+00 -0.00000000000E+00 -0.44952648779E+01  0.44952648779E+01  0.00000000000E+00 0. -1.
          2    1    1    2  501    0  0.23845420540E+02 -0.14234247750E+02  0.53567501897E+03  0.53639439206E+03  0.00000000000E+00 0. -1.
         21    1    1    2  503  502 -0.23845420540E+02  0.14234247750E+02  0.42485343102E+02  0.50756499763E+02  0.00000000000E+00 0. -1.
</event>
<event>
 4    1  0.2293753E+005  0.2100695E+02  0.7546771E-02  0.1519166E+00
          2   -1    0    0  502    0  0.00000000000E+00  0.00000000000E+00  0.16250328925E+03  0.16250328925E+03  0.00000000000E+00 0.  1.
         21   -1    0    0  503  502 -0.00000000000E+00 -0.00000000000E+00 -0.45629673796E+01  0.45629673796E+01  0.00000000000E+00 0.  1.
          2    1    1    2  501    0  0.11943737473E+02 -0.17281173599E+02  0.13212137917E+03  0.13378098019E+03  0.00000000000E+00 0.  1.
         21    1    1    2  503  501 -0.11943737473E+02  0.17281173599E+02  0.25818942701E+02  0.33285276444E+02  0.00000000000E+00 0.  1.
</event>
<event>
 4    1  0.2293753E+005  0.2387555E+02  0.7546771E-02  0.1481787E+00
          2   -1    0    0  502    0  0.00000000000E+00  0.00000000000E+00  0.12669443809E+03  0.12669443809E+03  0.00000000000E+00 0. -1.
         21   -1    0    0  503  502 -0.00000000000E+00 -0.00000000000E+00 -0.92959717513E+01  0.92959717513E+01  0.00000000000E+00 0.  1.
          2    1    1    2  501    0 -0.13780794463E+02  0.19496968760E+02  0.10754183787E+03  0.11016028767E+03  0.00000000000E+00 0. -1.
         21    1    1    2  503  501  0.13780794463E+02 -0.19496968760E+02  0.98566284741E+01  0.25830122178E+02  0.00000000000E+00 0.  1.
</event>
<event>
 4    1  0.2293753E+005  0.4186005E+02  0.7546771E-02  0.1337918E+00
          2   -1    0    0  502    0  0.00000000000E+00  0.00000000000E+00  0.15680380118E+04  0.15680380118E+04  0.00000000000E+00 0.  1.
         21   -1    0    0  503  502 -0.00000000000E+00 -0.00000000000E+00 -0.15646226099E+01  0.15646226099E+01  0.00000000000E+00 0.  1.
          2    1    1    2  501    0 -0.40463189988E+02 -0.10723527915E+02  0.12027773233E+04  0.12035055269E+04  0.00000000000E+00 0.  1.
         21    1    1    2  503  501  0.40463189988E+02  0.10723527915E+02  0.36369606588E+03  0.36609710752E+03  0.00000000000E+00 0.  1.
</event>
<event>
 4    1  0.2293753E+005  0.2058672E+02  0.7546771E-02  0.1525248E+00
          2   -1    0    0  503    0  0.00000000000E+00  0.00000000000E+00  0.69708274163E+00  0.69708274163E+00  0.00000000000E+00 0. -1.
         21   -1    0    0  501  502 -0.00000000000E+00 -0.00000000000E+00 -0.10377785261E+04  0.10377785261E+04  0.00000000000E+00 0.  1.
          2    1    1    2  501    0  0.19302364083E+02 -0.71576487117E+01 -0.18438736744E+03  0.18553305492E+03  0.00000000000E+00 0. -1.
         21    1    1    2  503  502 -0.19302364083E+02  0.71576487117E+01 -0.85269407593E+03  0.85294255394E+03  0.00000000000E+00 0.  1.
</event>
<event>
 4    1  0.2293753E+005  0.2166860E+02  0.7546771E-02  0.1509929E+00
          2   -1    0    0  503    0  0.00000000000E+00  0.00000000000E+00  0.45155875692E+03  0.45155875692E+03  0.00000000000E+00 0. -1.
         21   -1    0    0  501  502 -0.00000000000E+00 -0.00000000000E+00 -0.12112306916E+01  0.12112306916E+01  0.00000000000E+00 0. -1.
          2    1    1    2  501    0 -0.15846228643E+02  0.14779218328E+02  0.31034356020E+03  0.31109910578E+03  0.00000000000E+00 0. -1.
         21    1    1    2  503  502  0.15846228643E+02 -0.14779218328E+02  0.14000396602E+03  0.14167088183E+03  0.00000000000E+00 0. -1.
</event>
<event>
 4    1  0.2293753E+005  0.3072080E+02  0.7546771E-02  0.1413434E+00
          2   -1    0    0  503    0  0.00000000000E+00  0.00000000000E+00  0.13583770754E+04  0.13583770754E+04  0.00000000000E+00 0. -1.
         21   -1    0    0  501  502 -0.00000000000E+00 -0.00000000000E+00 -0.11664243596E+01  0.11664243596E+01  0.00000000000E+00 0.  1.
          2    1    1    2  501    0  0.22543847511E+02  0.20869655169E+02  0.11108643425E+04  0.11112890511E+04  0.00000000000E+00 0. -1.
         21    1    1    2  503  502 -0.22543847511E+02 -0.20869655169E+02  0.24634630847E+03  0.24825444863E+03  0.00000000000E+00 0.  1.
</event>
<event>
 4    1  0.2293753E+005  0.4059221E+02  0.7546771E-02  0.1345050E+00
          2   -1    0    0  502    0  0.00000000000E+00  0.00000000000E+00  0.66811859681E+01  0.66811859681E+01  0.00000000000E+00 0. -1.
         21   -1    0    0  503  502 -0.00000000000E+00 -0.00000000000E+00 -0.27705996828E+03  0.27705996828E+03  0.00000000000E+00 0. -1.
          2    1    1    2  501    0 -0.34376096874E+02 -0.21587291357E+02 -0.88166042344E+02  0.97061723697E+02  0.00000000000E+00 0. -1.
         21    1    1    2  503  501  0.34376096874E+02  0.21587291357E+02 -0.18221273997E+03  0.18667943055E+03  0.00000000000E+00 0. -1.
</event>
<event>
 4    1  0.2293753E+005  0.2191501E+02  0.7546771E-02  0.1506591E+00
          2   -1    0    0  502    0  0.00000000000E+00  0.00000000000E+00  0.53527929508E+01  0.53527929508E+01  0.00000000000E+00 0. -1.
         21   -1    0    0  503  502 -0.00000000000E+00 -0.00000000000E+00 -0.17982493259E+03  0.17982493259E+03  0.00000000000E+00 0. -1.
          2    1    1    2  501    0  0.21850116153E+02 -0.16852557488E+01 -0.21696846454E+02  0.30838625276E+02  0.00000000000E+00 0. -1.
         21    1    1    2  503  501 -0.21850116153E+02  0.16852557488E+01 -0.15277529319E+03  0.15433910027E+03  0.00000000000E+00 0. -1.
</event>
<event>
 4    1  0.2293753E+005  0.2634510E+02  0.7546771E-02  0.1454300E+00
          2   -1    0    0  503    0  0.00000000000E+00  0.00000000000E+00  0.69063210281E+03  0.69063210281E+03  0.00000000000E+00 0. -1.
         21   -1    0    0  501  502 -0.00000000000E+00 -0.00000000000E+00 -0.13805056222E+01  0.13805056222E+01  0.00000000000E+00 0.  1.
          2    1    1    2  501    0  0.21601468670E+02 -0.15081140701E+02  0.52508986327E+03  0.52575034832E+03  0.00000000000E+00 0. -1.
         21    1    1    2  503  502 -0.21601468670E+02  0.15081140701E+02  0.16416173392E+03  0.16626226011E+03  0.00000000000E+00 0.  1.
</event>
<event>
 4    1  0.2293753E+005  0.2621772E+02  0.7546771E-02  0.1455629E+00
          2   -1    0    0  503    0  0.00000000000E+00  0.00000000000E+00  0.41676777319E+03  0.41676777319E+03  0.00000000000E+00 0.  1.
         21   -1    0    0  501  502 -0.00000000000E+00 -0.00000000000E+00 -0.62383732709E+02  0.62383732709E+02  0.00000000000E+00 0. -1.
          2    1    1    2  501    0  0.19544011246E+02 -0.17475703918E+02  0.41357964046E+03  0.41440980636E+03  0.00000000000E+00 0.  1.
         21    1    1    2  503  502 -0.19544011246E+02  0.17475703918E+02 -0.59195599977E+02  0.64741699542E+02  0.00000000000E+00 0. -1.
</event>
<event>
 4    1  0.2293753E+005  0.3495136E+02  0.7546771E-02  0.1380905E+00
          2   -1    0    0  502    0  0.00000000000E+00  0.00000000000E+00  0.15757808538E+04  0.15757808538E+04  0.00000000000E+00 0.  1.
         21   -1    0    0  503  502 -0.00000000000E+00 -0.00000000000E+00 -0.13590500024E+01  0.13590500024E+01  0.00000000000E+00 0. -1.
          2    1    1    2  501    0 -0.93507770109E+01 -0.33677301984E+02  0.13040564574E+04  0.13045247571E+04  0.00000000000E+00 0.  1.
         21    1    1    2  503  501  0.93507770109E+01  0.33677301984E+02  0.27036534633E+03  0.27261514668E+03  0.00000000000E+00 0. -1.
</event>
<event>
 4    1  0.2293753E+005  0.2135055E+02  0.7546771E-02  0.1514318E+00
          2   -1    0    0  502    0  0.00000000000E+00  0.00000000000E+00  0.92680191076E+03  0.92680191076E+03  0.00000000000E+00 0.  1.
         21   -1    0    0  503  502 -0.00000000000E+00 -0.00000000000E+00 -0.28430561023E+01  0.28430561023E+01  0.00000000000E+00 0.  1.
          2    1    1    2  501    0  0.19895175314E+02  0.77477837129E+01  0.88468687343E+03  0.88494446728E+03  0.00000000000E+00 0.  1.
         21    1    1    2  503  501 -0.19895175314E+02 -0.77477837129E+01  0.39271981230E+02  0.44700499583E+02  0.00000000000E+00 0.  1.
</event>
<event>
 4    1  0.2293753E+005  0.2038371E+02  0.7546771E-02  0.1528249E+00
          2   -1    0    0  502    0  0.00000000000E+00  0.00000000000E+00  0.33449637448E+03  0.33449637448E+03  0.00000000000E+00 0.  1.
         21   -1    0    0  503  502 -0.00000000000E+00 -0.00000000000E+00 -0.10466362165E+02  0.10466362165E+02  0.00000000000E+00 0.  1.
          2    1    1    2  501    0  0.19335440740E+02 -0.64526256946E+01  0.32393813337E+03  0.32457881924E+03  0.00000000000E+00 0.  1.
         21    1    1    2  503  501 -0.19335440740E+02  0.64526256946E+01  0.91878942529E-01  0.20383917403E+02  0.00000000000E+00 0.  1.
</event>
<event>
 4    1  0.2293753E+005  0.3009828E+02  0.7546771E-02  0.1418744E+00
          2   -1    0    0  503    0  0.00000000000E+00  0.00000000000E+00  0.49498771278E+02  0.49498771278E+02  0.00000000000E+00 0.  1.
         21   -1    0    0  501  502 -0.00000000000E+00 -0.00000000000E+00 -0.53111457056E+02  0.53111457056E+02  0.00000000000E+00 0.  1.
          2    1    1    2  501    0  0.11715251907E+02  0.27724709136E+02  0.39728988657E+02  0.49842744342E+02  0.00000000000E+00 0.  1.
         21    1    1    2  503  502 -0.11715251907E+02 -0.27724709136E+02 -0.43341674435E+02  0.52767483991E+02  0.00000000000E+00 0.  1.
</event>
<event>
 4    1  0.2293753E+005  0.4057555E+02  0.7546771E-02  0.1345146E+00
          2   -1    0    0  503    0  0.00000000000E+00  0.00000000000E+00  0.11734536180E+02  0.11734536180E+02  0.00000000000E+00 0. -1.
         21   -1    0    0  501  502 -0.00000000000E+00 -0.00000000000E+00 -0.31133402440E+03  0.31133402440E+03  0.00000000000E+00 0. -1.
          2    1    1    2  501    0  0.88853787693E+01 -0.39590719935E+02 -0.30073173974E+02  0.50505156704E+02  0.00000000000E+00 0. -1.
         21    1    1    2  503  502 -0.88853787693E+01  0.39590719935E+02 -0.26952631425E+03  0.27256340388E+03  0.00000000000E+00 0. -1.
</event>
<event>
 4    1  0.2293753E+005  0.2045223E+02  0.7546771E-02  0.1527231E+00
          2   -1    0    0  503    0  0.00000000000E+00  0.00000000000E+00  0.36104011308E+03  0.36104011308E+03  0.00000000000E+00 0.  1.
         21   -1    0    0  501  502 -0.00000000000E+00 -0.00000000000E+00 -0.11873723530E+01  0.11873723530E+01  0.00000000000E+00 0.  1.
          2    1    1    2  501    0  0.10082329669E+02  0.17794391800E+02  0.20812958892E+03  0.20913206242E+03  0.00000000000E+00 0.  1.
         21    1    1    2  503  502 -0.10082329669E+02 -0.17794391800E+02  0.15172315181E+03  0.15309542301E+03  0.00000000000E+00 0.  1.
</event>
<event>
 4    1  0.2293753E+005  0.6991264E+02  0.7546771E-02  0.1229426E+00
          2   -1    0    0  503    0  0.00000000000E+00  0.00000000000E+00  0.17178980639E+04  0.17178980639E+04  0.00000000000E+00 0.  1.
         21   -1    0    0  501  502 -0.00000000000E+00 -0.00000000000E+00 -0.11210369945E+03  0.11210369945E+03  0.00000000000E+00 0. -1.
          2    1    1    2  501    0 -0.49802606340E+02 -0.49066052297E+02  0.17062120126E+04  0.17076437594E+04  0.00000000000E+00 0.  1.
         21    1    1    2  503  502  0.49802606340E+02  0.49066052297E+02 -0.10041764811E+03  0.12235800398E+03  0.00000000000E+00 0. -1.
</event>
<event>
 4    1  0.2293753E+005  0.2288756E+02  0.7546771E-02  0.1493915E+00
          2   -1    0    0  502    0  0.00000000000E+00  0.00000000000E+00  0.91530851646E+03  0.91530851646E+03  0.00000000000E+00 0. -1.
         21   -1    0    0  503  502 -0.00000000000E+00 -0.00000000000E+00 -0.65970709181E+01  0.65970709181E+01  0.00000000000E+00 0.  1.
          2    1    1    2  501    0 -0.22818401364E+02 -0.17778649240E+01  0.89486066232E+03  0.89515330822E+03  0.00000000000E+00 0. -1.
         21    1    1    2  503  501  0.22818401364E+02  0.17778649240E+01  0.13850783223E+02  0.26752279162E+02  0.00000000000E+00 0.  1.
</event>
<event>
 4    1  0.2293753E+005  0.2240884E+02  0.7546771E-02  0.1500058E+00
          2   -1    0    0  502    0  0.00000000000E+00  0.00000000000E+00  0.16986064782E+04  0.16986064782E+04  0.00000000000E+00 0. -1.
         21   -1    0    0  503  502 -0.00000000000E+00 -0.00000000000E+00 -0.10161170950E+01  0.10161170950E+01  0.00000000000E+00 0. -1.
          2    1    1    2  501    0 -0.14938633993E+02 -0.16703087354E+02  0.15643852060E+04  0.15645456940E+04  0.00000000000E+00 0. -1.
         21    1    1    2  503  501  0.14938633993E+02  0.16703087354E+02  0.13320515514E+03  0.13507690132E+03  0.00000000000E+00 0. -1.
</event>
<event>
 4    1  0.2293753E+005  0.3001843E+02  0.7546771E-02  0.1419436E+00
          2   -1    0    0  502    0  0.00000000000E+00  0.00000000000E+00  0.50069404195E+03  0.50069404195E+03  0.00000000000E+00 0. -1.
         21   -1    0    0  503  502 -0.00000000000E+00 -0.00000000000E+00 -0.41832486009E+01  0.41832486009E+01  0.00000000000E+00 0.  1.
          2    1    1    2  501    0  0.27139486316E+02  0.12827872463E+02  0.43880574310E+03  0.43983131563E+03  0.00000000000E+00 0. -1.
         21    1    1    2  503  501 -0.27139486316E+02 -0.12827872463E+02  0.57705050248E+02  0.65045974922E+02  0.00000000000E+00 0.  1.
</event>
<event>
 4    1  0.2293753E+005  0.2122803E+02  0.7546771E-02  0.1516034E+00
          2   -1    0    0  503    0  0.00000000000E+00  0.00000000000E+00  0.10016322742E+04  0.10016322742E+04  0.00000000000E+00 0. -1.
         21   -1    0    0  501  502 -0.00000000000E+00 -0.00000000000E+00 -0.24375221718E+01  0.24375221718E+01  0.00000000000E+00 0.  1.
          2    1    1    2  501    0  0.19142572329E+02 -0.91755858363E+01  0.95294054060E+03  0.95317695281E+03  0.00000000000E+00 0. -1.
         21    1    1    2  503  502 -0.19142572329E+02  0.91755858363E+01  0.46254211423E+02  0.50892843555E+02  0.00000000000E+00 0.  1.
</event>
<event>
 4    1  0.2293753E+005  0.3824272E+02  0.7546771E-02  0.1359103E+00
          2   -1    0    0  503    0  0.00000000000E+00  0.00000000000E+00  0.16164777388E+04  0.16164777388E+04  0.00000000000E+00 0.  1.
         21   -1    0    0  501  502 -0.00000000000E+00 -0.00000000000E+00 -0.66157050680E+01  0.66157050680E+01  0.00000000000E+00 0.  1.
          2    1    1    2  501    0 -0.35803254679E+02  0.13439968266E+02  0.15589458492E+04  0.15594148474E+04  0.00000000000E+00 0.  1.
         21    1    1    2  503  502  0.35803254679E+02 -0.13439968266E+02  0.50916184592E+02  0.63678596452E+02  0.00000000000E+00 0.  1.
</event>
<event>
 4    1  0.2293753E+005  0.3141354E+02  0.7546771E-02  0.1407698E+00
          2   -1    0    0  503    0  0.00000000000E+00  0.00000000000E+00  0.17922886053E+03  0.17922886053E+03  0.00000000000E+00 0.  1.
         21   -1    0    0  501  502 -0.00000000000E+00 -0.00000000000E+00 -0.96893636072E+01  0.96893636072E+01  0.00000000000E+00 0. -1.
          2    1    1    2  501    0 -0.63905825167E+01  0.30756640628E+02  0.14683748087E+03  0.15016010214E+03  0.00000000000E+00 0.  1.
         21    1    1    2  503  502  0.63905825167E+01 -0.30756640628E+02  0.22702016053E+02  0.38758121994E+02  0.00000000000E+00 0. -1.
</event>
<event>
 4    1  0.2293753E+005  0.2732628E+02  0.7546771E-02  0.1444358E+00
          2   -1    0    0  502    0  0.00000000000E+00  0.00000000000E+00  0.70109137218E+03  0.70109137218E+03  0.00000000000E+00 0.  1.
         21   -1    0    0  503  502 -0.00000000000E+00 -0.00000000000E+00 -0.91677822429E+01  0.91677822429E+01  0.00000000000E+00 0.  1.
          2    1    1    2  501    0 -0.22566175728E+02 -0.15410824732E+02  0.67982561366E+03  0.68037459594E+03  0.00000000000E+00 0.  1.
         21    1    1    2  503  501  0.22566175728E+02  0.15410824732E+02  0.12097976274E+02  0.29884558485E+02  0.00000000000E+00 0.  1.
</event>
<event>
 4    1  0.2293753E+005  0.2974870E+02  0.7546771E-02  0.1421793E+00
          2   -1    0    0  503    0  0.00000000000E+00  0.00000000000E+00  0.92988401376E+02  0.92988401376E+02  0.00000000000E+00 0. -1.
         21   -1    0    0  501  502 -0.00000000000E+00 -0.00000000000E+00 -0.87061655648E+02  0.87061655648E+02  0.00000000000E+00 0. -1.
          2    1    1    2  501    0 -0.28346245174E+02  0.90263755912E+01  0.87925486347E+02  0.92821744334E+02  0.00000000000E+00 0. -1.
         21    1    1    2  503  502  0.28346245174E+02 -0.90263755912E+01 -0.81998740619E+02  0.87228312691E+02  0.00000000000E+00 0. -1.
</event>
<event>
 4    1  0.2293753E+005  0.2358890E+02  0.7546771E-02  0.1485233E+00
          2   -1    0    0  503    0  0.00000000000E+00  0.00000000000E+00  0.29692896116E+02  0.29692896116E+02  0.00000000000E+00 0.  1.
         21   -1    0    0  501  502 -0.00000000000E+00 -0.00000000000E+00 -0.31744047050E+03  0.31744047050E+03  0.00000000000E+00 0.  1.
          2    1    1    2  501    0 -0.69141093898E+01  0.22552850680E+02  0.24491822951E+02  0.34004196416E+02  0.00000000000E+00 0.  1.
         21    1    1    2  503  502  0.69141093898E+01 -0.22552850680E+02 -0.31223939733E+03  0.31312917020E+03  0.00000000000E+00 0.  1.
</event>
<event>
 4    1  0.2293753E+005  0.4486978E+02  0.7546771E-02  0.1322092E+00
          2   -1    0    0  503    0  0.00000000000E+00  0.00000000000E+00  0.10088269605E+03  0.10088269605E+03  0.00000000000E+00 0.  1.
         21   -1    0    0  501  502 -0.00000000000E+00 -0.00000000000E+00 -0.18499399858E+03  0.18499399858E+03  0.00000000000E+00 0. -1.
          2    1    1    2  501    0  0.33435556201E+02 -0.29922573716E+02  0.92952765540E+02  0.10321585856E+03  0.00000000000E+00 0.  1.
         21    1    1    2  503  502 -0.33435556201E+02  0.29922573716E+02 -0.17706406807E+03  0.18266083608E+03  0.00000000000E+00 0. -1.
</event>
<event>
 4    1  0.2293753E+005  0.8429158E+02  0.7546771E-02  0.1194220E+00
          2   -1    0    0  503    0  0.00000000000E+00  0.00000000000E+00  0.64033139432E+03  0.64033139432E+03  0.00000000000E+00 0.  1.
         21   -1    0    0  501  502 -0.00000000000E+00 -0.00000000000E+00 -0.25022326478E+02  0.25022326478E+02  0.00000000000E+00 0.  1.
          2    1    1    2  501    0  0.84269466774E+02  0.19307543343E+01  0.55584103982E+03  0.56219599108E+03  0.00000000000E+00 0.  1.
         21    1    1    2  503  502 -0.84269466774E+02 -0.19307543343E+01  0.59468028021E+02  0.10315772971E+03  0.00000000000E+00 0.  1.
</event>
<event>
 4    1  0.2293753E+005  0.2428237E+02  0.7546771E-02  0.1476994E+00
          2   -1    0    0  503    0  0.00000000000E+00  0.00000000000E+00  0.98213758984E+01  0.98213758984E+01  0.00000000000E+00 0. -1.
         21   -1    0    0  501  502 -0.00000000000E+00 -0.00000000000E+00 -0.80324619187E+02  0.80324619187E+02  0.00000000000E+00 0.  1.
          2    1    1    2  501    0  0.20572759282E+02 -0.12899428744E+02 -0.12598867847E+02  0.27356263586E+02  0.00000000000E+00 0. -1.
         21    1    1    2  503  502 -0.20572759282E+02  0.12899428744E+02 -0.57904375442E+02  0.62789731499E+02  0.00000000000E+00 0.  1.
</event>
<event>
 4    1  0.2293753E+005  0.2201097E+02  0.7546771E-02  0.1505305E+00
          2   -1    0    0  503    0  0.00000000000E+00  0.00000000000E+00  0.15980610354E+03  0.15980610354E+03  0.00000000000E+00 0. -1.
         21   -1    0    0  501  502 -0.00000000000E+00 -0.00000000000E+00 -0.19726338809E+02  0.19726338809E+02  0.00000000000E+00 0. -1.
          2    1    1    2  501    0  0.21053418588E+02  0.64215485986E+01  0.15262053876E+03  0.15419958357E+03  0.00000000000E+00 0. -1.
         21    1    1    2  503  502 -0.21053418588E+02 -0.64215485986E+01 -0.12540774032E+02  0.25332858780E+02  0.00000000000E+00 0. -1.
</event>
<event>
 4    1  0.2293753E+005  0.3506432E+02  0.7546771E-02  0.1380112E+00
          2   -1    0    0  502    0  0.00000000000E+00  0.00000000000E+00  0.17340330631E+03  0.17340330631E+03  0.00000000000E+00 0.  1.
         21   -1    0    0  503  502 -0.00000000000E+00 -0.00000000000E+00 -0.10517543952E+02  0.10517543952E+02  0.00000000000E+00 0.  1.
          2    1    1    2  501    0 -0.16670629166E+02  0.30847963122E+02  0.13393656950E+03  0.13845039312E+03  0.00000000000E+00 0.  1.
         21    1    1    2  503  501  0.16670629166E+02 -0.30847963122E+02  0.28949192856E+02  0.45470457141E+02  0.00000000000E+00 0.  1.
</event>
<event>
 4    1  0.2293753E+005  0.2422030E+02  0.7546771E-02  0.1477718E+00
          2   -1    0    0  502    0  0.00000000000E+00  0.00000000000E+00  0.69634646085E+03  0.69634646085E+03  0.00000000000E+00 0.  1.
         21   -1    0    0  503  502 -0.00000000000E+00 -0.00000000000E+00 -0.11829388201E+03  0.11829388201E+03  0.00000000000E+00 0. -1.
          2    1    1    2  501    0  0.11394460568E+02  0.21372624056E+02  0.69489350481E+03  0.69531547215E+03  0.00000000000E+00 0.  1.
         21    1    1    2  503  501 -0.11394460568E+02 -0.21372624056E+02 -0.11684092597E+03  0.11932487072E+03  0.00000000000E+00 0. -1.
</event>
<event>
 4    1  0.2293753E+005  0.2570012E+02  0.7546771E-02  0.1461121E+00
          2   -1    0    0  503    0  0.00000000000E+00  0.00000000000E+00  0.62040517254E+02  0.62040517254E+02  0.00000000000E+00 0. -1.
         21   -1    0    0  501  502 -0.00000000000E+00 -0.00000000000E+00 -0.26455916802E+02  0.26455916802E+02  0.00000000000E+00 0.  1.
          2    1    1    2  501    0  0.30928864807E+01 -0.25513338787E+02  0.51997825917E+02  0.58002330151E+02  0.00000000000E+00 0. -1.
         21    1    1    2  503  502 -0.30928864807E+01  0.25513338787E+02 -0.16413225465E+02  0.30494103905E+02  0.00000000000E+00 0.  1.
</event>
<event>
 4    1  0.2293753E+005  0.2483006E+02  0.7546771E-02  0.1470714E+00
          2   -1    0    0  503    0  0.00000000000E+00  0.00000000000E+00  0.38286665664E+03  0.38286665664E+03  0.00000000000E+00 0. -1.
         21   -1    0    0  501  502 -0.00000000000E+00 -0.00000000000E+00 -0.19388872630E+01  0.19388872630E+01  0.00000000000E+00 0. -1.
          2    1    1    2  501    0 -0.10857700111E+02 -0.22330299867E+02  0.26966975290E+03  0.27081046429E+03  0.00000000000E+00 0. -1.
         21    1    1    2  503  502  0.10857700111E+02  0.22330299867E+02  0.11125801648E+03  0.11399507961E+03  0.00000000000E+00 0. -1.
</event>
<event>
 4    1  0.2293753E+005  0.2028586E+02  0.7546771E-02  0.1529710E+00
          2   -1    0    0  503    0  0.00000000000E+00  0.00000000000E+00  0.91527403024E+01  0.91527403024E+01  0.00000000000E+00 0. -1.
         21   -1    0    0  501  502 -0.00000000000E+00 -0.00000000000E+00 -0.14212227981E+03  0.14212227981E+03  0.00000000000E+00 0. -1.
          2    1    1    2  501    0 -0.14901977330E+02 -0.13763983125E+02 -0.39455004996E+01  0.20665989790E+02  0.00000000000E+00 0. -1.
         21    1    1    2  503  502  0.14901977330E+02  0.13763983125E+02 -0.12902403901E+03  0.13060903032E+03  0.00000000000E+00 0. -1.
</event>
<event>
 4    1  0.2293753E+005  0.4595596E+02  0.7546771E-02  0.1316727E+00
          2   -1    0    0  503    0  0.00000000000E+00  0.00000000000E+00  0.22329349512E+03  0.22329349512E+03  0.00000000000E+00 0. -1.
         21   -1    0    0  501  502 -0.00000000000E+00 -0.00000000000E+00 -0.11285113703E+02  0.11285113703E+02  0.00000000000E+00 0.  1.
          2    1    1    2  501    0  0.43637343365E+02  0.14412915741E+02  0.15319603367E+03  0.15994053460E+03  0.00000000000E+00 0. -1.
         21    1    1    2  503  502 -0.43637343365E+02 -0.14412915741E+02  0.58812347745E+02  0.74638074221E+02  0.00000000000E+00 0.  1.
</event>
<event>
 4    1  0.2293753E+005  0.2801808E+02  0.7546771E-02  0.1437641E+00
          2   -1    0    0  503    0  0.00000000000E+00  0.00000000000E+00  0.10394931279E+04  0.10394931279E+04  0.00000000000E+00 0.  1.
         21   -1    0    0  501  502 -0.00000000000E+00 -0.00000000000E+00 -0.76061371186E+00  0.76061371186E+00  0.00000000000E+00 0. -1.
          2    1    1    2  501    0 -0.11858406716E+02  0.25384861974E+02  0.56329455485E+03  0.56399092950E+03  0.00000000000E+00 0.  1.
         21    1    1    2  503  502  0.11858406716E+02 -0.25384861974E+02  0.47543795931E+03  0.47626281209E+03  0.00000000000E+00 0. -1.
</event>
<event>
 4    1  0.2293753E+005  0.3784870E+02  0.7546771E-02  0.1361575E+00
          2   -1    0    0  503    0  0.00000000000E+00  0.00000000000E+00  0.17382958485E+04  0.17382958485E+04  0.00000000000E+00 0.  1.
         21   -1    0    0  501  502 -0.00000000000E+00 -0.00000000000E+00 -0.36393703442E+01  0.36393703442E+01  0.00000000000E+00 0.  1.
          2    1    1    2  501    0  0.27155251686E+02 -0.26365058082E+02  0.16333642407E+04  0.16338027013E+04  0.00000000000E+00 0.  1.
         21    1    1    2  503  502 -0.27155251686E+02  0.26365058082E+02  0.10129223749E+03  0.10813251758E+03  0.00000000000E+00 0.  1.
</event>
<event>
 4    1  0.2293753E+005  0.2256081E+02  0.7546771E-02  0.1498088E+00
          2   -1    0    0  502    0  0.00000000000E+00  0.00000000000E+00  0.20265931704E+04  0.20265931704E+04  0.00000000000E+00 0. -1.
         21   -1    0    0  503  502 -0.00000000000E+00 -0.00000000000E+00 -0.35233911718E+00  0.35233911718E+00  0.00000000000E+00 0. -1.
          2    1    1    2  501    0 -0.22226128647E+02 -0.38716245203E+01  0.15562287692E+04  0.15563922939E+04  0.00000000000E+00 0. -1.
         21    1    1    2  503  501  0.22226128647E+02  0.38716245203E+01  0.47001206209E+03  0.47055321567E+03  0.00000000000E+00 0. -1.
</event>
<event>
 4    1  0.2293753E+005  0.3642918E+02  0.7546771E-02  0.1370785E+00
          2   -1    0    0  502    0  0.00000000000E+00  0.00000000000E+00  0.14637216494E+04  0.14637216494E+04  0.00000000000E+00 0.  1.
         21   -1    0    0  503  502 -0.00000000000E+00 -0.00000000000E+00 -0.41353750861E+01  0.41353750861E+01  0.00000000000E+00 0. -1.
          2    1    1    2  501    0  0.56481648221E+01  0.35988656288E+02  0.13782957832E+04  0.13787771217E+04  0.00000000000E+00 0.  1.
         21    1    1    2  503  501 -0.56481648221E+01 -0.35988656288E+02  0.81290491125E+02  0.89079902866E+02  0.00000000000E+00 0. -1.
</event>
<event>
 4    1  0.2293753E+005  0.2298221E+02  0.7546771E-02  0.1492722E+00
          2   -1    0    0  503    0  0.00000000000E+00  0.00000000000E+00  0.87894875961E+03  0.87894875961E+03  0.00000000000E+00 0. -1.
         21   -1    0    0  501  502 -0.00000000000E+00 -0.00000000000E+00 -0.61075305349E+00  0.61075305349E+00  0.00000000000E+00 0. -1.
          2    1    1    2  501    0 -0.26152984404E+01 -0.22832914236E+02  0.38337990248E+03  0.38406813378E+03  0.00000000000E+00 0. -1.
         21    1    1    2  503  502  0.26152984404E+01  0.22832914236E+02  0.49495810408E+03  0.49549137889E+03  0.00000000000E+00 0. -1.
</event>
<event>
 4    1  0.2293753E+005  0.3622780E+02  0.7546771E-02  0.1372131E+00
          2   -1    0    0  502    0  0.00000000000E+00  0.00000000000E+00  0.13573981148E+04  0.13573981148E+04  0.00000000000E+00 0. -1.
         21   -1    0    0  503  502 -0.00000000000E+00 -0.00000000000E+00 -0.18394824856E+01  0.18394824856E+01  0.00000000000E+00 0.  1.
          2    1    1    2  501    0  0.17660527004E+02  0.31631623254E+02  0.11458629391E+04  0.11464354884E+04  0.00000000000E+00 0. -1.
         21    1    1    2  503  501 -0.17660527004E+02 -0.31631623254E+02  0.20969569318E+03  0.21280210888E+03  0.00000000000E+00 0.  1.
</event>
<event>
 4    1  0.2293753E+005  0.2055386E+02  0.7546771E-02  0.1525731E+00
          2   -1    0    0  503    0  0.00000000000E+00  0.00000000000E+00  0.16576992739E+03  0.16576992739E+03  0.00000000000E+00 0.  1.
         21   -1    0    0  501  502 -0.00000000000E+00 -0.00000000000E+00 -0.22527626708E+02  0.22527626708E+02  0.00000000000E+00 0. -1.
          2    1    1    2  501    0  0.19416966756E+02  0.67410979562E+01  0.16028476917E+03  0.16159724078E+03  0.00000000000E+00 0.  1.
         21    1    1    2  503  502 -0.19416966756E+02 -0.67410979562E+01 -0.17042468482E+02  0.26700313324E+02  0.00000000000E+00 0. -1.
</event>
<event>
 4    1  0.2293753E+005  0.3404521E+02  0.7546771E-02  0.1387403E+00
          2   -1    0    0  503    0  0.00000000000E+00  0.00000000000E+00  0.59943962866E+03  0.59943962866E+03  0.00000000000E+00 0. -1.
         21   -1    0    0  501  502 -0.00000000000E+00 -0.00000000000E+00 -0.79387071899E+02  0.79387071899E+02  0.00000000000E+00 0.  1.
          2    1    1    2  501    0 -0.25697927307E+02  0.22331425453E+02  0.59528067017E+03  0.59625342960E+03  0.00000000000E+00 0. -1.
         21    1    1    2  503  502  0.25697927307E+02 -0.22331425453E+02 -0.75228113406E+02  0.82573270962E+02  0.00000000000E+00 0.  1.
</event>
<event>
 4    1  0.2293753E+005  0.2500330E+02  0.7546771E-02  0.1468766E+00
          2   -1    0    0  502    0  0.00000000000E+00  0.00000000000E+00  0.16393261961E+04  0.16393261961E+04  0.00000000000E+00 0.  1.
         21   -1    0    0  503  502 -0.00000000000E+00 -0.00000000000E+00 -0.13276963210E+02  0.13276963210E+02  0.00000000000E+00 0.  1.
          2    1    1    2  501    0  0.23473342340E+02 -0.86120490390E+01  0.16273727825E+04  0.16275648492E+04  0.00000000000E+00 0.  1.
         21    1    1    2  503  501 -0.23473342340E+02  0.86120490390E+01 -0.13235495996E+01  0.25038310102E+02  0.00000000000E+00 0.  1.
</event>
<event>
 4    1  0.2293753E+005  0.2474576E+02  0.7546771E-02  0.1471668E+00
          2   -1    0    0  502    0  0.00000000000E+00  0.00000000000E+00  0.11190261685E+04  0.11190261685E+04  0.00000000000E+00 0.  1.
         21   -1    0    0  503  502 -0.00000000000E+00 -0.00000000000E+00 -0.69186804423E+01  0.69186804423E+01  0.00000000000E+00 0. -1.
          2    1    1    2  501    0 -0.92696803181E+01  0.22943963791E+02  0.10963040411E+04  0.10965832859E+04  0.00000000000E+00 0.  1.
         21    1    1    2  503  501  0.92696803181E+01 -0.22943963791E+02  0.15803446988E+02  0.29361563043E+02  0.00000000000E+00 0. -1.
</event>
<event>
 4    1  0.2293753E+005  0.4162785E+02  0.7546771E-02  0.1339202E+00
          2   -1    0    0  502    0  0.00000000000E+00  0.00000000000E+00  0.25778183497E+04  0.25778183497E+04  0.00000000000E+00 0.  1.
         21   -1    0    0  503  502 -0.00000000000E+00 -0.00000000000E+00 -0.34768855559E+01  0.34768855559E+01  0.00000000000E+00 0.  1.
          2    1    1    2  501    0 -0.38472769311E+02  0.15897281640E+02  0.24463551414E+04  0.24467092911E+04  0.00000000000E+00 0.  1.
         21    1    1    2  503  501  0.38472769311E+02 -0.15897281640E+02  0.12798632278E+03  0.13458594414E+03  0.00000000000E+00 0.  1.
</event>
<event>
 4    1  0.2293753E+005  0.4480642E+02  0.7546771E-02  0.1322410E+00
          2   -1    0    0  502    0  0.00000000000E+00  0.00000000000E+00  0.10090283092E+04  0.10090283092E+04  0.00000000000E+00 0.  1.
         21   -1    0    0  503  502 -0.00000000000E+00 -0.00000000000E+00 -0.70229290787E+02  0.70229290787E+02  0.00000000000E+00 0.  1.
          2    1    1    2  501    0 -0.31991609712E+01 -0.44692060685E+02  0.10013293311E+04  0.10023313046E+04  0.00000000000E+00 0.  1.
         21    1    1    2  503  501  0.31991609712E+01  0.44692060685E+02 -0.62530312664E+02  0.76926295381E+02  0.00000000000E+00 0.  1.
</event>
<event>
 4    1  0.2293753E+005  0.2487011E+02  0.7546771E-02  0.1470262E+00
          2   -1    0    0  503    0  0.00000000000E+00  0.00000000000E+00  0.33813795271E+02  0.33813795271E+02  0.00000000000E+00 0.  1.
         21   -1    0    0  501  502 -0.00000000000E+00 -0.00000000000E+00 -0.18294668751E+02  0.18294668751E+02  0.00000000000E+00 0.  1.
          2    1    1    2  501    0  0.24331645272E+02 -0.51471638901E+01  0.80736948176E+01  0.26147787779E+02  0.00000000000E+00 0.  1.
         21    1    1    2  503  502 -0.24331645272E+02  0.51471638901E+01  0.74454317025E+01  0.25960676242E+02  0.00000000000E+00 0.  1.
</event>
<event>
 4    1  0.2293753E+005  0.2468953E+02  0.7546771E-02  0.1472307E+00
          2   -1    0    0  503    0  0.00000000000E+00  0.00000000000E+00  0.42588463207E+03  0.42588463207E+03  0.00000000000E+00 0. -1.
         21   -1    0    0  501  502 -0.00000000000E+00 -0.00000000000E+00 -0.46362588542E+03  0.46362588542E+03  0.00000000000E+00 0.  1.
          2    1    1    2  501    0  0.18002442071E+02  0.16896295514E+02  0.42519757541E+03  0.42591378336E+03  0.00000000000E+00 0. -1.
         21    1    1    2  503  502 -0.18002442071E+02 -0.16896295514E+02 -0.46293882876E+03  0.46359673413E+03  0.00000000000E+00 0.  1.
</event>
<event>
 4    1  0.2293753E+005  0.3873189E+02  0.7546771E-02  0.1356081E+00
          2   -1    0    0  502    0  0.00000000000E+00  0.00000000000E+00  0.26930647004E+04  0.26930647004E+04  0.00000000000E+00 0.  1.
         21   -1    0    0  503  502 -0.00000000000E+00 -0.00000000000E+00 -0.34077240727E+01  0.34077240727E+01  0.00000000000E+00 0. -1.
          2    1    1    2  501    0 -0.32098212805E+02 -0.21676347362E+02  0.25779557805E+04  0.25782467232E+04  0.00000000000E+00 0.  1.
         21    1    1    2  503  501  0.32098212805E+02  0.21676347362E+02  0.11170119582E+03  0.11822570130E+03  0.00000000000E+00 0. -1.
</event>
<event>
 4    1  0.2293753E+005  0.2657223E+02  0.7546771E-02  0.1451953E+00
          2   -1    0    0  502    0  0.00000000000E+00  0.00000000000E+00  0.47474232577E+03  0.47474232577E+03  0.00000000000E+00 0. -1.
         21   -1    0    0  503  502 -0.00000000000E+00 -0.00000000000E+00 -0.66547613621E+01  0.66547613621E+01  0.00000000000E+00 0.  1.
          2    1    1    2  501    0 -0.19572494555E+02 -0.17972220698E+02  0.44614635027E+03  0.44693696325E+03  0.00000000000E+00 0. -1.
         21    1    1    2  503  501  0.19572494555E+02  0.17972220698E+02  0.21941214131E+02  0.34460123875E+02  0.00000000000E+00 0.  1.
</event>
<event>
 4    1  0.2293753E+005  0.3035181E+02  0.7546771E-02  0.1416563E+00
          2   -1    0    0  503    0  0.00000000000E+00  0.00000000000E+00  0.35389535247E+02  0.35389535247E+02  0.00000000000E+00 0. -1.
         21   -1    0    0  501  502 -0.00000000000E+00 -0.00000000000E+00 -0.25445847056E+03  0.25445847056E+03  0.00000000000E+00 0. -1.
          2    1    1    2  501    0 -0.26421844582E+02 -0.14937151133E+02  0.27776691178E+02  0.41143370400E+02  0.00000000000E+00 0. -1.
         21    1    1    2  503  502  0.26421844582E+02  0.14937151133E+02 -0.24684562650E+03  0.24870463541E+03  0.00000000000E+00 0. -1.
</event>
<event>
 4    1  0.2293753E+005  0.5645254E+02  0.7546771E-02  0.1272386E+00
          2   -1    0    0  503    0  0.00000000000E+00  0.00000000000E+00  0.10030255383E+04  0.10030255383E+04  0.00000000000E+00 0. -1.
         21   -1    0    0  501  502 -0.00000000000E+00 -0.00000000000E+00 -0.75488789591E+02  0.75488789591E+02  0.00000000000E+00 0.  1.
          2    1    1    2  501    0 -0.41951838716E+02  0.37774756632E+02  0.99155504565E+03  0.99316076119E+03  0.00000000000E+00 0. -1.
         21    1    1    2  503  502  0.41951838716E+02 -0.37774756632E+02 -0.64018296926E+02  0.85353566718E+02  0.00000000000E+00 0.  1.
</event>
<event>
 4    1  0.2293753E+005  0.2115644E+02  0.7546771E-02  0.1517043E+00
          2   -1    0    0  503    0  0.00000000000E+00  0.00000000000E+00  0.51875507051E+01  0.51875507051E+01  0.00000000000E+00 0. -1.
         21   -1    0    0  501  502 -0.00000000000E+00 -0.00000000000E+00 -0.39341299326E+03  0.39341299326E+03  0.00000000000E+00 0.  1.
          2    1    1    2  501    0  0.91264941925E+01 -0.19086699128E+02 -0.18018545636E+02  0.27789619765E+02  0.00000000000E+00 0. -1.
         21    1    1    2  503  502 -0.91264941925E+01  0.19086699128E+02 -0.37020689691E+03  0.37081092420E+03  0.00000000000E+00 0.  1.
</event>
<event>
 4    1  0.2293753E+005  0.2734486E+02  0.7546771E-02  0.1444174E+00
          2   -1    0    0  503    0  0.00000000000E+00  0.00000000000E+00  0.19349078102E+04  0.19349078102E+04  0.00000000000E+00 0.  1.
         21   -1    0    0  501  502 -0.00000000000E+00 -0.00000000000E+00 -0.52370319925E+00  0.52370319925E+00  0.00000000000E+00 0.  1.
          2    1    1    2  501    0 -0.39302260788E+01  0.27060946340E+02  0.14626073419E+04  0.14628629389E+04  0.00000000000E+00 0.  1.
         21    1    1    2  503  502  0.39302260788E+01 -0.27060946340E+02  0.47177676512E+03  0.47256857449E+03  0.00000000000E+00 0.  1.
</event>
<event>
 4    1  0.2293753E+005  0.2630560E+02  0.7546771E-02  0.1454711E+00
          2   -1    0    0  503    0  0.00000000000E+00  0.00000000000E+00  0.47457990361E+01  0.47457990361E+01  0.00000000000E+00 0.  1.
         21   -1    0    0  501  502 -0.00000000000E+00 -0.00000000000E+00 -0.21444960070E+03  0.21444960070E+03  0.00000000000E+00 0.  1.
          2    1    1    2  501    0  0.26059842145E+02  0.35873593425E+01 -0.42846933254E+02  0.50277671077E+02  0.00000000000E+00 0.  1.
         21    1    1    2  503  502 -0.26059842145E+02 -0.35873593425E+01 -0.16685686841E+03  0.16891772866E+03  0.00000000000E+00 0.  1.
</event>
<event>
 4    1  0.2293753E+005  0.2070342E+02  0.7546771E-02  0.1523542E+00
          2   -1    0    0  503    0  0.00000000000E+00  0.00000000000E+00  0.55478573727E+03  0.55478573727E+03  0.00000000000E+00 0. -1.
         21   -1    0    0  501  502 -0.00000000000E+00 -0.00000000000E+00 -0.19546540115E+02  0.19546540115E+02  0.00000000000E+00 0.  1.
          2    1    1    2  501    0 -0.12216138603E+02 -0.16715192471E+02  0.54905317307E+03  0.54944337157E+03  0.00000000000E+00 0. -1.
         21    1    1    2  503  502  0.12216138603E+02  0.16715192471E+02 -0.13813975921E+02  0.24888905811E+02  0.00000000000E+00 0.  1.
</event>
<event>
 4    1  0.2293753E+005  0.2892485E+02  0.7546771E-02  0.1429175E+00
          2   -1    0    0  502    0  0.00000000000E+00  0.00000000000E+00  0.14775978552E+03  0.14775978552E+03  0.00000000000E+00 0.  1.
         21   -1    0    0  503  502 -0.00000000000E+00 -0.00000000000E+00 -0.36862585208E+02  0.36862585208E+02  0.00000000000E+00 0. -1.
          2    1    1    2  501    0  0.95052222259E+01 -0.27318447029E+02  0.14037473284E+03  0.14332380269E+03  0.00000000000E+00 0.  1.
         21    1    1    2  503  501 -0.95052222259E+01  0.27318447029E+02 -0.29477532531E+02  0.41298568035E+02  0.00000000000E+00 0. -1.
</event>
<event>
 4    1  0.2293753E+005  0.3831791E+02  0.7546771E-02  0.1358635E+00
          2   -1    0    0  503    0  0.00000000000E+00  0.00000000000E+00  0.17471408526E+03  0.17471408526E+03  0.00000000000E+00 0.  1.
         21   -1    0    0  501  502 -0.00000000000E+00 -0.00000000000E+00 -0.12853499801E+02  0.12853499801E+02  0.00000000000E+00 0.  1.
          2    1    1    2  501    0  0.36601011120E+02  0.11341437884E+02  0.13611038853E+03  0.14140120259E+03  0.00000000000E+00 0.  1.
         21    1    1    2  503  502 -0.36601011120E+02 -0.11341437884E+02  0.25750196925E+02  0.46166382466E+02  0.00000000000E+00 0.  1.
</event>
<event>
 4    1  0.2293753E+005  0.2278942E+02  0.7546771E-02  0.1495159E+00
          2   -1    0    0  503    0  0.00000000000E+00  0.00000000000E+00  0.58237626314E+02  0.58237626314E+02  0.00000000000E+00 0. -1.
         21   -1    0    0  501  502 -0.00000000000E+00 -0.00000000000E+00 -0.41766233349E+02  0.41766233349E+02  0.00000000000E+00 0.  1.
          2    1    1    2  501    0  0.90969874567E+01 -0.20895038530E+02  0.52579273734E+02  0.57305652796E+02  0.00000000000E+00 0. -1.
         21    1    1    2  503  502 -0.90969874567E+01  0.20895038530E+02 -0.36107880769E+02  0.42698206867E+02  0.00000000000E+00 0.  1.
</event>
<event>
 4    1  0.2293753E+005  0.2505906E+02  0.7546771E-02  0.1468144E+00
          2   -1    0    0  502    0  0.00000000000E+00  0.00000000000E+00  0.13297861514E+03  0.13297861514E+03  0.00000000000E+00 0. -1.
         21   -1    0    0  503  502 -0.00000000000E+00 -0.00000000000E+00 -0.57576440652E+01  0.57576440652E+01  0.00000000000E+00 0. -1.
          2    1    1    2  501    0  0.22975610439E+02 -0.10003883815E+02  0.93027148747E+02  0.96343171893E+02  0.00000000000E+00 0. -1.
         21    1    1    2  503  501 -0.22975610439E+02  0.10003883815E+02  0.34193822324E+02  0.42393087308E+02  0.00000000000E+00 0. -1.
</event>
<event>
 4    1  0.2293753E+005  0.6859690E+02  0.7546771E-02  0.1233124E+00
          2   -1    0    0  503    0  0.00000000000E+00  0.00000000000E+00  0.90939526405E+03  0.90939526405E+03  0.00000000000E+00 0.  1.
         21   -1    0    0  501  502 -0.00000000000E+00 -0.00000000000E+00 -0.52022017941E+01  0.52022017941E+01  0.00000000000E+00 0.  1.
          2    1    1    2  501    0  0.67662312792E+02 -0.11284762136E+02  0.48555374240E+03  0.49037533705E+03  0.00000000000E+00 0.  1.
         21    1    1    2  503  502 -0.67662312792E+02  0.11284762136E+02  0.41863931986E+03  0.42422212880E+03  0.00000000000E+00 0.  1.
</event>
<event>
 4    1  0.2293753E+005  0.5963310E+02  0.7546771E-02  0.1261084E+00
          2   -1    0    0  503    0  0.00000000000E+00  0.00000000000E+00  0.10007438508E+04  0.10007438508E+04  0.00000000000E+00 0.  1.
         21   -1    0    0  501  502 -0.00000000000E+00 -0.00000000000E+00 -0.16595992513E+03  0.16595992513E+03  0.00000000000E+00 0. -1.
          2    1    1    2  501    0 -0.59630727749E+02  0.53142207734E+00  0.99446481751E+03  0.99625116280E+03  0.00000000000E+00 0.  1.
         21    1    1    2  503  502  0.59630727749E+02 -0.53142207734E+00 -0.15968089184E+03  0.17045261312E+03  0.00000000000E+00 0. -1.
</event>
<event>
 4    1  0.2293753E+005  0.2281420E+02  0.7546771E-02  0.1494845E+00
          2   -1    0    0  502    0  0.00000000000E+00  0.00000000000E+00  0.63922176983E+03  0.63922176983E+03  0.00000000000E+00 0.  1.
         21   -1    0    0  503  502 -0.00000000000E+00 -0.00000000000E+00 -0.86844728722E+00  0.86844728722E+00  0.00000000000E+00 0. -1.
          2    1    1    2  501    0 -0.40519874919E+01 -0.22451484346E+02  0.39912681430E+03  0.39977831563E+03  0.00000000000E+00 0.  1.
         21    1    1    2  503  501  0.40519874919E+01  0.22451484346E+02  0.23922650824E+03  0.24031190149E+03  0.00000000000E+00 0. -1.
</event>
<event>
 4    1  0.2293753E+005  0.3543929E+02  0.7546771E-02  0.1377501E+00
          2   -1    0    0  502    0  0.00000000000E+00  0.00000000000E+00  0.17729393929E+04  0.17729393929E+04  0.00000000000E+00 0. -1.
         21   -1    0    0  503  502 -0.00000000000E+00 -0.00000000000E+00 -0.15114516135E+01  0.15114516135E+01  0.00000000000E+00 0.  1.
          2    1    1    2  501    0  0.33105675091E+02 -0.12647420182E+02  0.15324241500E+04  0.15328338848E+04  0.00000000000E+00 0. -1.
         21    1    1    2  503  501 -0.33105675091E+02  0.12647420182E+02  0.23900379130E+03  0.24161695970E+03  0.00000000000E+00 0.  1.
</event>
<event>
 4    1  0.2293753E+005  0.2574344E+02  0.7546771E-02  0.1460656E+00
          2   -1    0    0  502    0  0.00000000000E+00  0.00000000000E+00  0.60547842019E+03  0.60547842019E+03  0.00000000000E+00 0. -1.
         21   -1    0    0  503  502 -0.00000000000E+00 -0.00000000000E+00 -0.18628930524E+01  0.18628930524E+01  0.00000000000E+00 0. -1.
          2    1    1    2  501    0 -0.32198568933E+01 -0.25541281345E+02  0.49683143404E+03  0.49749793806E+03  0.00000000000E+00 0. -1.
         21    1    1    2  503  501  0.32198568933E+01  0.25541281345E+02  0.10678409310E+03  0.10984337517E+03  0.00000000000E+00 0. -1.
</event>
<event>
 4    1  0.2293753E+005  0.4601069E+02  0.7546771E-02  0.1316462E+00
          2   -1    0    0  502    0  0.00000000000E+00  0.00000000000E+00  0.54389724683E+03  0.54389724683E+03  0.00000000000E+00 0. -1.
         21   -1    0    0  503  502 -0.00000000000E+00 -0.00000000000E+00 -0.17051154411E+02  0.17051154411E+02  0.00000000000E+00 0.  1.
          2    1    1    2  501    0  0.10388557417E+02  0.44822552562E+02  0.50981465489E+03  0.51188667269E+03  0.00000000000E+00 0. -1.
         21    1    1    2  503  501 -0.10388557417E+02 -0.44822552562E+02  0.17031437529E+02  0.49061728544E+02  0.00000000000E+00 0.  1.
</event>
<event>
 4    1  0.2293753E+005  0.2107414E+02  0.7546771E-02  0.1518209E+00
          2   -1    0    0  503    0  0.00000000000E+00  0.00000000000E+00  0.10986554997E+03  0.10986554997E+03  0.00000000000E+00 0. -1.
         21   -1    0    0  501  502 -0.00000000000E+00 -0.00000000000E+00 -0.17934775830E+02  0.17934775830E+02  0.00000000000E+00 0. -1.
          2    1    1    2  501    0  0.53580416181E+01  0.20381633000E+02  0.10220500771E+03  0.10435508217E+03  0.00000000000E+00 0. -1.
         21    1    1    2  503  502 -0.53580416181E+01 -0.20381633000E+02 -0.10274233565E+02  0.23445243634E+02  0.00000000000E+00 0. -1.
</event>
<event>
 4    1  0.2293753E+005  0.4032067E+02  0.7546771E-02  0.1346617E+00
          2   -1    0    0  503    0  0.00000000000E+00  0.00000000000E+00  0.39777370971E+03  0.39777370971E+03  0.00000000000E+00 0.  1.
         21   -1    0    0  501  502 -0.00000000000E+00 -0.00000000000E+00 -0.10572165151E+02  0.10572165151E+02  0.00000000000E+00 0.  1.
          2    1    1    2  501    0  0.28996802492E+02  0.28016808960E+02  0.35350947462E+03  0.35580149632E+03  0.00000000000E+00 0.  1.
         21    1    1    2  503  502 -0.28996802492E+02 -0.28016808960E+02  0.33692069936E+02  0.52544378535E+02  0.00000000000E+00 0.  1.
</event>
<event>
 4    1  0.2293753E+005  0.3654050E+02  0.7546771E-02  0.1370045E+00
          2   -1    0    0  503    0  0.00000000000E+00  0.00000000000E+00  0.64187505409E+03  0.64187505409E+03  0.00000000000E+00 0. -1.
         21   -1    0    0  501  502 -0.00000000000E+00 -0.00000000000E+00 -0.25334121300E+01  0.25334121300E+01  0.00000000000E+00 0. -1.
          2    1    1    2  501    0  0.32352785336E+02  0.16985455316E+02  0.45595456842E+03  0.45741641517E+03  0.00000000000E+00 0. -1.
         21    1    1    2  503  502 -0.32352785336E+02 -0.16985455316E+02  0.18338707354E+03  0.18699205104E+03  0.00000000000E+00 0. -1.
</event>
<event>
 4    1  0.2293753E+005  0.3165541E+02  0.7546771E-02  0.1405736E+00
          2   -1    0    0  502    0  0.00000000000E+00  0.00000000000E+00  0.19710455193E+04  0.19710455193E+04  0.00000000000E+00 0. -1.
         21   -1    0    0  503  502 -0.00000000000E+00 -0.00000000000E+00 -0.31000396301E+01  0.31000396301E+01  0.00000000000E+00 0. -1.
          2    1    1    2  501    0  0.27102129036E+02  0.16356632768E+02  0.18864857767E+04  0.18867513484E+04  0.00000000000E+00 0. -1.
         21    1    1    2  503  501 -0.27102129036E+02 -0.16356632768E+02  0.81459702970E+02  0.87394210573E+02  0.00000000000E+00 0. -1.
</event>
<event>
 4    1  0.2293753E+005  0.3450436E+02  0.7546771E-02  0.1384082E+00
          2   -1    0    0  503    0  0.00000000000E+00  0.00000000000E+00  0.19727450781E+04  0.19727450781E+04  0.00000000000E+00 0.  1.
         21   -1    0    0  501  502 -0.00000000000E+00 -0.00000000000E+00 -0.63121362410E+01  0.63121362410E+01  0.00000000000E+00 0.  1.
          2    1    1    2  501    0 -0.24315340479E+02  0.24480906242E+02  0.19242527754E+04  0.19245621045E+04  0.00000000000E+00 0.  1.
         21    1    1    2  503  502  0.24315340479E+02 -0.24480906242E+02  0.42180166543E+02  0.54495109896E+02  0.00000000000E+00 0.  1.
</event>
<event>
 4    1  0.2293753E+005  0.2116867E+02  0.7546771E-02  0.1516870E+00
          2   -1    0    0  503    0  0.00000000000E+00  0.00000000000E+00  0.29393304132E+02  0.29393304132E+02  0.00000000000E+00 0.  1.
         21   -1    0    0  501  502 -0.00000000000E+00 -0.00000000000E+00 -0.14714925286E+03  0.14714925286E+03  0.00000000000E+00 0. -1.
          2    1    1    2  501    0 -0.69811694845E+01  0.19984391428E+02  0.24695629388E+02  0.32526708087E+02  0.00000000000E+00 0.  1.
         21    1    1    2  503  502  0.69811694845E+01 -0.19984391428E+02 -0.14245157811E+03  0.14401584890E+03  0.00000000000E+00 0. -1.
</event>
<event>
 4    1  0.2293753E+005  0.2060630E+02  0.7546771E-02  0.1524961E+00
          2   -1    0    0  502    0  0.00000000000E+00  0.00000000000E+00  0.30538658226E+01  0.30538658226E+01  0.00000000000E+00 0. -1.
         21   -1    0    0  503  502 -0.00000000000E+00 -0.00000000000E+00 -0.56303033385E+03  0.56303033385E+03  0.00000000000E+00 0. -1.
          2    1    1    2  501    0  0.21371009333E+01  0.20495177839E+02 -0.34369527663E+02  0.40073481840E+02  0.00000000000E+00 0. -1.
         21    1    1    2  503  501 -0.21371009333E+01 -0.20495177839E+02 -0.52560694037E+03  0.52601071784E+03  0.00000000000E+00 0. -1.
</event>
<event>
 4    1  0.2293753E+005  0.3736507E+02  0.7546771E-02  0.1364659E+00
          2   -1    0    0  503    0  0.00000000000E+00  0.00000000000E+00  0.14789284129E+04  0.14789284129E+04  0.00000000000E+00 0.  1.
         21   -1    0    0  501  502 -0.00000000000E+00 -0.00000000000E+00 -0.18768786757E+03  0.18768786757E+03  0.00000000000E+00 0.  1.
          2    1    1    2  501    0 -0.27384306808E+02 -0.25421413704E+02  0.14768300963E+04  0.14773027048E+04  0.00000000000E+00 0.  1.
         21    1    1    2  503  502  0.27384306808E+02  0.25421413704E+02 -0.18558955088E+03  0.18931357566E+03  0.00000000000E+00 0.  1.
</event>
<event>
 4    1  0.2293753E+005  0.3973569E+02  0.7546771E-02  0.1350042E+00
          2   -1    0    0  503    0  0.00000000000E+00  0.00000000000E+00  0.98165462985E+03  0.98165462985E+03  0.00000000000E+00 0.  1.
         21   -1    0    0  501  502 -0.00000000000E+00 -0.00000000000E+00 -0.17842112950E+01  0.17842112950E+01  0.00000000000E+00 0.  1.
          2    1    1    2  501    0  0.39598635529E+02  0.32974115672E+01  0.64427499855E+03  0.64549918560E+03  0.00000000000E+00 0.  1.
         21    1    1    2  503  502 -0.39598635529E+02 -0.32974115672E+01  0.33559542001E+03  0.33793965554E+03  0.00000000000E+00 0.  1.
</event>
<event>
 4    1  0.2293753E+005  0.2061290E+02  0.7546771E-02  0.1524864E+00
          2   -1    0    0  502    0  0.00000000000E+00  0.00000000000E+00  0.14541752549E+04  0.14541752549E+04  0.00000000000E+00 0. -1.
         21   -1    0    0  503  502 -0.00000000000E+00 -0.00000000000E+00 -0.11894559805E+02  0.11894559805E+02  0.00000000000E+00 0. -1.
          2    1    1    2  501    0 -0.85710730914E+01  0.18746423605E+02  0.14451158479E+04  0.14452628500E+04  0.00000000000E+00 0. -1.
         21    1    1    2  503  501  0.85710730914E+01 -0.18746423605E+02 -0.28351527531E+01  0.20806964773E+02  0.00000000000E+00 0. -1.
</event>
<event>
 4    1  0.2293753E+005  0.2136529E+02  0.7546771E-02  0.1514113E+00
          2   -1    0    0  503    0  0.00000000000E+00  0.00000000000E+00  0.49630722994E+01  0.49630722994E+01  0.00000000000E+00 0.  1.
         21   -1    0    0  501  502 -0.00000000000E+00 -0.00000000000E+00 -0.19654360767E+03  0.19654360767E+03  0.00000000000E+00 0.  1.
          2    1    1    2  501    0  0.35426229225E+01  0.21069536560E+02 -0.22299646326E+02  0.30882839479E+02  0.00000000000E+00 0.  1.
         21    1    1    2  503  502 -0.35426229225E+01 -0.21069536560E+02 -0.16928088905E+03  0.17062384049E+03  0.00000000000E+00 0.  1.
</event>
<event>
 4    1  0.2293753E+005  0.2872948E+02  0.7546771E-02  0.1430968E+00
          2   -1    0    0  502    0  0.00000000000E+00  0.00000000000E+00  0.20947322967E+03  0.20947322967E+03  0.00000000000E+00 0. -1.
         21   -1    0    0  503  502 -0.00000000000E+00 -0.00000000000E+00 -0.93214612698E+01  0.93214612698E+01  0.00000000000E+00 0.  1.
          2    1    1    2  501    0  0.28580916325E+02 -0.29178886270E+01  0.18319552502E+03  0.18543457940E+03  0.00000000000E+00 0. -1.
         21    1    1    2  503  501 -0.28580916325E+02  0.29178886270E+01  0.16956243380E+02  0.33360111534E+02  0.00000000000E+00 0.  1.
</event>
<event>
 4    1  0.2293753E+005  0.2490195E+02  0.7546771E-02  0.1469903E+00
          2   -1    0    0  502    0  0.00000000000E+00  0.00000000000E+00  0.42762815044E+01  0.42762815044E+01  0.00000000000E+00 0.  1.
         21   -1    0    0  503  502 -0.00000000000E+00 -0.00000000000E+00 -0.41519064186E+03  0.41519064186E+03  0.00000000000E+00 0.  1.
          2    1    1    2  501    0 -0.14378671957E+02  0.20331274416E+02 -0.36268838898E+02  0.43994722429E+02  0.00000000000E+00 0.  1.
         21    1    1    2  503  501  0.14378671957E+02 -0.20331274416E+02 -0.37464552146E+03  0.37547220093E+03  0.00000000000E+00 0.  1.
</event>
<event>
 4    1  0.2293753E+005  0.2065403E+02  0.7546771E-02  0.1524262E+00
          2   -1    0    0  502    0  0.00000000000E+00  0.00000000000E+00  0.72711174400E+02  0.72711174400E+02  0.00000000000E+00 0. -1.
         21   -1    0    0  503  502 -0.00000000000E+00 -0.00000000000E+00 -0.98025275639E+02  0.98025275639E+02  0.00000000000E+00 0.  1.
          2    1    1    2  501    0 -0.15095970558E+02  0.14096125380E+02  0.70117079394E+02  0.73095785792E+02  0.00000000000E+00 0. -1.
         21    1    1    2  503  501  0.15095970558E+02 -0.14096125380E+02 -0.95431180632E+02  0.97640664247E+02  0.00000000000E+00 0.  1.
</event>
<event>
 4    1  0.2293753E+005  0.2009431E+02  0.7546771E-02  0.1532599E+00
          2   -1    0    0  503    0  0.00000000000E+00  0.00000000000E+00  0.10412831633E+03  0.10412831633E+03  0.00000000000E+00 0.  1.
         21   -1    0    0  501  502 -0.00000000000E+00 -0.00000000000E+00 -0.19378895504E+02  0.19378895504E+02  0.00000000000E+00 0.  1.
          2    1    1    2  501    0 -0.18710717867E+02  0.73273725694E+01  0.97605341735E+02  0.99652316015E+02  0.00000000000E+00 0.  1.
         21    1    1    2  503  502  0.18710717867E+02 -0.73273725694E+01 -0.12855920913E+02  0.23854895816E+02  0.00000000000E+00 0.  1.
</event>
<event>
 4    1  0.2293753E+005  0.2220492E+02  0.7546771E-02  0.1502731E+00
          2   -1    0    0  502    0  0.00000000000E+00  0.00000000000E+00  0.42491198598E+03  0.42491198598E+03  0.00000000000E+00 0.  1.
         21   -1    0    0  503  502 -0.00000000000E+00 -0.00000000000E+00 -0.12635973100E+02  0.12635973100E+02  0.00000000000E+00 0.  1.
          2    1    1    2  501    0  0.12828523957E+02  0.18124225585E+02  0.41462498043E+03  0.41521913850E+03  0.00000000000E+00 0.  1.
         21    1    1    2  503  501 -0.12828523957E+02 -0.18124225585E+02 -0.23489675496E+01  0.22328820580E+02  0.00000000000E+00 0.  1.
</event>
<event>
 4    1  0.2293753E+005  0.4776088E+02  0.7546771E-02  0.1308184E+00
          2   -1    0    0  503    0  0.00000000000E+00  0.00000000000E+00  0.49605601279E+03  0.49605601279E+03  0.00000000000E+00 0.  1.
         21   -1    0    0  501  502 -0.00000000000E+00 -0.00000000000E+00 -0.46003302882E+01  0.46003302882E+01  0.00000000000E+00 0.  1.
          2    1    1    2  501    0  0.65896333442E+01 -0.47304109486E+02  0.25075260812E+03  0.25526059728E+03  0.00000000000E+00 0.  1.
         21    1    1    2  503  502 -0.65896333442E+01  0.47304109486E+02  0.24070307438E+03  0.24539574580E+03  0.00000000000E+00 0.  1.
</event>
<event>
 4    1  0.2293753E+005  0.2355442E+02  0.7546771E-02  0.1485651E+00
          2   -1    0    0  502    0  0.00000000000E+00  0.00000000000E+00  0.23265901406E+03  0.23265901406E+03  0.00000000000E+00 0. -1.
         21   -1    0    0  503  502 -0.00000000000E+00 -0.00000000000E+00 -0.18534927545E+03  0.18534927545E+03  0.00000000000E+00 0. -1.
          2    1    1    2  501    0  0.16563638677E+02  0.16746835357E+02  0.23131016747E+03  0.23250635302E+03  0.00000000000E+00 0. -1.
         21    1    1    2  503  501 -0.16563638677E+02 -0.16746835357E+02 -0.18400042886E+03  0.18550193649E+03  0.00000000000E+00 0. -1.
</event>
<event>
 4    1  0.2293753E+005  0.2082441E+02  0.7546771E-02  0.1521787E+00
          2   -1    0    0  502    0  0.00000000000E+00  0.00000000000E+00  0.26915596964E+02  0.26915596964E+02  0.00000000000E+00 0.  1.
         21   -1    0    0  503  502 -0.00000000000E+00 -0.00000000000E+00 -0.16207251793E+02  0.16207251793E+02  0.00000000000E+00 0.  1.
          2    1    1    2  501    0  0.10496398798E+01 -0.20797937700E+02  0.36986014477E+01  0.21150309906E+02  0.00000000000E+00 0.  1.
         21    1    1    2  503  501 -0.10496398798E+01  0.20797937700E+02  0.70097437237E+01  0.21972538850E+02  0.00000000000E+00 0.  1.
</event>
<event>
 4    1  0.2293753E+005  0.2247355E+02  0.7546771E-02  0.1499217E+00
          2   -1    0    0  502    0  0.00000000000E+00  0.00000000000E+00  0.10889665821E+03  0.10889665821E+03  0.00000000000E+00 0. -1.
         21   -1    0    0  503  502 -0.00000000000E+00 -0.00000000000E+00 -0.12385379941E+02  0.12385379941E+02  0.00000000000E+00 0. -1.
          2    1    1    2  501    0  0.22145979312E+02  0.38231231544E+01  0.96216809699E+02  0.98806554130E+02  0.00000000000E+00 0. -1.
         21    1    1    2  503  501 -0.22145979312E+02 -0.38231231544E+01  0.29446857279E+00  0.22475484023E+02  0.00000000000E+00 0. -1.
</event>
<event>
 4    1  0.2293753E+005  0.2689885E+02  0.7546771E-02  0.1448627E+00
          2   -1    0    0  502    0  0.00000000000E+00  0.00000000000E+00  0.16646129156E+04  0.16646129156E+04  0.00000000000E+00 0. -1.
         21   -1    0    0  503  502 -0.00000000000E+00 -0.00000000000E+00 -0.24618444500E+01  0.24618444500E+01  0.00000000000E+00 0. -1.
          2    1    1    2  501    0 -0.26774856828E+02  0.25797974166E+01  0.15874570670E+04  0.15876849460E+04  0.00000000000E+00 0. -1.
         21    1    1    2  503  501  0.26774856828E+02 -0.25797974166E+01  0.74694004175E+02  0.79389814036E+02  0.00000000000E+00 0. -1.
</event>
<event>
 4    1  0.2293753E+005  0.3047369E+02  0.7546771E-02  0.1415524E+00
          2   -1    0    0  502    0  0.00000000000E+00  0.00000000000E+00  0.94886909633E+01  0.94886909633E+01  0.00000000000E+00 0. -1.
         21   -1    0    0  503  502 -0.00000000000E+00 -0.00000000000E+00 -0.16399927787E+04  0.16399927787E+04  0.00000000000E+00 0.  1.
          2    1    1    2  501    0 -0.28713230712E+02  0.10207653462E+02 -0.15498566195E+02  0.34188468249E+02  0.00000000000E+00 0. -1.
         21    1    1    2  503  501  0.28713230712E+02 -0.10207653462E+02 -0.16150055215E+04  0.16152930014E+04  0.00000000000E+00 0.  1.
</event>
<event>
 4    1  0.2293753E+005  0.2230081E+02  0.7546771E-02  0.1501470E+00
          2   -1    0    0  503    0  0.00000000000E+00  0.00000000000E+00  0.46064188825E+03  0.46064188825E+03  0.00000000000E+00 0. -1.
         21   -1    0    0  501  502 -0.00000000000E+00 -0.00000000000E+00 -0.36336024581E+02  0.36336024581E+02  0.00000000000E+00 0.  1.
          2    1    1    2  501    0 -0.12021754782E+02  0.18783062817E+02  0.45692242727E+03  0.45746631633E+03  0.00000000000E+00 0. -1.
         21    1    1    2  503  502  0.12021754782E+02 -0.18783062817E+02 -0.32616563600E+02  0.39511596499E+02  0.00000000000E+00 0.  1.
</event>
<event>
 4    1  0.2293753E+005  0.2058736E+02  0.7546771E-02  0.1525239E+00
          2   -1    0    0  502    0  0.00000000000E+00  0.00000000000E+00  0.16213821961E+02  0.16213821961E+02  0.00000000000E+00 0.  1.
         21   -1    0    0  503  502 -0.00000000000E+00 -0.00000000000E+00 -0.31590723346E+02  0.31590723346E+02  0.00000000000E+00 0.  1.
          2    1    1    2  501    0 -0.83995856891E+01  0.18795911422E+02  0.22395514012E+01  0.20708812530E+02  0.00000000000E+00 0.  1.
         21    1    1    2  503  501  0.83995856891E+01 -0.18795911422E+02 -0.17616452786E+02  0.27095732777E+02  0.00000000000E+00 0.  1.
</event>
<event>
 4    1  0.2293753E+005  0.2181070E+02  0.7546771E-02  0.1507998E+00
          2   -1    0    0  503    0  0.00000000000E+00  0.00000000000E+00  0.13560224708E+02  0.13560224708E+02  0.00000000000E+00 0. -1.
         21   -1    0    0  501  502 -0.00000000000E+00 -0.00000000000E+00 -0.11869316257E+03  0.11869316257E+03  0.00000000000E+00 0.  1.
          2    1    1    2  501    0 -0.15419076939E+02 -0.15425914550E+02  0.29342468362E+01  0.22007193775E+02  0.00000000000E+00 0. -1.
         21    1    1    2  503  502  0.15419076939E+02  0.15425914550E+02 -0.10806718470E+03  0.11024619351E+03  0.00000000000E+00 0.  1.
</event>
<event>
 4    1  0.2293753E+005  0.2421584E+02  0.7546771E-02  0.1477770E+00
          2   -1    0    0  503    0  0.00000000000E+00  0.00000000000E+00  0.15754260378E+03  0.15754260378E+03  0.00000000000E+00 0.  1.
         21   -1    0    0  501  502 -0.00000000000E+00 -0.00000000000E+00 -0.46500099858E+01  0.46500099858E+01  0.00000000000E+00 0.  1.
          2    1    1    2  501    0 -0.24061534537E+02  0.27294003634E+01  0.11267065495E+03  0.11524358358E+03  0.00000000000E+00 0.  1.
         21    1    1    2  503  502  0.24061534537E+02 -0.27294003634E+01  0.40221938850E+02  0.46949030186E+02  0.00000000000E+00 0.  1.
</event>
<event>
 4    1  0.2293753E+005  0.2105100E+02  0.7546771E-02  0.1518538E+00
          2   -1    0    0  503    0  0.00000000000E+00  0.00000000000E+00  0.10545763813E+02  0.10545763813E+02  0.00000000000E+00 0.  1.
         21   -1    0    0  501  502 -0.00000000000E+00 -0.00000000000E+00 -0.83088434718E+02  0.83088434718E+02  0.00000000000E+00 0. -1.
          2    1    1    2  501    0  0.20212706140E+02  0.58814353228E+01 -0.33572051458E+01  0.21317025997E+02  0.00000000000E+00 0.  1.
         21    1    1    2  503  502 -0.20212706140E+02 -0.58814353228E+01 -0.69185465760E+02  0.72317172534E+02  0.00000000000E+00 0. -1.
</event>
<event>
 4    1  0.2293753E+005  0.2271839E+02  0.7546771E-02  0.1496065E+00
          2   -1    0    0  503    0  0.00000000000E+00  0.00000000000E+00  0.71893847803E+01  0.71893847803E+01  0.00000000000E+00 0.  1.
         21   -1    0    0  501  502 -0.00000000000E+00 -0.00000000000E+00 -0.14407216202E+03  0.14407216202E+03  0.00000000000E+00 0. -1.
          2    1    1    2  501    0 -0.20532865587E+02  0.97224939820E+01 -0.14871064954E+02  0.27152790488E+02  0.00000000000E+00 0.  1.
         21    1    1    2  503  502  0.20532865587E+02 -0.97224939820E+01 -0.12201171228E+03  0.12410875631E+03  0.00000000000E+00 0. -1.
</event>
<event>
 4    1  0.2293753E+005  0.2524591E+02  0.7546771E-02  0.1466071E+00
          2   -1    0    0  502    0  0.00000000000E+00  0.00000000000E+00  0.27884310050E+03  0.27884310050E+03  0.00000000000E+00 0. -1.
         21   -1    0    0  503  502 -0.00000000000E+00 -0.00000000000E+00 -0.10441182560E+02  0.10441182560E+02  0.00000000000E+00 0.  1.
          2    1    1    2  501    0 -0.23527460983E+02 -0.91550377102E+01  0.26203437788E+03  0.26324773755E+03  0.00000000000E+00 0. -1.
         21    1    1    2  503  501  0.23527460983E+02  0.91550377102E+01  0.63675400650E+01  0.26036545513E+02  0.00000000000E+00 0.  1.
</event>
<event>
 4    1  0.2293753E+005  0.2254596E+02  0.7546771E-02  0.1498280E+00
          2   -1    0    0  502    0  0.00000000000E+00  0.00000000000E+00  0.75416988863E+03  0.75416988863E+03  0.00000000000E+00 0. -1.
         21   -1    0    0  503  502 -0.00000000000E+00 -0.00000000000E+00 -0.12188368042E+01  0.12188368042E+01  0.00000000000E+00 0.  1.
          2    1    1    2  501    0  0.22414803970E+02 -0.24283221645E+01  0.62899555194E+03  0.62939949519E+03  0.00000000000E+00 0. -1.
         21    1    1    2  503  501 -0.22414803970E+02  0.24283221645E+01  0.12395549989E+03  0.12598923025E+03  0.00000000000E+00 0.  1.
</event>
<event>
 4    1  0.2293753E+005  0.4745045E+02  0.7546771E-02  0.1309622E+00
          2   -1    0    0  503    0  0.00000000000E+00  0.00000000000E+00  0.47385511290E+02  0.47385511290E+02  0.00000000000E+00 0.  1.
         21   -1    0    0  501  502 -0.00000000000E+00 -0.00000000000E+00 -0.55115166670E+02  0.55115166670E+02  0.00000000000E+00 0. -1.
          2    1    1    2  501    0 -0.43370546163E+02  0.19249443004E+02  0.15166058555E+02  0.49815205133E+02  0.00000000000E+00 0.  1.
         21    1    1    2  503  502  0.43370546163E+02 -0.19249443004E+02 -0.22895713934E+02  0.52685472826E+02  0.00000000000E+00 0. -1.
</event>
<event>
 4    1  0.2293753E+005  0.3064078E+02  0.7546771E-02  0.1414108E+00
          2   -1    0    0  502    0  0.00000000000E+00  0.00000000000E+00  0.18479418787E+04  0.18479418787E+04  0.00000000000E+00 0. -1.
         21   -1    0    0  503  502 -0.00000000000E+00 -0.00000000000E+00 -0.11090047295E+02  0.11090047295E+02  0.00000000000E+00 0. -1.
          2    1    1    2  501    0 -0.19175206080E+02 -0.23899137257E+02  0.18264008527E+04  0.18266578585E+04  0.00000000000E+00 0. -1.
         21    1    1    2  503  501  0.19175206080E+02  0.23899137257E+02  0.10450978700E+02  0.32374067487E+02  0.00000000000E+00 0. -1.
</event>
<event>
 4    1  0.2293753E+005  0.2314214E+02  0.7546771E-02  0.1490721E+00
          2   -1    0    0  502    0  0.00000000000E+00  0.00000000000E+00  0.15454546959E+04  0.15454546959E+04  0.00000000000E+00 0. -1.
         21   -1    0    0  503  502 -0.00000000000E+00 -0.00000000000E+00 -0.43240272830E+00  0.43240272830E+00  0.00000000000E+00 0. -1.
          2    1    1    2  501    0 -0.10623836371E+01  0.23117739905E+02  0.11169493599E+04  0.11171890758E+04  0.00000000000E+00 0. -1.
         21    1    1    2  503  501  0.10623836371E+01 -0.23117739905E+02  0.42807293328E+03  0.42869802281E+03  0.00000000000E+00 0. -1.
</event>
<event>
 4    1  0.2293753E+005  0.3247230E+02  0.7546771E-02  0.1399261E+00
          2   -1    0    0  503    0  0.00000000000E+00  0.00000000000E+00  0.18878205148E+03  0.18878205148E+03  0.00000000000E+00 0. -1.
         21   -1    0    0  501  502 -0.00000000000E+00 -0.00000000000E+00 -0.33635539905E+03  0.33635539905E+03  0.00000000000E+00 0. -1.
          2    1    1    2  501    0  0.57597585004E+01  0.31957402129E+02  0.18659280655E+03  0.18939726985E+03  0.00000000000E+00 0. -1.
         21    1    1    2  503  502 -0.57597585004E+01 -0.31957402129E+02 -0.33416615412E+03  0.33574018069E+03  0.00000000000E+00 0. -1.
</event>
<event>
 4    1  0.2293753E+005  0.2552473E+02  0.7546771E-02  0.1463018E+00
          2   -1    0    0  502    0  0.00000000000E+00  0.00000000000E+00  0.14534820248E+04  0.14534820248E+04  0.00000000000E+00 0.  1.
         21   -1    0    0  503  502 -0.00000000000E+00 -0.00000000000E+00 -0.23226999408E+01  0.23226999408E+01  0.00000000000E+00 0. -1.
          2    1    1    2  501    0  0.25430178600E+02 -0.21949105005E+01  0.13794843195E+04  0.13797204425E+04  0.00000000000E+00 0.  1.
         21    1    1    2  503  501 -0.25430178600E+02  0.21949105005E+01  0.71675005349E+02  0.76084282264E+02  0.00000000000E+00 0. -1.
</event>
<event>
 4    1  0.2293753E+005  0.2461315E+02  0.7546771E-02  0.1473178E+00
          2   -1    0    0  503    0  0.00000000000E+00  0.00000000000E+00  0.12059239324E+04  0.12059239324E+04  0.00000000000E+00 0. -1.
         21   -1    0    0  501  502 -0.00000000000E+00 -0.00000000000E+00 -0.11113829220E+01  0.11113829220E+01  0.00000000000E+00 0.  1.
          2    1    1    2  501    0  0.12902105461E+02  0.20960503575E+02  0.10491672296E+04  0.10494558984E+04  0.00000000000E+00 0. -1.
         21    1    1    2  503  502 -0.12902105461E+02 -0.20960503575E+02  0.15564531992E+03  0.15757941696E+03  0.00000000000E+00 0.  1.
</event>
<event>
 4    1  0.2293753E+005  0.2224330E+02  0.7546771E-02  0.1502225E+00
          2   -1    0    0  502    0  0.00000000000E+00  0.00000000000E+00  0.15032331028E+03  0.15032331028E+03  0.00000000000E+00 0.  1.
         21   -1    0    0  503  502 -0.00000000000E+00 -0.00000000000E+00 -0.79523692916E+02  0.79523692916E+02  0.00000000000E+00 0.  1.
          2    1    1    2  501    0  0.19864298511E+02  0.10008700995E+02  0.14791994644E+03  0.14958300373E+03  0.00000000000E+00 0.  1.
         21    1    1    2  503  501 -0.19864298511E+02 -0.10008700995E+02 -0.77120329082E+02  0.80263999456E+02  0.00000000000E+00 0.  1.
</event>
<event>
 4    1  0.2293753E+005  0.2359246E+02  0.7546771E-02  0.1485190E+00
          2   -1    0    0  502    0  0.00000000000E+00  0.00000000000E+00  0.13066634229E+04  0.13066634229E+04  0.00000000000E+00 0.  1.
         21   -1    0    0  503  502 -0.00000000000E+00 -0.00000000000E+00 -0.27459191012E+01  0.27459191012E+01  0.00000000000E+00 0. -1.
          2    1    1    2  501    0  0.22092776283E+02 -0.82772813925E+01  0.12537425066E+04  0.12539644640E+04  0.00000000000E+00 0.  1.
         21    1    1    2  503  501 -0.22092776283E+02  0.82772813925E+01  0.50174997186E+02  0.55444877976E+02  0.00000000000E+00 0. -1.
</event>
<event>
 4    1  0.2293753E+005  0.2077287E+02  0.7546771E-02  0.1522533E+00
          2   -1    0    0  503    0  0.00000000000E+00  0.00000000000E+00  0.43248423845E+03  0.43248423845E+03  0.00000000000E+00 0. -1.
         21   -1    0    0  501  502 -0.00000000000E+00 -0.00000000000E+00 -0.38343054939E+01  0.38343054939E+01  0.00000000000E+00 0. -1.
          2    1    1    2  501    0 -0.63809114042E+01  0.19768563378E+02  0.40196512387E+03  0.40250151917E+03  0.00000000000E+00 0. -1.
         21    1    1    2  503  502  0.63809114042E+01 -0.19768563378E+02  0.26684809083E+02  0.33817024768E+02  0.00000000000E+00 0. -1.
</event>
<event>
 4    1  0.2293753E+005  0.3506776E+02  0.7546771E-02  0.1380087E+00
          2   -1    0    0  503    0  0.00000000000E+00  0.00000000000E+00  0.56674861434E+03  0.56674861434E+03  0.00000000000E+00 0. -1.
         21   -1    0    0  501  502 -0.00000000000E+00 -0.00000000000E+00 -0.37385862539E+03  0.37385862539E+03  0.00000000000E+00 0. -1.
          2    1    1    2  501    0  0.17669292268E+01 -0.35023221980E+02  0.56538183582E+03  0.56646832956E+03  0.00000000000E+00 0. -1.
         21    1    1    2  503  502 -0.17669292268E+01  0.35023221980E+02 -0.37249184687E+03  0.37413891017E+03  0.00000000000E+00 0. -1.
</event>
<event>
 4    1  0.2293753E+005  0.2188332E+02  0.7546771E-02  0.1507017E+00
          2   -1    0    0  502    0  0.00000000000E+00  0.00000000000E+00  0.10597183342E+04  0.10597183342E+04  0.00000000000E+00 0.  1.
         21   -1    0    0  503  502 -0.00000000000E+00 -0.00000000000E+00 -0.12973312045E+01  0.12973312045E+01  0.00000000000E+00 0. -1.
          2    1    1    2  501    0  0.18260314899E+02 -0.12059875449E+02  0.95747019938E+03  0.95772024224E+03  0.00000000000E+00 0.  1.
         21    1    1    2  503  501 -0.18260314899E+02  0.12059875449E+02  0.10095080362E+03  0.10329542317E+03  0.00000000000E+00 0. -1.
</event>
<event>
 4    1  0.2293753E+005  0.2788134E+02  0.7546771E-02  0.1438950E+00
          2   -1    0    0  503    0  0.00000000000E+00  0.00000000000E+00  0.55366878279E+03  0.55366878279E+03  0.00000000000E+00 0. -1.
         21   -1    0    0  501  502 -0.00000000000E+00 -0.00000000000E+00 -0.28543510850E+02  0.28543510850E+02  0.00000000000E+00 0. -1.
          2    1    1    2  501    0 -0.14972467749E+02  0.23520089401E+02  0.54641886070E+03  0.54712972934E+03  0.00000000000E+00 0. -1.
         21    1    1    2  503  502  0.14972467749E+02 -0.23520089401E+02 -0.21293588758E+02  0.35082564304E+02  0.00000000000E+00 0. -1.
</event>
<event>
 4    1  0.2293753E+005  0.2067402E+02  0.7546771E-02  0.1523970E+00
          2   -1    0    0  502    0  0.00000000000E+00  0.00000000000E+00  0.26694798254E+03  0.26694798254E+03  0.00000000000E+00 0. -1.
         21   -1    0    0  503  502 -0.00000000000E+00 -0.00000000000E+00 -0.62061553264E+01  0.62061553264E+01  0.00000000000E+00 0. -1.
          2    1    1    2  501    0 -0.10414498900E+02  0.17859264783E+02  0.24801851081E+03  0.24887867893E+03  0.00000000000E+00 0. -1.
         21    1    1    2  503  501  0.10414498900E+02 -0.17859264783E+02  0.12723316407E+02  0.24275458931E+02  0.00000000000E+00 0. -1.
</event>
<event>
 4    1  0.2293753E+005  0.3048035E+02  0.7546771E-02  0.1415467E+00
          2   -1    0    0  503    0  0.00000000000E+00  0.00000000000E+00  0.96858286962E+00  0.96858286962E+00  0.00000000000E+00 0.  1.
         21   -1    0    0  501  502 -0.00000000000E+00 -0.00000000000E+00 -0.96096022222E+03  0.96096022222E+03  0.00000000000E+00 0.  1.
          2    1    1    2  501    0 -0.30157756695E+02  0.44228420184E+01 -0.50065803008E+03  0.50158500267E+03  0.00000000000E+00 0.  1.
         21    1    1    2  503  502  0.30157756695E+02 -0.44228420184E+01 -0.45933360927E+03  0.46034380242E+03  0.00000000000E+00 0.  1.
</event>
<event>
 4    1  0.2293753E+005  0.2345606E+02  0.7546771E-02  0.1486849E+00
          2   -1    0    0  502    0  0.00000000000E+00  0.00000000000E+00  0.45375144383E+02  0.45375144383E+02  0.00000000000E+00 0. -1.
         21   -1    0    0  503  502 -0.00000000000E+00 -0.00000000000E+00 -0.15218029922E+02  0.15218029922E+02  0.00000000000E+00 0.  1.
          2    1    1    2  501    0  0.16253661268E+02 -0.16911686099E+02  0.28736535870E+02  0.37094138690E+02  0.00000000000E+00 0. -1.
         21    1    1    2  503  501 -0.16253661268E+02  0.16911686099E+02  0.14205785913E+01  0.23499035616E+02  0.00000000000E+00 0.  1.
</event>
<event>
 4    1  0.2293753E+005  0.2285032E+02  0.7546771E-02  0.1494386E+00
          2   -1    0    0  503    0  0.00000000000E+00  0.00000000000E+00  0.63901558023E+03  0.63901558023E+03  0.00000000000E+00 0. -1.
         21   -1    0    0  501  502 -0.00000000000E+00 -0.00000000000E+00 -0.15074516032E+01  0.15074516032E+01  0.00000000000E+00 0. -1.
          2    1    1    2  501    0  0.28796646272E+01 -0.22668141538E+02  0.53548428640E+03  0.53597160194E+03  0.00000000000E+00 0. -1.
         21    1    1    2  503  502 -0.28796646272E+01  0.22668141538E+02  0.10202384223E+03  0.10455142989E+03  0.00000000000E+00 0. -1.
</event>
<event>
 4    1  0.2293753E+005  0.8530927E+02  0.7546771E-02  0.1192031E+00
          2   -1    0    0  503    0  0.00000000000E+00  0.00000000000E+00  0.10937055865E+04  0.10937055865E+04  0.00000000000E+00 0. -1.
         21   -1    0    0  501  502 -0.00000000000E+00 -0.00000000000E+00 -0.95354470544E+02  0.95354470544E+02  0.00000000000E+00 0.  1.
          2    1    1    2  501    0  0.71511958532E+02 -0.46515706044E+02  0.10725863760E+04  0.10759736080E+04  0.00000000000E+00 0. -1.
         21    1    1    2  503  502 -0.71511958532E+02  0.46515706044E+02 -0.74235260051E+02  0.11308644904E+03  0.00000000000E+00 0.  1.
</event>
<event>
 4    1  0.2293753E+005  0.2812577E+02  0.7546771E-02  0.1436616E+00
          2   -1    0    0  502    0  0.00000000000E+00  0.00000000000E+00  0.16876009313E+04  0.16876009313E+04  0.00000000000E+00 0. -1.
         21   -1    0    0  503  502 -0.00000000000E+00 -0.00000000000E+00 -0.11857150789E+01  0.11857150789E+01  0.00000000000E+00 0.  1.
          2    1    1    2  501    0  0.37997324464E+01  0.27867916822E+02  0.14998128888E+04  0.15000765847E+04  0.00000000000E+00 0. -1.
         21    1    1    2  503  501 -0.37997324464E+01 -0.27867916822E+02  0.18660232741E+03  0.18871006160E+03  0.00000000000E+00 0.  1.
</event>
<event>
 4    1  0.2293753E+005  0.2228884E+02  0.7546771E-02  0.1501627E+00
          2   -1    0    0  502    0  0.00000000000E+00  0.00000000000E+00  0.73385466663E+03  0.73385466663E+03  0.00000000000E+00 0. -1.
         21   -1    0    0  503  502 -0.00000000000E+00 -0.00000000000E+00 -0.10375351512E+01  0.10375351512E+01  0.00000000000E+00 0.  1.
          2    1    1    2  501    0 -0.16143318419E+01 -0.22230304791E+02  0.58302343925E+03  0.58344933219E+03  0.00000000000E+00 0. -1.
         21    1    1    2  503  501  0.16143318419E+01  0.22230304791E+02  0.14979369223E+03  0.15144286959E+03  0.00000000000E+00 0.  1.
</event>
<event>
 4    1  0.2293753E+005  0.2415087E+02  0.7546771E-02  0.1478531E+00
          2   -1    0    0  503    0  0.00000000000E+00  0.00000000000E+00  0.12816754781E+03  0.12816754781E+03  0.00000000000E+00 0.  1.
         21   -1    0    0  501  502 -0.00000000000E+00 -0.00000000000E+00 -0.17250244392E+02  0.17250244392E+02  0.00000000000E+00 0. -1.
          2    1    1    2  501    0  0.23970300095E+02  0.29477640930E+01  0.11784395951E+03  0.12029323918E+03  0.00000000000E+00 0.  1.
         21    1    1    2  503  502 -0.23970300095E+02 -0.29477640930E+01 -0.69266560929E+01  0.25124553019E+02  0.00000000000E+00 0. -1.
</event>
<event>
 4    1  0.2293753E+005  0.3894782E+02  0.7546771E-02  0.1354764E+00
          2   -1    0    0  503    0  0.00000000000E+00  0.00000000000E+00  0.26734959387E+04  0.26734959387E+04  0.00000000000E+00 0.  1.
         21   -1    0    0  501  502 -0.00000000000E+00 -0.00000000000E+00 -0.96323032835E+00  0.96323032835E+00  0.00000000000E+00 0.  1.
          2    1    1    2  501    0 -0.37277025918E+02  0.11285215821E+02  0.21934961322E+04  0.21938418846E+04  0.00000000000E+00 0.  1.
         21    1    1    2  503  502  0.37277025918E+02 -0.11285215821E+02  0.47903657622E+03  0.48061728445E+03  0.00000000000E+00 0.  1.
</event>
<event>
 4    1  0.2293753E+005  0.2227640E+02  0.7546771E-02  0.1501790E+00
          2   -1    0    0  502    0  0.00000000000E+00  0.00000000000E+00  0.14159870934E+03  0.14159870934E+03  0.00000000000E+00 0.  1.
         21   -1    0    0  503  502 -0.00000000000E+00 -0.00000000000E+00 -0.64940826698E+01  0.64940826698E+01  0.00000000000E+00 0.  1.
          2    1    1    2  501    0  0.81748470631E+01 -0.20722209718E+02  0.11779206923E+03  0.11987998029E+03  0.00000000000E+00 0.  1.
         21    1    1    2  503  501 -0.81748470631E+01  0.20722209718E+02  0.17312557435E+02  0.28212811718E+02  0.00000000000E+00 0.  1.
</event>
<event>
 4    1  0.2293753E+005  0.2088490E+02  0.7546771E-02  0.1520915E+00
          2   -1    0    0  502    0  0.00000000000E+00  0.00000000000E+00  0.60525031788E+03  0.60525031788E+03  0.00000000000E+00 0.  1.
         21   -1    0    0  503  502 -0.00000000000E+00 -0.00000000000E+00 -0.10820583207E+01  0.10820583207E+01  0.00000000000E+00 0.  1.
          2    1    1    2  501    0 -0.21390582793E+01  0.20775068090E+02  0.47729020393E+03  0.47774691814E+03  0.00000000000E+00 0.  1.
         21    1    1    2  503  501  0.21390582793E+01 -0.20775068090E+02  0.12687805563E+03  0.12858545806E+03  0.00000000000E+00 0.  1.
</event>
<event>
 4    1  0.2293753E+005  0.2979353E+02  0.7546771E-02  0.1421399E+00
          2   -1    0    0  503    0  0.00000000000E+00  0.00000000000E+00  0.39189954596E+04  0.39189954596E+04  0.00000000000E+00 0.  1.
         21   -1    0    0  501  502 -0.00000000000E+00 -0.00000000000E+00 -0.23014036234E+00  0.23014036234E+00  0.00000000000E+00 0.  1.
          2    1    1    2  501    0  0.21895987900E+02 -0.20204452281E+02  0.22058277680E+04  0.22060289654E+04  0.00000000000E+00 0.  1.
         21    1    1    2  503  502 -0.21895987900E+02  0.20204452281E+02  0.17129375512E+04  0.17131966345E+04  0.00000000000E+00 0.  1.
</event>
<event>
 4    1  0.2293753E+005  0.2360994E+02  0.7546771E-02  0.1484978E+00
          2   -1    0    0  503    0  0.00000000000E+00  0.00000000000E+00  0.14394728010E+02  0.14394728010E+02  0.00000000000E+00 0.  1.
         21   -1    0    0  501  502 -0.00000000000E+00 -0.00000000000E+00 -0.51414259220E+02  0.51414259220E+02  0.00000000000E+00 0.  1.
          2    1    1    2  501    0  0.23283214093E+02 -0.39142576918E+01 -0.21627255035E+01  0.23708792744E+02  0.00000000000E+00 0.  1.
         21    1    1    2  503  502 -0.23283214093E+02  0.39142576918E+01 -0.34856805706E+02  0.42100194487E+02  0.00000000000E+00 0.  1.
</event>
<event>
 4    1  0.2293753E+005  0.2716225E+02  0.7546771E-02  0.1445985E+00
          2   -1    0    0  502    0  0.00000000000E+00  0.00000000000E+00  0.62973100853E+02  0.62973100853E+02  0.00000000000E+00 0. -1.
         21   -1    0    0  503  502 -0.00000000000E+00 -0.00000000000E+00 -0.26401928014E+02  0.26401928014E+02  0.00000000000E+00 0.  1.
          2    1    1    2  501    0  0.19054014802E+02 -0.19358003224E+02  0.51614431805E+02  0.58325271876E+02  0.00000000000E+00 0. -1.
         21    1    1    2  503  501 -0.19054014802E+02  0.19358003224E+02 -0.15043258967E+02  0.31049756991E+02  0.00000000000E+00 0.  1.
</event>
<event>
 4    1  0.2293753E+005  0.3458392E+02  0.7546771E-02  0.1383512E+00
          2   -1    0    0  502    0  0.00000000000E+00  0.00000000000E+00  0.20588116315E+04  0.20588116315E+04  0.00000000000E+00 0.  1.
         21   -1    0    0  503  502 -0.00000000000E+00 -0.00000000000E+00 -0.52753031003E+02  0.52753031003E+02  0.00000000000E+00 0.  1.
          2    1    1    2  501    0 -0.77538152353E+01 -0.33703500681E+02  0.20529821563E+04  0.20532734308E+04  0.00000000000E+00 0.  1.
         21    1    1    2  503  501  0.77538152353E+01  0.33703500681E+02 -0.46923555772E+02  0.58291231717E+02  0.00000000000E+00 0.  1.
</event>
<event>
 4    1  0.2293753E+005  0.2409776E+02  0.7546771E-02  0.1479155E+00
          2   -1    0    0  503    0  0.00000000000E+00  0.00000000000E+00  0.14502061952E+04  0.14502061952E+04  0.00000000000E+00 0.  1.
         21   -1    0    0  501  502 -0.00000000000E+00 -0.00000000000E+00 -0.25133719370E+01  0.25133719370E+01  0.00000000000E+00 0.  1.
          2    1    1    2  501    0  0.41116876241E+01  0.23744386715E+02  0.13898360743E+04  0.13900449688E+04  0.00000000000E+00 0.  1.
         21    1    1    2  503  502 -0.41116876241E+01 -0.23744386715E+02  0.57856748976E+02  0.62674598345E+02  0.00000000000E+00 0.  1.
</event>
<event>
 4    1  0.2293753E+005  0.2019829E+02  0.7546771E-02  0.1531026E+00
          2   -1    0    0  503    0  0.00000000000E+00  0.00000000000E+00  0.35453137816E+03  0.35453137816E+03  0.00000000000E+00 0. -1.
         21   -1    0    0  501  502 -0.00000000000E+00 -0.00000000000E+00 -0.16895117749E+01  0.16895117749E+01  0.00000000000E+00 0. -1.
          2    1    1    2  501    0 -0.38768280963E+01 -0.19822742032E+02  0.27700150101E+03  0.27773693031E+03  0.00000000000E+00 0. -1.
         21    1    1    2  503  502  0.38768280963E+01  0.19822742032E+02  0.75840365373E+02  0.78483959621E+02  0.00000000000E+00 0. -1.
</event>
<event>
 4    1  0.2293753E+005  0.3439142E+02  0.7546771E-02  0.1384893E+00
          2   -1    0    0  503    0  0.00000000000E+00  0.00000000000E+00  0.45419248070E+03  0.45419248070E+03  0.00000000000E+00 0. -1.
         21   -1    0    0  501  502 -0.00000000000E+00 -0.00000000000E+00 -0.40931912051E+02  0.40931912051E+02  0.00000000000E+00 0. -1.
          2    1    1    2  501    0 -0.91635719892E+01  0.33148131892E+02  0.44618804071E+03  0.44751149412E+03  0.00000000000E+00 0. -1.
         21    1    1    2  503  502  0.91635719892E+01 -0.33148131892E+02 -0.32927472061E+02  0.47612898628E+02  0.00000000000E+00 0. -1.
</event>
<event>
 4    1  0.2293753E+005  0.2021444E+02  0.7546771E-02  0.1530783E+00
          2   -1    0    0  502    0  0.00000000000E+00  0.00000000000E+00  0.85208020066E+03  0.85208020066E+03  0.00000000000E+00 0.  1.
         21   -1    0    0  503  502 -0.00000000000E+00 -0.00000000000E+00 -0.16518935888E+01  0.16518935888E+01  0.00000000000E+00 0.  1.
          2    1    1    2  501    0  0.12864658949E+01  0.20173459742E+02  0.78481955493E+03  0.78507984133E+03  0.00000000000E+00 0.  1.
         21    1    1    2  503  501 -0.12864658949E+01 -0.20173459742E+02  0.65608752146E+02  0.68652252917E+02  0.00000000000E+00 0.  1.
</event>
<event>
 4    1  0.2293753E+005  0.2038602E+02  0.7546771E-02  0.1528214E+00
          2   -1    0    0  502    0  0.00000000000E+00  0.00000000000E+00  0.65456320551E+02  0.65456320551E+02  0.00000000000E+00 0. -1.
         21   -1    0    0  503  502 -0.00000000000E+00 -0.00000000000E+00 -0.18777979400E+03  0.18777979400E+03  0.00000000000E+00 0.  1.
          2    1    1    2  501    0 -0.60458084893E+01  0.19468895814E+02  0.63297341345E+02  0.66499196430E+02  0.00000000000E+00 0. -1.
         21    1    1    2  503  501  0.60458084893E+01 -0.19468895814E+02 -0.18562081479E+03  0.18673691812E+03  0.00000000000E+00 0.  1.
</event>
<event>
 4    1  0.2293753E+005  0.2082176E+02  0.7546771E-02  0.1521825E+00
          2   -1    0    0  502    0  0.00000000000E+00  0.00000000000E+00  0.30389617442E+03  0.30389617442E+03  0.00000000000E+00 0.  1.
         21   -1    0    0  503  502 -0.00000000000E+00 -0.00000000000E+00 -0.12308919092E+03  0.12308919092E+03  0.00000000000E+00 0. -1.
          2    1    1    2  501    0  0.20798180181E+02 -0.99071755539E+00  0.30265536025E+03  0.30337075157E+03  0.00000000000E+00 0.  1.
         21    1    1    2  503  501 -0.20798180181E+02  0.99071755539E+00 -0.12184837675E+03  0.12361461376E+03  0.00000000000E+00 0. -1.
</event>
<event>
 4    1  0.2293753E+005  0.2309272E+02  0.7546771E-02  0.1491337E+00
          2   -1    0    0  502    0  0.00000000000E+00  0.00000000000E+00  0.17016128758E+03  0.17016128758E+03  0.00000000000E+00 0. -1.
         21   -1    0    0  503  502 -0.00000000000E+00 -0.00000000000E+00 -0.53933608185E+01  0.53933608185E+01  0.00000000000E+00 0. -1.
          2    1    1    2  501    0 -0.85255090246E+01 -0.21461345806E+02  0.13919753145E+03  0.14110005822E+03  0.00000000000E+00 0. -1.
         21    1    1    2  503  501  0.85255090246E+01  0.21461345806E+02  0.25570395309E+02  0.34454590176E+02  0.00000000000E+00 0. -1.
</event>
<event>
 4    1  0.2293753E+005  0.2466813E+02  0.7546771E-02  0.1472550E+00
          2   -1    0    0  503    0  0.00000000000E+00  0.00000000000E+00  0.16655413015E+03  0.16655413015E+03  0.00000000000E+00 0.  1.
         21   -1    0    0  501  502 -0.00000000000E+00 -0.00000000000E+00 -0.36552869809E+01  0.36552869809E+01  0.00000000000E+00 0.  1.
          2    1    1    2  501    0 -0.24663760276E+02 -0.46435640494E+00  0.83295441162E+02  0.86871440740E+02  0.00000000000E+00 0.  1.
         21    1    1    2  503  502  0.24663760276E+02  0.46435640494E+00  0.79603402004E+02  0.83337976388E+02  0.00000000000E+00 0.  1.
</event>
<event>
 4    1  0.2293753E+005  0.7975411E+02  0.7546771E-02  0.1204420E+00
          2   -1    0    0  503    0  0.00000000000E+00  0.00000000000E+00  0.38466491348E+03  0.38466491348E+03  0.00000000000E+00 0.  1.
         21   -1    0    0  501  502 -0.00000000000E+00 -0.00000000000E+00 -0.33048534057E+02  0.33048534057E+02  0.00000000000E+00 0.  1.
          2    1    1    2  501    0 -0.35059260109E+02  0.71634947848E+02  0.32344093492E+03  0.33312873765E+03  0.00000000000E+00 0.  1.
         21    1    1    2  503  502  0.35059260109E+02 -0.71634947848E+02  0.28175444507E+02  0.84584709882E+02  0.00000000000E+00 0.  1.
</event>
<event>
 4    1  0.2293753E+005  0.2043693E+02  0.7546771E-02  0.1527458E+00
          2   -1    0    0  503    0  0.00000000000E+00  0.00000000000E+00  0.15056986812E+04  0.15056986812E+04  0.00000000000E+00 0. -1.
         21   -1    0    0  501  502 -0.00000000000E+00 -0.00000000000E+00 -0.47304624313E+01  0.47304624313E+01  0.00000000000E+00 0. -1.
          2    1    1    2  501    0 -0.98104980173E+01 -0.17928250081E+02  0.14832215250E+04  0.14833623159E+04  0.00000000000E+00 0. -1.
         21    1    1    2  503  502  0.98104980173E+01  0.17928250081E+02  0.17746693707E+02  0.27066827665E+02  0.00000000000E+00 0. -1.
</event>
<event>
 4    1  0.2293753E+005  0.2170164E+02  0.7546771E-02  0.1509479E+00
          2   -1    0    0  503    0  0.00000000000E+00  0.00000000000E+00  0.27985551587E+02  0.27985551587E+02  0.00000000000E+00 0.  1.
         21   -1    0    0  501  502 -0.00000000000E+00 -0.00000000000E+00 -0.62333393336E+02  0.62333393336E+02  0.00000000000E+00 0. -1.
          2    1    1    2  501    0 -0.21624834677E+02  0.18241685628E+01  0.21410898040E+02  0.30485859355E+02  0.00000000000E+00 0.  1.
         21    1    1    2  503  502  0.21624834677E+02 -0.18241685628E+01 -0.55758739789E+02  0.59833085568E+02  0.00000000000E+00 0. -1.
</event>
<event>
 4    1  0.2293753E+005  0.2468084E+02  0.7546771E-02  0.1472406E+00
          2   -1    0    0  503    0  0.00000000000E+00  0.00000000000E+00  0.10996661079E+04  0.10996661079E+04  0.00000000000E+00 0. -1.
         21   -1    0    0  501  502 -0.00000000000E+00 -0.00000000000E+00 -0.19962056463E+01  0.19962056463E+01  0.00000000000E+00 0. -1.
          2    1    1    2  501    0 -0.22496396119E+02 -0.10151652254E+02  0.10170433434E+04  0.10173427674E+04  0.00000000000E+00 0. -1.
         21    1    1    2  503  502  0.22496396119E+02  0.10151652254E+02  0.80626558865E+02  0.84319546229E+02  0.00000000000E+00 0. -1.
</event>
<event>
 4    1  0.2293753E+005  0.2100112E+02  0.7546771E-02  0.1519249E+00
          2   -1    0    0  503    0  0.00000000000E+00  0.00000000000E+00  0.18044464689E+03  0.18044464689E+03  0.00000000000E+00 0. -1.
         21   -1    0    0  501  502 -0.00000000000E+00 -0.00000000000E+00 -0.36472375364E+01  0.36472375364E+01  0.00000000000E+00 0. -1.
          2    1    1    2  501    0  0.20934597139E+02  0.16702657008E+01  0.14126244306E+03  0.14281500259E+03  0.00000000000E+00 0. -1.
         21    1    1    2  503  502 -0.20934597139E+02 -0.16702657008E+01  0.35534966298E+02  0.41276881843E+02  0.00000000000E+00 0. -1.
</event>
<event>
 4    1  0.2293753E+005  0.7357215E+02  0.7546771E-02  0.1219612E+00
          2   -1    0    0  503    0  0.00000000000E+00  0.00000000000E+00  0.65609242016E+03  0.65609242016E+03  0.00000000000E+00 0.  1.
         21   -1    0    0  501  502 -0.00000000000E+00 -0.00000000000E+00 -0.10555675066E+02  0.10555675066E+02  0.00000000000E+00 0.  1.
          2    1    1    2  501    0 -0.68605206506E+02  0.26574184350E+02  0.16698953582E+03  0.18247840066E+03  0.00000000000E+00 0.  1.
         21    1    1    2  503  502  0.68605206506E+02 -0.26574184350E+02  0.47854720927E+03  0.48416969456E+03  0.00000000000E+00 0.  1.
</event>
<event>
 4    1  0.2293753E+005  0.2281806E+02  0.7546771E-02  0.1494795E+00
          2   -1    0    0  503    0  0.00000000000E+00  0.00000000000E+00  0.19005159847E+04  0.19005159847E+04  0.00000000000E+00 0. -1.
         21   -1    0    0  501  502 -0.00000000000E+00 -0.00000000000E+00 -0.68475238888E+00  0.68475238888E+00  0.00000000000E+00 0.  1.
          2    1    1    2  501    0 -0.22531254185E+02  0.36064582796E+01  0.16861952449E+04  0.16863496280E+04  0.00000000000E+00 0. -1.
         21    1    1    2  503  502  0.22531254185E+02 -0.36064582796E+01  0.21363598739E+03  0.21485110906E+03  0.00000000000E+00 0.  1.
</event>
<event>
 4    1  0.2293753E+005  0.2856108E+02  0.7546771E-02  0.1432527E+00
          2   -1    0    0  503    0  0.00000000000E+00  0.00000000000E+00  0.15556224762E+03  0.15556224762E+03  0.00000000000E+00 0.  1.
         21   -1    0    0  501  502 -0.00000000000E+00 -0.00000000000E+00 -0.86005543209E+02  0.86005543209E+02  0.00000000000E+00 0. -1.
          2    1    1    2  501    0 -0.38777237999E+01 -0.28296614036E+02  0.15182222696E+03  0.15448535111E+03  0.00000000000E+00 0.  1.
         21    1    1    2  503  502  0.38777237999E+01  0.28296614036E+02 -0.82265522548E+02  0.87082439722E+02  0.00000000000E+00 0. -1.
</event>
<event>
 4    1  0.2293753E+005  0.6795502E+02  0.7546771E-02  0.1234963E+00
          2   -1    0    0  503    0  0.00000000000E+00  0.00000000000E+00  0.12360004467E+04  0.12360004467E+04  0.00000000000E+00 0.  1.
         21   -1    0    0  501  502 -0.00000000000E+00 -0.00000000000E+00 -0.38721668410E+01  0.38721668410E+01  0.00000000000E+00 0.  1.
          2    1    1    2  501    0  0.20854614333E+02 -0.64675879740E+02  0.73225306031E+03  0.73539950278E+03  0.00000000000E+00 0.  1.
         21    1    1    2  503  502 -0.20854614333E+02  0.64675879740E+02  0.49987521953E+03  0.50447311074E+03  0.00000000000E+00 0.  1.
</event>
<event>
 4    1  0.2293753E+005  0.2065323E+02  0.7546771E-02  0.1524274E+00
          2   -1    0    0  503    0  0.00000000000E+00  0.00000000000E+00  0.68961603351E+03  0.68961603351E+03  0.00000000000E+00 0.  1.
         21   -1    0    0  501  502 -0.00000000000E+00 -0.00000000000E+00 -0.50197583431E+01  0.50197583431E+01  0.00000000000E+00 0.  1.
          2    1    1    2  501    0 -0.18762005333E+02 -0.86338419844E+01  0.66751431740E+03  0.66783375177E+03  0.00000000000E+00 0.  1.
         21    1    1    2  503  502  0.18762005333E+02  0.86338419844E+01  0.17081957774E+02  0.26802040088E+02  0.00000000000E+00 0.  1.
</event>
<event>
 4    1  0.2293753E+005  0.2360914E+02  0.7546771E-02  0.1484988E+00
          2   -1    0    0  503    0  0.00000000000E+00  0.00000000000E+00  0.83516086838E+03  0.83516086838E+03  0.00000000000E+00 0.  1.
         21   -1    0    0  501  502 -0.00000000000E+00 -0.00000000000E+00 -0.85977724335E+01  0.85977724335E+01  0.00000000000E+00 0. -1.
          2    1    1    2  501    0  0.42319905329E+01 -0.23226746348E+02  0.81845584607E+03  0.81879628935E+03  0.00000000000E+00 0.  1.
         21    1    1    2  503  502 -0.42319905329E+01  0.23226746348E+02  0.81072498721E+01  0.24962351457E+02  0.00000000000E+00 0. -1.
</event>
<event>
 4    1  0.2293753E+005  0.2080319E+02  0.7546771E-02  0.1522093E+00
          2   -1    0    0  503    0  0.00000000000E+00  0.00000000000E+00  0.57857514126E+03  0.57857514126E+03  0.00000000000E+00 0. -1.
         21   -1    0    0  501  502 -0.00000000000E+00 -0.00000000000E+00 -0.20600827802E+01  0.20600827802E+01  0.00000000000E+00 0. -1.
          2    1    1    2  501    0  0.15317868746E+02  0.14076067387E+02  0.51995008161E+03  0.52036608281E+03  0.00000000000E+00 0. -1.
         21    1    1    2  503  502 -0.15317868746E+02 -0.14076067387E+02  0.56564976874E+02  0.60269141231E+02  0.00000000000E+00 0. -1.
</event>
<event>
 4    1  0.2293753E+005  0.6165891E+02  0.7546771E-02  0.1254298E+00
          2   -1    0    0  502    0  0.00000000000E+00  0.00000000000E+00  0.50195686233E+03  0.50195686233E+03  0.00000000000E+00 0.  1.
         21   -1    0    0  503  502 -0.00000000000E+00 -0.00000000000E+00 -0.11547437031E+02  0.11547437031E+02  0.00000000000E+00 0. -1.
          2    1    1    2  501    0  0.34363201734E+02 -0.51195616362E+02  0.39581495585E+03  0.40058869185E+03  0.00000000000E+00 0.  1.
         21    1    1    2  503  501 -0.34363201734E+02  0.51195616362E+02  0.94594469456E+02  0.11291560751E+03  0.00000000000E+00 0. -1.
</event>
<event>
 4    1  0.2293753E+005  0.2320818E+02  0.7546771E-02  0.1489900E+00
          2   -1    0    0  502    0  0.00000000000E+00  0.00000000000E+00  0.17192965325E+04  0.17192965325E+04  0.00000000000E+00 0.  1.
         21   -1    0    0  503  502 -0.00000000000E+00 -0.00000000000E+00 -0.21893674525E+02  0.21893674525E+02  0.00000000000E+00 0. -1.
          2    1    1    2  501    0  0.21654285334E+02  0.83493541361E+01  0.17130453658E+04  0.17132025698E+04  0.00000000000E+00 0.  1.
         21    1    1    2  503  501 -0.21654285334E+02 -0.83493541361E+01 -0.15642507827E+02  0.27987637251E+02  0.00000000000E+00 0. -1.
</event>
<event>
 4    1  0.2293753E+005  0.2265410E+02  0.7546771E-02  0.1496888E+00
          2   -1    0    0  503    0  0.00000000000E+00  0.00000000000E+00  0.37624093437E+03  0.37624093437E+03  0.00000000000E+00 0.  1.
         21   -1    0    0  501  502 -0.00000000000E+00 -0.00000000000E+00 -0.17329079762E+03  0.17329079762E+03  0.00000000000E+00 0. -1.
          2    1    1    2  501    0 -0.98795795841E+01 -0.20386324831E+02  0.37515740148E+03  0.37584076977E+03  0.00000000000E+00 0.  1.
         21    1    1    2  503  502  0.98795795841E+01  0.20386324831E+02 -0.17220726473E+03  0.17369096222E+03  0.00000000000E+00 0. -1.
</event>
<event>
 4    1  0.2293753E+005  0.2005949E+02  0.7546771E-02  0.1533128E+00
          2   -1    0    0  503    0  0.00000000000E+00  0.00000000000E+00  0.10265133837E+03  0.10265133837E+03  0.00000000000E+00 0.  1.
         21   -1    0    0  501  502 -0.00000000000E+00 -0.00000000000E+00 -0.18639231000E+02  0.18639231000E+02  0.00000000000E+00 0. -1.
          2    1    1    2  501    0  0.17186784686E+02  0.10343966228E+02  0.95898394473E+02  0.97973900951E+02  0.00000000000E+00 0.  1.
         21    1    1    2  503  502 -0.17186784686E+02 -0.10343966228E+02 -0.11886287101E+02  0.23316668420E+02  0.00000000000E+00 0. -1.
</event>
<event>
 4    1  0.2293753E+005  0.2524509E+02  0.7546771E-02  0.1466080E+00
          2   -1    0    0  503    0  0.00000000000E+00  0.00000000000E+00  0.17349331682E+03  0.17349331682E+03  0.00000000000E+00 0. -1.
         21   -1    0    0  501  502 -0.00000000000E+00 -0.00000000000E+00 -0.27203522495E+03  0.27203522495E+03  0.00000000000E+00 0.  1.
          2    1    1    2  501    0 -0.71756351890E+01 -0.24203820808E+02  0.17198415721E+03  0.17382711242E+03  0.00000000000E+00 0. -1.
         21    1    1    2  503  502  0.71756351890E+01  0.24203820808E+02 -0.27052606533E+03  0.27170142934E+03  0.00000000000E+00 0.  1.
</event>
<event>
 4    1  0.2293753E+005  0.2153347E+02  0.7546771E-02  0.1511783E+00
          2   -1    0    0  502    0  0.00000000000E+00  0.00000000000E+00  0.12575887658E+03  0.12575887658E+03  0.00000000000E+00 0.  1.
         21   -1    0    0  503  502 -0.00000000000E+00 -0.00000000000E+00 -0.24939325862E+03  0.24939325862E+03  0.00000000000E+00 0. -1.
          2    1    1    2  501    0 -0.14493647143E+02  0.15925589464E+02  0.12436711075E+03  0.12621754412E+03  0.00000000000E+00 0.  1.
         21    1    1    2  503  501  0.14493647143E+02 -0.15925589464E+02 -0.24800149280E+03  0.24893459108E+03  0.00000000000E+00 0. -1.
</event>
<event>
 4    1  0.2293753E+005  0.2154222E+02  0.7546771E-02  0.1511662E+00
          2   -1    0    0  502    0  0.00000000000E+00  0.00000000000E+00  0.35487218932E+03  0.35487218932E+03  0.00000000000E+00 0.  1.
         21   -1    0    0  503  502 -0.00000000000E+00 -0.00000000000E+00 -0.79053871551E+01  0.79053871551E+01  0.00000000000E+00 0.  1.
          2    1    1    2  501    0 -0.10901543758E+02 -0.18580190306E+02  0.33919185141E+03  0.33987524063E+03  0.00000000000E+00 0.  1.
         21    1    1    2  503  501  0.10901543758E+02  0.18580190306E+02  0.77749507555E+01  0.22902335849E+02  0.00000000000E+00 0.  1.
</event>
<event>
 4    1  0.2293753E+005  0.2831262E+02  0.7546771E-02  0.1434850E+00
          2   -1    0    0  503    0  0.00000000000E+00  0.00000000000E+00  0.53064488530E+03  0.53064488530E+03  0.00000000000E+00 0. -1.
         21   -1    0    0  501  502 -0.00000000000E+00 -0.00000000000E+00 -0.28990738433E+01  0.28990738433E+01  0.00000000000E+00 0.  1.
          2    1    1    2  501    0 -0.21802132734E+02  0.18062986039E+02  0.44849165357E+03  0.44938443207E+03  0.00000000000E+00 0. -1.
         21    1    1    2  503  502  0.21802132734E+02 -0.18062986039E+02  0.79254157881E+02  0.84159527078E+02  0.00000000000E+00 0.  1.
</event>
<event>
 4    1  0.2293753E+005  0.2325865E+02  0.7546771E-02  0.1489276E+00
          2   -1    0    0  503    0  0.00000000000E+00  0.00000000000E+00  0.10755926279E+03  0.10755926279E+03  0.00000000000E+00 0. -1.
         21   -1    0    0  501  502 -0.00000000000E+00 -0.00000000000E+00 -0.96516334514E+02  0.96516334514E+02  0.00000000000E+00 0.  1.
          2    1    1    2  501    0 -0.18284554266E+02  0.14374977695E+02  0.10486510406E+03  0.10741347661E+03  0.00000000000E+00 0. -1.
         21    1    1    2  503  502  0.18284554266E+02 -0.14374977695E+02 -0.93822175782E+02  0.96662120693E+02  0.00000000000E+00 0.  1.
</event>
<event>
 4    1  0.2293753E+005  0.2376453E+02  0.7546771E-02  0.1483115E+00
          2   -1    0    0  503    0  0.00000000000E+00  0.00000000000E+00  0.31279021618E+03  0.31279021618E+03  0.00000000000E+00 0. -1.
         21   -1    0    0  501  502 -0.00000000000E+00 -0.00000000000E+00 -0.88436234901E+02  0.88436234901E+02  0.00000000000E+00 0. -1.
          2    1    1    2  501    0 -0.94565714233E+01 -0.21801980545E+02  0.31073177429E+03  0.31163919627E+03  0.00000000000E+00 0. -1.
         21    1    1    2  503  502  0.94565714233E+01  0.21801980545E+02 -0.86377793012E+02  0.89587254810E+02  0.00000000000E+00 0. -1.
</event>
<event>
 4    1  0.2293753E+005  0.3050195E+02  0.7546771E-02  0.1415284E+00
          2   -1    0    0  502    0  0.00000000000E+00  0.00000000000E+00  0.22038530782E+04  0.22038530782E+04  0.00000000000E+00 0. -1.
         21   -1    0    0  503  502 -0.00000000000E+00 -0.00000000000E+00 -0.87107544331E+01  0.87107544331E+01  0.00000000000E+00 0.  1.
          2    1    1    2  501    0  0.62489310226E+01 -0.29854980311E+02  0.21767128932E+04  0.21769265923E+04  0.00000000000E+00 0. -1.
         21    1    1    2  503  501 -0.62489310226E+01  0.29854980311E+02  0.18429430660E+02  0.35637240392E+02  0.00000000000E+00 0.  1.
</event>
<event>
 4    1  0.2293753E+005  0.2050301E+02  0.7546771E-02  0.1526480E+00
          2   -1    0    0  503    0  0.00000000000E+00  0.00000000000E+00  0.25403915038E+02  0.25403915038E+02  0.00000000000E+00 0.  1.
         21   -1    0    0  501  502 -0.00000000000E+00 -0.00000000000E+00 -0.62673250491E+02  0.62673250491E+02  0.00000000000E+00 0.  1.
          2    1    1    2  501    0  0.18593857277E+02  0.86395473967E+01  0.19145473074E+02  0.28052138009E+02  0.00000000000E+00 0.  1.
         21    1    1    2  503  502 -0.18593857277E+02 -0.86395473967E+01 -0.56414808527E+02  0.60025027520E+02  0.00000000000E+00 0.  1.
</event>
<event>
 4    1  0.2293753E+005  0.3640534E+02  0.7546771E-02  0.1370944E+00
          2   -1    0    0  503    0  0.00000000000E+00  0.00000000000E+00  0.18793648573E+02  0.18793648573E+02  0.00000000000E+00 0.  1.
         21   -1    0    0  501  502 -0.00000000000E+00 -0.00000000000E+00 -0.21448292152E+03  0.21448292152E+03  0.00000000000E+00 0. -1.
          2    1    1    2  501    0 -0.29109515814E+02  0.21862864823E+02 -0.22863323246E+01  0.36477062446E+02  0.00000000000E+00 0.  1.
         21    1    1    2  503  502  0.29109515814E+02 -0.21862864823E+02 -0.19340294062E+03  0.19679950765E+03  0.00000000000E+00 0. -1.
</event>
<event>
 4    1  0.2293753E+005  0.3017674E+02  0.7546771E-02  0.1418067E+00
          2   -1    0    0  503    0  0.00000000000E+00  0.00000000000E+00  0.66405776516E+02  0.66405776516E+02  0.00000000000E+00 0. -1.
         21   -1    0    0  501  502 -0.00000000000E+00 -0.00000000000E+00 -0.53260996979E+03  0.53260996979E+03  0.00000000000E+00 0.  1.
          2    1    1    2  501    0  0.11985832959E+02  0.27694318323E+02  0.62524893963E+02  0.69426204161E+02  0.00000000000E+00 0. -1.
         21    1    1    2  503  502 -0.11985832959E+02 -0.27694318323E+02 -0.52872908724E+03  0.52958954215E+03  0.00000000000E+00 0.  1.
</event>
<event>
 4    1  0.2293753E+005  0.3346581E+02  0.7546771E-02  0.1391682E+00
          2   -1    0    0  502    0  0.00000000000E+00  0.00000000000E+00  0.53571939865E+03  0.53571939865E+03  0.00000000000E+00 0.  1.
         21   -1    0    0  503  502 -0.00000000000E+00 -0.00000000000E+00 -0.35200658795E+01  0.35200658795E+01  0.00000000000E+00 0. -1.
          2    1    1    2  501    0  0.13901445898E+02  0.30441912996E+02  0.43791714642E+03  0.43919402021E+03  0.00000000000E+00 0.  1.
         21    1    1    2  503  501 -0.13901445898E+02 -0.30441912996E+02  0.94282186351E+02  0.10004544431E+03  0.00000000000E+00 0. -1.
</event>
<event>
 4    1  0.2293753E+005  0.2014859E+02  0.7546771E-02  0.1531776E+00
          2   -1    0    0  502    0  0.00000000000E+00  0.00000000000E+00  0.11547489502E+03  0.11547489502E+03  0.00000000000E+00 0. -1.
         21   -1    0    0  503  502 -0.00000000000E+00 -0.00000000000E+00 -0.51145736439E+01  0.51145736439E+01  0.00000000000E+00 0.  1.
          2    1    1    2  501    0  0.96234410323E+01 -0.17701841139E+02  0.88892793247E+02  0.91147652127E+02  0.00000000000E+00 0. -1.
         21    1    1    2  503  501 -0.96234410323E+01  0.17701841139E+02  0.21467528128E+02  0.29441816536E+02  0.00000000000E+00 0.  1.
</event>
<event>
 4    1  0.2293753E+005  0.2107248E+02  0.7546771E-02  0.1518232E+00
          2   -1    0    0  502    0  0.00000000000E+00  0.00000000000E+00  0.10187181661E+04  0.10187181661E+04  0.00000000000E+00 0.  1.
         21   -1    0    0  503  502 -0.00000000000E+00 -0.00000000000E+00 -0.19010061321E+01  0.19010061321E+01  0.00000000000E+00 0. -1.
          2    1    1    2  501    0  0.21040789517E+02 -0.11552527377E+01  0.95640850249E+03  0.95664061856E+03  0.00000000000E+00 0.  1.
         21    1    1    2  503  501 -0.21040789517E+02  0.11552527377E+01  0.60408657468E+02  0.63978553668E+02  0.00000000000E+00 0. -1.
</event>
<event>
 4    1  0.2293753E+005  0.4688390E+02  0.7546771E-02  0.1312279E+00
          2   -1    0    0  503    0  0.00000000000E+00  0.00000000000E+00  0.17384237209E+04  0.17384237209E+04  0.00000000000E+00 0. -1.
         21   -1    0    0  501  502 -0.00000000000E+00 -0.00000000000E+00 -0.18463073849E+01  0.18463073849E+01  0.00000000000E+00 0. -1.
          2    1    1    2  501    0 -0.69215923395E+01  0.46370156215E+02  0.13567764377E+04  0.13575862410E+04  0.00000000000E+00 0. -1.
         21    1    1    2  503  502  0.69215923395E+01 -0.46370156215E+02  0.37980097579E+03  0.38268378727E+03  0.00000000000E+00 0. -1.
</event>
<event>
 4    1  0.2293753E+005  0.3712143E+02  0.7546771E-02  0.1366233E+00
          2   -1    0    0  503    0  0.00000000000E+00  0.00000000000E+00  0.41634128343E+01  0.41634128343E+01  0.00000000000E+00 0. -1.
         21   -1    0    0  501  502 -0.00000000000E+00 -0.00000000000E+00 -0.50346797272E+03  0.50346797272E+03  0.00000000000E+00 0.  1.
          2    1    1    2  501    0 -0.28725941370E+01 -0.37010112312E+02 -0.10108819925E+03  0.10768855203E+03  0.00000000000E+00 0. -1.
         21    1    1    2  503  502  0.28725941370E+01  0.37010112312E+02 -0.39821636063E+03  0.39994283352E+03  0.00000000000E+00 0.  1.
</event>
<event>
 4    1  0.2293753E+005  0.3965664E+02  0.7546771E-02  0.1350510E+00
          2   -1    0    0  503    0  0.00000000000E+00  0.00000000000E+00  0.82452886278E+03  0.82452886278E+03  0.00000000000E+00 0. -1.
         21   -1    0    0  501  502 -0.00000000000E+00 -0.00000000000E+00 -0.99756524739E+02  0.99756524739E+02  0.00000000000E+00 0. -1.
          2    1    1    2  501    0 -0.38413039966E+02 -0.98533161127E+01  0.82008948796E+03  0.82104775607E+03  0.00000000000E+00 0. -1.
         21    1    1    2  503  502  0.38413039966E+02  0.98533161127E+01 -0.95317149923E+02  0.10323763145E+03  0.00000000000E+00 0. -1.
</event>
<event>
 4    1  0.2293753E+005  0.2488676E+02  0.7546771E-02  0.1470074E+00
          2   -1    0    0  503    0  0.00000000000E+00  0.00000000000E+00  0.13068679759E+04  0.13068679759E+04  0.00000000000E+00 0. -1.
         21   -1    0    0  501  502 -0.00000000000E+00 -0.00000000000E+00 -0.11387377388E+01  0.11387377388E+01  0.00000000000E+00 0. -1.
          2    1    1    2  501    0 -0.21258811116E+02 -0.12938840198E+02  0.11525762741E+04  0.11528449238E+04  0.00000000000E+00 0. -1.
         21    1    1    2  503  502  0.21258811116E+02  0.12938840198E+02  0.15315296407E+03  0.15516178988E+03  0.00000000000E+00 0. -1.
</event>
<event>
 4    1  0.2293753E+005  0.2410367E+02  0.7546771E-02  0.1479086E+00
          2   -1    0    0  502    0  0.00000000000E+00  0.00000000000E+00  0.10470228749E+04  0.10470228749E+04  0.00000000000E+00 0. -1.
         21   -1    0    0  503  502 -0.00000000000E+00 -0.00000000000E+00 -0.72347146043E+00  0.72347146043E+00  0.00000000000E+00 0. -1.
          2    1    1    2  501    0  0.23331256932E+01  0.23990486334E+02  0.77602998323E+03  0.77640422576E+03  0.00000000000E+00 0. -1.
         21    1    1    2  503  501 -0.23331256932E+01 -0.23990486334E+02  0.27026942017E+03  0.27134212056E+03  0.00000000000E+00 0. -1.
</event>
<event>
 4    1  0.2293753E+005  0.2194604E+02  0.7546771E-02  0.1506174E+00
          2   -1    0    0  503    0  0.00000000000E+00  0.00000000000E+00  0.70806746951E+03  0.70806746951E+03  0.00000000000E+00 0. -1.
         21   -1    0    0  501  502 -0.00000000000E+00 -0.00000000000E+00 -0.17781257623E+03  0.17781257623E+03  0.00000000000E+00 0. -1.
          2    1    1    2  501    0  0.18849258381E+02 -0.11239847789E+02  0.70721944946E+03  0.70755987620E+03  0.00000000000E+00 0. -1.
         21    1    1    2  503  502 -0.18849258381E+02  0.11239847789E+02 -0.17696455618E+03  0.17832016954E+03  0.00000000000E+00 0. -1.
</event>
<event>
 4    1  0.2293753E+005  0.2748121E+02  0.7546771E-02  0.1442833E+00
          2   -1    0    0  502    0  0.00000000000E+00  0.00000000000E+00  0.25035388099E+03  0.25035388099E+03  0.00000000000E+00 0.  1.
         21   -1    0    0  503  502 -0.00000000000E+00 -0.00000000000E+00 -0.36388159598E+03  0.36388159598E+03  0.00000000000E+00 0.  1.
          2    1    1    2  501    0  0.19560836398E+02 -0.19302611061E+02  0.24907822022E+03  0.25058965841E+03  0.00000000000E+00 0.  1.
         21    1    1    2  503  501 -0.19560836398E+02  0.19302611061E+02 -0.36260593520E+03  0.36364581856E+03  0.00000000000E+00 0.  1.
</event>
<event>
 4    1  0.2293753E+005  0.3100475E+02  0.7546771E-02  0.1411061E+00
          2   -1    0    0  503    0  0.00000000000E+00  0.00000000000E+00  0.28514703257E+03  0.28514703257E+03  0.00000000000E+00 0. -1.
         21   -1    0    0  501  502 -0.00000000000E+00 -0.00000000000E+00 -0.78473134881E+01  0.78473134881E+01  0.00000000000E+00 0. -1.
          2    1    1    2  501    0  0.19191590713E+02  0.24351129913E+02  0.24929136989E+03  0.25121202556E+03  0.00000000000E+00 0. -1.
         21    1    1    2  503  502 -0.19191590713E+02 -0.24351129913E+02  0.28008349193E+02  0.41782320503E+02  0.00000000000E+00 0. -1.
</event>
<event>
 4    1  0.2293753E+005  0.2185651E+02  0.7546771E-02  0.1507379E+00
          2   -1    0    0  503    0  0.00000000000E+00  0.00000000000E+00  0.73832113754E+02  0.73832113754E+02  0.00000000000E+00 0.  1.
         21   -1    0    0  501  502 -0.00000000000E+00 -0.00000000000E+00 -0.82870253317E+01  0.82870253317E+01  0.00000000000E+00 0.  1.
          2    1    1    2  501    0 -0.16743539268E+02 -0.14048516944E+02  0.13547194504E+02  0.25714459249E+02  0.00000000000E+00 0.  1.
         21    1    1    2  503  502  0.16743539268E+02  0.14048516944E+02  0.51997893918E+02  0.56404679837E+02  0.00000000000E+00 0.  1.
</event>
<event>
 4    1  0.2293753E+005  0.2044196E+02  0.7546771E-02  0.1527383E+00
          2   -1    0    0  503    0  0.00000000000E+00  0.00000000000E+00  0.59257952494E+03  0.59257952494E+03  0.00000000000E+00 0.  1.
         21   -1    0    0  501  502 -0.00000000000E+00 -0.00000000000E+00 -0.40268569718E+01  0.40268569718E+01  0.00000000000E+00 0. -1.
          2    1    1    2  501    0  0.17283103968E+02 -0.10916411009E+02  0.56520419116E+03  0.56557373650E+03  0.00000000000E+00 0.  1.
         21    1    1    2  503  502 -0.17283103968E+02  0.10916411009E+02  0.23348476808E+02  0.31032645413E+02  0.00000000000E+00 0. -1.
</event>
<event>
 4    1  0.2293753E+005  0.2497217E+02  0.7546771E-02  0.1469115E+00
          2   -1    0    0  502    0  0.00000000000E+00  0.00000000000E+00  0.50976564687E+03  0.50976564687E+03  0.00000000000E+00 0.  1.
         21   -1    0    0  503  502 -0.00000000000E+00 -0.00000000000E+00 -0.36464794537E+01  0.36464794537E+01  0.00000000000E+00 0.  1.
          2    1    1    2  501    0 -0.22379185823E+02 -0.11080681617E+02  0.46232126908E+03  0.46299521089E+03  0.00000000000E+00 0.  1.
         21    1    1    2  503  501  0.22379185823E+02  0.11080681617E+02  0.43797898338E+02  0.50416915436E+02  0.00000000000E+00 0.  1.
</event>
<event>
 4    1  0.2293753E+005  0.2591964E+02  0.7546771E-02  0.1458773E+00
          2   -1    0    0  502    0  0.00000000000E+00  0.00000000000E+00  0.29051344768E+03  0.29051344768E+03  0.00000000000E+00 0. -1.
         21   -1    0    0  503  502 -0.00000000000E+00 -0.00000000000E+00 -0.69302351680E+01  0.69302351680E+01  0.00000000000E+00 0. -1.
          2    1    1    2  501    0 -0.24864959361E+02 -0.73185872784E+01  0.26318994893E+03  0.26446318674E+03  0.00000000000E+00 0. -1.
         21    1    1    2  503  501  0.24864959361E+02  0.73185872784E+01  0.20393263578E+02  0.32980496102E+02  0.00000000000E+00 0. -1.
</event>
<event>
 4    1  0.2293753E+005  0.2659975E+02  0.7546771E-02  0.1451671E+00
          2   -1    0    0  502    0  0.00000000000E+00  0.00000000000E+00  0.35964677909E+03  0.35964677909E+03  0.00000000000E+00 0. -1.
         21   -1    0    0  503  502 -0.00000000000E+00 -0.00000000000E+00 -0.68148064752E+02  0.68148064752E+02  0.00000000000E+00 0.  1.
          2    1    1    2  501    0  0.58988154555E+01 -0.25937434587E+02  0.35653671232E+03  0.35752758462E+03  0.00000000000E+00 0. -1.
         21    1    1    2  503  501 -0.58988154555E+01  0.25937434587E+02 -0.65037997980E+02  0.70267259217E+02  0.00000000000E+00 0.  1.
</event>
<event>
 4    1  0.2293753E+005  0.3581700E+02  0.7546771E-02  0.1374909E+00
          2   -1    0    0  503    0  0.00000000000E+00  0.00000000000E+00  0.17274110249E+04  0.17274110249E+04  0.00000000000E+00 0. -1.
         21   -1    0    0  501  502 -0.00000000000E+00 -0.00000000000E+00 -0.41653652036E+02  0.41653652036E+02  0.00000000000E+00 0.  1.
          2    1    1    2  501    0 -0.24461156510E+02  0.26163131632E+02  0.17194903488E+04  0.17198633427E+04  0.00000000000E+00 0. -1.
         21    1    1    2  503  502  0.24461156510E+02 -0.26163131632E+02 -0.33732975933E+02  0.49201334330E+02  0.00000000000E+00 0.  1.
</event>
<event>
 4    1  0.2293753E+005  0.3547216E+02  0.7546771E-02  0.1377274E+00
          2   -1    0    0  502    0  0.00000000000E+00  0.00000000000E+00  0.14497932691E+03  0.14497932691E+03  0.00000000000E+00 0. -1.
         21   -1    0    0  503  502 -0.00000000000E+00 -0.00000000000E+00 -0.16035542546E+02  0.16035542546E+02  0.00000000000E+00 0. -1.
          2    1    1    2  501    0 -0.23361817903E+02  0.26692692864E+02  0.11900136226E+03  0.12417567639E+03  0.00000000000E+00 0. -1.
         21    1    1    2  503  501  0.23361817903E+02 -0.26692692864E+02  0.99424221030E+01  0.36839193061E+02  0.00000000000E+00 0. -1.
</event>
<event>
 4    1  0.2293753E+005  0.3482798E+02  0.7546771E-02  0.1381777E+00
          2   -1    0    0  503    0  0.00000000000E+00  0.00000000000E+00  0.51731683268E+03  0.51731683268E+03  0.00000000000E+00 0.  1.
         21   -1    0    0  501  502 -0.00000000000E+00 -0.00000000000E+00 -0.40356325560E+01  0.40356325560E+01  0.00000000000E+00 0.  1.
          2    1    1    2  501    0 -0.25922726332E+02 -0.23259409899E+02  0.42537361009E+03  0.42679701973E+03  0.00000000000E+00 0.  1.
         21    1    1    2  503  502  0.25922726332E+02  0.23259409899E+02  0.87907590039E+02  0.94555445511E+02  0.00000000000E+00 0.  1.
</event>
<event>
 4    1  0.2293753E+005  0.2405033E+02  0.7546771E-02  0.1479714E+00
          2   -1    0    0  502    0  0.00000000000E+00  0.00000000000E+00  0.15598867430E+04  0.15598867430E+04  0.00000000000E+00 0.  1.
         21   -1    0    0  503  502 -0.00000000000E+00 -0.00000000000E+00 -0.21109394391E+02  0.21109394391E+02  0.00000000000E+00 0.  1.
          2    1    1    2  501    0 -0.24044275617E+02  0.53946755190E+00  0.15529130338E+04  0.15530992592E+04  0.00000000000E+00 0.  1.
         21    1    1    2  503  501  0.24044275617E+02 -0.53946755190E+00 -0.14135685248E+02  0.27896878188E+02  0.00000000000E+00 0.  1.
</event>
<event>
 4    1  0.2293753E+005  0.2981560E+02  0.7546771E-02  0.1421206E+00
          2   -1    0    0  503    0  0.00000000000E+00  0.00000000000E+00  0.21732176432E+04  0.21732176432E+04  0.00000000000E+00 0.  1.
         21   -1    0    0  501  502 -0.00000000000E+00 -0.00000000000E+00 -0.12862226526E+01  0.12862226526E+01  0.00000000000E+00 0. -1.
          2    1    1    2  501    0 -0.53559369624E+01 -0.29330594279E+02  0.19838346083E+04  0.19840586490E+04  0.00000000000E+00 0.  1.
         21    1    1    2  503  502  0.53559369624E+01  0.29330594279E+02  0.18809681225E+03  0.19044521680E+03  0.00000000000E+00 0. -1.
</event>
<event>
 4    1  0.2293753E+005  0.2227243E+02  0.7546771E-02  0.1501842E+00
          2   -1    0    0  502    0  0.00000000000E+00  0.00000000000E+00  0.10080743949E+04  0.10080743949E+04  0.00000000000E+00 0.  1.
         21   -1    0    0  503  502 -0.00000000000E+00 -0.00000000000E+00 -0.68653231017E+00  0.68653231017E+00  0.00000000000E+00 0.  1.
          2    1    1    2  501    0  0.11398593026E+01  0.22243239639E+02  0.77212065123E+03  0.77244181725E+03  0.00000000000E+00 0.  1.
         21    1    1    2  503  501 -0.11398593026E+01 -0.22243239639E+02  0.23526721137E+03  0.23631910997E+03  0.00000000000E+00 0.  1.
</event>
<event>
 4    1  0.2293753E+005  0.2338546E+02  0.7546771E-02  0.1487714E+00
          2   -1    0    0  502    0  0.00000000000E+00  0.00000000000E+00  0.28019031186E+03  0.28019031186E+03  0.00000000000E+00 0.  1.
         21   -1    0    0  503  502 -0.00000000000E+00 -0.00000000000E+00 -0.19262467013E+02  0.19262467013E+02  0.00000000000E+00 0.  1.
          2    1    1    2  501    0  0.13868366977E+02  0.18829444776E+02  0.27240206370E+03  0.27340403051E+03  0.00000000000E+00 0.  1.
         21    1    1    2  503  501 -0.13868366977E+02 -0.18829444776E+02 -0.11474218848E+02  0.26048748364E+02  0.00000000000E+00 0.  1.
</event>
<event>
 4    1  0.2293753E+005  0.2110421E+02  0.7546771E-02  0.1517782E+00
          2   -1    0    0  503    0  0.00000000000E+00  0.00000000000E+00  0.79759394462E+03  0.79759394462E+03  0.00000000000E+00 0. -1.
         21   -1    0    0  501  502 -0.00000000000E+00 -0.00000000000E+00 -0.10189596164E+01  0.10189596164E+01  0.00000000000E+00 0.  1.
          2    1    1    2  501    0 -0.12309189232E+02 -0.17142676136E+02  0.66673801340E+03  0.66707193465E+03  0.00000000000E+00 0. -1.
         21    1    1    2  503  502  0.12309189232E+02  0.17142676136E+02  0.12983697161E+03  0.13154096959E+03  0.00000000000E+00 0.  1.
</event>
<event>
 4    1  0.2293753E+005  0.2853981E+02  0.7546771E-02  0.1432725E+00
          2   -1    0    0  503    0  0.00000000000E+00  0.00000000000E+00  0.21095431039E+04  0.21095431039E+04  0.00000000000E+00 0.  1.
         21   -1    0    0  501  502 -0.00000000000E+00 -0.00000000000E+00 -0.86694071014E+01  0.86694071014E+01  0.00000000000E+00 0.  1.
          2    1    1    2  501    0 -0.18112279920E+02  0.22055972070E+02  0.20856895989E+04  0.20858848538E+04  0.00000000000E+00 0.  1.
         21    1    1    2  503  502  0.18112279920E+02 -0.22055972070E+02  0.15184097909E+02  0.32327657155E+02  0.00000000000E+00 0.  1.
</event>
<event>
 4    1  0.2293753E+005  0.5189577E+02  0.7546771E-02  0.1290156E+00
          2   -1    0    0  503    0  0.00000000000E+00  0.00000000000E+00  0.50195905867E+03  0.50195905867E+03  0.00000000000E+00 0.  1.
         21   -1    0    0  501  502 -0.00000000000E+00 -0.00000000000E+00 -0.31755838836E+02  0.31755838836E+02  0.00000000000E+00 0.  1.
          2    1    1    2  501    0  0.51273881376E+02  0.80099965228E+01  0.47837325932E+03  0.48117995198E+03  0.00000000000E+00 0.  1.
         21    1    1    2  503  502 -0.51273881376E+02 -0.80099965228E+01 -0.81700394893E+01  0.52534945521E+02  0.00000000000E+00 0.  1.
</event>
<event>
 4    1  0.2293753E+005  0.3485281E+02  0.7546771E-02  0.1381601E+00
          2   -1    0    0  502    0  0.00000000000E+00  0.00000000000E+00  0.91995456307E+03  0.91995456307E+03  0.00000000000E+00 0. -1.
         21   -1    0    0  503  502 -0.00000000000E+00 -0.00000000000E+00 -0.82817457637E+02  0.82817457637E+02  0.00000000000E+00 0.  1.
          2    1    1    2  501    0 -0.75017925072E+01  0.34035883118E+02  0.91594154612E+03  0.91660440439E+03  0.00000000000E+00 0. -1.
         21    1    1    2  503  501  0.75017925072E+01 -0.34035883118E+02 -0.78804440687E+02  0.86167616321E+02  0.00000000000E+00 0.  1.
</event>
<event>
 4    1  0.2293753E+005  0.3912493E+02  0.7546771E-02  0.1353691E+00
          2   -1    0    0  502    0  0.00000000000E+00  0.00000000000E+00  0.19596695036E+04  0.19596695036E+04  0.00000000000E+00 0.  1.
         21   -1    0    0  503  502 -0.00000000000E+00 -0.00000000000E+00 -0.39294580366E+01  0.39294580366E+01  0.00000000000E+00 0.  1.
          2    1    1    2  501    0  0.36804895714E+02  0.13272534155E+02  0.18566827192E+04  0.18570949034E+04  0.00000000000E+00 0.  1.
         21    1    1    2  503  501 -0.36804895714E+02 -0.13272534155E+02  0.99057326354E+02  0.10650405821E+03  0.00000000000E+00 0.  1.
</event>
<event>
 4    1  0.2293753E+005  0.2429905E+02  0.7546771E-02  0.1476800E+00
          2   -1    0    0  503    0  0.00000000000E+00  0.00000000000E+00  0.36898198473E+03  0.36898198473E+03  0.00000000000E+00 0. -1.
         21   -1    0    0  501  502 -0.00000000000E+00 -0.00000000000E+00 -0.54536023508E+01  0.54536023508E+01  0.00000000000E+00 0.  1.
          2    1    1    2  501    0  0.21362649794E+02 -0.11579331801E+02  0.33913629727E+03  0.34000569386E+03  0.00000000000E+00 0. -1.
         21    1    1    2  503  502 -0.21362649794E+02  0.11579331801E+02  0.24392085107E+02  0.34429893219E+02  0.00000000000E+00 0.  1.
</event>
<event>
 4    1  0.2293753E+005  0.2096062E+02  0.7546771E-02  0.1519828E+00
          2   -1    0    0  503    0  0.00000000000E+00  0.00000000000E+00  0.44568921921E+03  0.44568921921E+03  0.00000000000E+00 0.  1.
         21   -1    0    0  501  502 -0.00000000000E+00 -0.00000000000E+00 -0.11156025706E+02  0.11156025706E+02  0.00000000000E+00 0.  1.
          2    1    1    2  501    0  0.14808186860E+02 -0.14834597291E+02  0.43536388557E+03  0.43586816876E+03  0.00000000000E+00 0.  1.
         21    1    1    2  503  502 -0.14808186860E+02  0.14834597291E+02 -0.83069206813E+00  0.20977076159E+02  0.00000000000E+00 0.  1.
</event>
<event>
 4    1  0.2293753E+005  0.2472835E+02  0.7546771E-02  0.1471865E+00
          2   -1    0    0  502    0  0.00000000000E+00  0.00000000000E+00  0.18480819026E+03  0.18480819026E+03  0.00000000000E+00 0. -1.
         21   -1    0    0  503  502 -0.00000000000E+00 -0.00000000000E+00 -0.12433047360E+02  0.12433047360E+02  0.00000000000E+00 0. -1.
          2    1    1    2  501    0 -0.18562293867E+02  0.16338073547E+02  0.17067220102E+03  0.17245431744E+03  0.00000000000E+00 0. -1.
         21    1    1    2  503  501  0.18562293867E+02 -0.16338073547E+02  0.17029418704E+01  0.24786920177E+02  0.00000000000E+00 0. -1.
</event>
<event>
 4    1  0.2293753E+005  0.2471279E+02  0.7546771E-02  0.1472042E+00
          2   -1    0    0  502    0  0.00000000000E+00  0.00000000000E+00  0.66992889969E+03  0.66992889969E+03  0.00000000000E+00 0.  1.
         21   -1    0    0  503  502 -0.00000000000E+00 -0.00000000000E+00 -0.43628602914E+03  0.43628602914E+03  0.00000000000E+00 0.  1.
          2    1    1    2  501    0  0.98791184218E+01 -0.22652267599E+02  0.66935073673E+03  0.66980678630E+03  0.00000000000E+00 0.  1.
         21    1    1    2  503  501 -0.98791184218E+01  0.22652267599E+02 -0.43570786619E+03  0.43640814253E+03  0.00000000000E+00 0.  1.
</event>
<event>
 4    1  0.2293753E+005  0.2348359E+02  0.7546771E-02  0.1486513E+00
          2   -1    0    0  502    0  0.00000000000E+00  0.00000000000E+00  0.13654219654E+04  0.13654219654E+04  0.00000000000E+00 0. -1.
         21   -1    0    0  503  502 -0.00000000000E+00 -0.00000000000E+00 -0.12989411884E+01  0.12989411884E+01  0.00000000000E+00 0. -1.
          2    1    1    2  501    0 -0.21603088744E+02  0.92079009505E+01  0.12493177530E+04  0.12495384455E+04  0.00000000000E+00 0. -1.
         21    1    1    2  503  501  0.21603088744E+02 -0.92079009505E+01  0.11480527125E+03  0.11718246111E+03  0.00000000000E+00 0. -1.
</event>
<event>
 4    1  0.2293753E+005  0.2716870E+02  0.7546771E-02  0.1445921E+00
          2   -1    0    0  503    0  0.00000000000E+00  0.00000000000E+00  0.13707134033E+03  0.13707134033E+03  0.00000000000E+00 0.  1.
         21   -1    0    0  501  502 -0.00000000000E+00 -0.00000000000E+00 -0.10623259699E+02  0.10623259699E+02  0.00000000000E+00 0. -1.
          2    1    1    2  501    0 -0.36927060854E+01  0.26916574948E+02  0.11507974473E+03  0.11824333272E+03  0.00000000000E+00 0.  1.
         21    1    1    2  503  502  0.36927060854E+01 -0.26916574948E+02  0.11368335904E+02  0.29451267314E+02  0.00000000000E+00 0. -1.
</event>
<event>
 4    1  0.2293753E+005  0.4810128E+02  0.7546771E-02  0.1306621E+00
          2   -1    0    0  503    0  0.00000000000E+00  0.00000000000E+00  0.10619524870E+04  0.10619524870E+04  0.00000000000E+00 0. -1.
         21   -1    0    0  501  502 -0.00000000000E+00 -0.00000000000E+00 -0.26987773735E+01  0.26987773735E+01  0.00000000000E+00 0. -1.
          2    1    1    2  501    0 -0.18539204180E+02 -0.44385032800E+02  0.76329810425E+03  0.76481221825E+03  0.00000000000E+00 0. -1.
         21    1    1    2  503  502  0.18539204180E+02  0.44385032800E+02  0.29595560539E+03  0.29983904614E+03  0.00000000000E+00 0. -1.
</event>
<event>
 4    1  0.2293753E+005  0.2177464E+02  0.7546771E-02  0.1508486E+00
          2   -1    0    0  502    0  0.00000000000E+00  0.00000000000E+00  0.28978976824E+03  0.28978976824E+03  0.00000000000E+00 0.  1.
         21   -1    0    0  503  502 -0.00000000000E+00 -0.00000000000E+00 -0.19235399474E+01  0.19235399474E+01  0.00000000000E+00 0.  1.
          2    1    1    2  501    0 -0.11674554321E+02  0.18380412692E+02  0.20031294734E+03  0.20149295685E+03  0.00000000000E+00 0.  1.
         21    1    1    2  503  501  0.11674554321E+02 -0.18380412692E+02  0.87553280955E+02  0.90220351336E+02  0.00000000000E+00 0.  1.
</event>
<event>
 4    1  0.2293753E+005  0.2294987E+02  0.7546771E-02  0.1493129E+00
          2   -1    0    0  503    0  0.00000000000E+00  0.00000000000E+00  0.50000978219E+02  0.50000978219E+02  0.00000000000E+00 0.  1.
         21   -1    0    0  501  502 -0.00000000000E+00 -0.00000000000E+00 -0.70908231598E+02  0.70908231598E+02  0.00000000000E+00 0. -1.
          2    1    1    2  501    0  0.22875984954E+02 -0.18400673180E+01  0.45330142933E+02  0.50808644872E+02  0.00000000000E+00 0.  1.
         21    1    1    2  503  502 -0.22875984954E+02  0.18400673180E+01 -0.66237396312E+02  0.70100564945E+02  0.00000000000E+00 0. -1.
</event>
<event>
 4    1  0.2293753E+005  0.2177492E+02  0.7546771E-02  0.1508482E+00
          2   -1    0    0  503    0  0.00000000000E+00  0.00000000000E+00  0.19362743503E+02  0.19362743503E+02  0.00000000000E+00 0.  1.
         21   -1    0    0  501  502 -0.00000000000E+00 -0.00000000000E+00 -0.30101994188E+02  0.30101994188E+02  0.00000000000E+00 0.  1.
          2    1    1    2  501    0  0.18979742544E+02 -0.10673173877E+02  0.53115546170E+01  0.22413386181E+02  0.00000000000E+00 0.  1.
         21    1    1    2  503  502 -0.18979742544E+02  0.10673173877E+02 -0.16050805302E+02  0.27051351509E+02  0.00000000000E+00 0.  1.
</event>
<event>
 4    1  0.2293753E+005  0.6964103E+02  0.7546771E-02  0.1230182E+00
          2   -1    0    0  502    0  0.00000000000E+00  0.00000000000E+00  0.11216241754E+04  0.11216241754E+04  0.00000000000E+00 0. -1.
         21   -1    0    0  503  502 -0.00000000000E+00 -0.00000000000E+00 -0.83682030656E+01  0.83682030656E+01  0.00000000000E+00 0. -1.
          2    1    1    2  501    0 -0.64278075556E+02  0.26799293576E+02  0.94940613325E+03  0.95195686824E+03  0.00000000000E+00 0. -1.
         21    1    1    2  503  501  0.64278075556E+02 -0.26799293576E+02  0.16384983907E+03  0.17803551021E+03  0.00000000000E+00 0. -1.
</event>
<event>
 4    1  0.2293753E+005  0.2398169E+02  0.7546771E-02  0.1480526E+00
          2   -1    0    0  502    0  0.00000000000E+00  0.00000000000E+00  0.79830055273E+02  0.79830055273E+02  0.00000000000E+00 0.  1.
         21   -1    0    0  503  502 -0.00000000000E+00 -0.00000000000E+00 -0.13878430948E+02  0.13878430948E+02  0.00000000000E+00 0. -1.
          2    1    1    2  501    0 -0.21672822446E+02 -0.10266942876E+02  0.65467735397E+02  0.69721917119E+02  0.00000000000E+00 0.  1.
         21    1    1    2  503  501  0.21672822446E+02  0.10266942876E+02  0.48388892884E+00  0.23986569102E+02  0.00000000000E+00 0. -1.
</event>
<event>
 4    1  0.2293753E+005  0.2478198E+02  0.7546771E-02  0.1471257E+00
          2   -1    0    0  503    0  0.00000000000E+00  0.00000000000E+00  0.90808519483E+03  0.90808519483E+03  0.00000000000E+00 0.  1.
         21   -1    0    0  501  502 -0.00000000000E+00 -0.00000000000E+00 -0.30188341870E+01  0.30188341870E+01  0.00000000000E+00 0.  1.
          2    1    1    2  501    0 -0.23921796941E+02  0.64725656829E+01  0.85382512974E+03  0.85418469821E+03  0.00000000000E+00 0.  1.
         21    1    1    2  503  502  0.23921796941E+02 -0.64725656829E+01  0.51241230905E+02  0.56919330812E+02  0.00000000000E+00 0.  1.
</event>
