<event>
 4    1  0.3080871E+006  0.2325462E+02  0.7546771E-02  0.1489325E+00
         21   -1    0    0  504  501  0.00000000000E+00  0.00000000000E+00  0.14874301255E+01  0.14874301255E+01  0.00000000000E+00 0. -1.
         21   -1    0    0  503  502 -0.00000000000E+00 -0.00000000000E+00 -0.54129342620E+03  0.54129342620E+03  0.00000000000E+00 0. -1.
         21    1    1    2  503  501 -0.78530970391E+01 -0.21888493653E+02 -0.42541245310E+03  0.42604757075E+03  0.00000000000E+00 0. -1.
         21    1    1    2  504  502  0.78530970391E+01  0.21888493653E+02 -0.11439354298E+03  0.11673328558E+03  0.00000000000E+00 0. -1.
</event>
<event>
 4    1  0.3080871E+006  0.2104922E+02  0.7546771E-02  0.1518563E+00
         21   -1    0    0  504  501  0.00000000000E+00  0.00000000000E+00  0.16139734243E+01  0.16139734243E+01  0.00000000000E+00 0.  1.
         21   -1    0    0  501  502 -0.00000000000E+00 -0.00000000000E+00 -0.37660209757E+03  0.37660209757E+03  0.00000000000E+00 0.  1.
         21    1    1    2  503  502  0.19496305989E+02 -0.79349657441E+01 -0.28594984759E+03  0.28672353403E+03  0.00000000000E+00 0.  1.
         21    1    1    2  504  503 -0.19496305989E+02  0.79349657441E+01 -0.89038276554E+02  0.91492536965E+02  0.00000000000E+00 0.  1.
</event>
<event>
 4    1  0.3080871E+006  0.4977501E+02  0.7546771E-02  0.1299151E+00
         21   -1    0    0  504  501  0.00000000000E+00  0.00000000000E+00  0.30257369739E+02  0.30257369739E+02  0.00000000000E+00 0.  1.
         21   -1    0    0  501  502 -0.00000000000E+00 -0.00000000000E+00 -0.18022705356E+03  0.18022705356E+03  0.00000000000E+00 0.  1.
         21    1    1    2  503  502  0.25482217535E+01 -0.49709744199E+02 -0.15272669897E+03  0.16063311203E+03  0.00000000000E+00 0.  1.
         21    1    1    2  504  503 -0.25482217535E+01  0.49709744199E+02  0.27570151510E+01  0.49851311266E+02  0.00000000000E+00 0.  1.
</event>
<event>
 4    1  0.3080871E+006  0.2068691E+02  0.7546771E-02  0.1523782E+00
         21   -1    0    0  504  501  0.00000000000E+00  0.00000000000E+00  0.11938087052E+02  0.11938087052E+02  0.00000000000E+00 0. -1.
         21   -1    0    0  501  502 -0.00000000000E+00 -0.00000000000E+00 -0.13568389465E+03  0.13568389465E+03  0.00000000000E+00 0. -1.
         21    1    1    2  503  502 -0.10698363589E+02 -0.17705745387E+02 -0.12518719149E+03  0.12688491367E+03  0.00000000000E+00 0. -1.
         21    1    1    2  504  503  0.10698363589E+02  0.17705745387E+02  0.14413838912E+01  0.20737068036E+02  0.00000000000E+00 0. -1.
</event>
<event>
 4    1  0.3080871E+006  0.3491013E+02  0.7546771E-02  0.1381196E+00
         21   -1    0    0  503  501  0.00000000000E+00  0.00000000000E+00  0.28131604182E+01  0.28131604182E+01  0.00000000000E+00 0. -1.
         21   -1    0    0  504  502 -0.00000000000E+00 -0.00000000000E+00 -0.48154941105E+03  0.48154941105E+03  0.00000000000E+00 0.  1.
         21    1    1    2  503  502  0.28185330736E+02 -0.20598652823E+02 -0.16264507036E+03  0.16634944028E+03  0.00000000000E+00 0. -1.
         21    1    1    2  504  501 -0.28185330736E+02  0.20598652823E+02 -0.31609118027E+03  0.31801313119E+03  0.00000000000E+00 0.  1.
</event>
<event>
 4    1  0.3080871E+006  0.2050100E+02  0.7546771E-02  0.1526510E+00
         21   -1    0    0  503  501  0.00000000000E+00  0.00000000000E+00  0.22799818429E+03  0.22799818429E+03  0.00000000000E+00 0. -1.
         21   -1    0    0  504  502 -0.00000000000E+00 -0.00000000000E+00 -0.45581849054E+01  0.45581849054E+01  0.00000000000E+00 0.  1.
         21    1    1    2  503  502 -0.20048039473E+02 -0.42857003248E+01  0.21983268516E+02  0.30059195076E+02  0.00000000000E+00 0.  1.
         21    1    1    2  504  501  0.20048039473E+02  0.42857003248E+01  0.20145673087E+03  0.20249717412E+03  0.00000000000E+00 0. -1.
</event>
<event>
 4    1  0.3080871E+006  0.3308130E+02  0.7546771E-02  0.1394578E+00
         21   -1    0    0  502  501  0.00000000000E+00  0.00000000000E+00  0.60159953269E+03  0.60159953269E+03  0.00000000000E+00 0. -1.
         21   -1    0    0  504  502 -0.00000000000E+00 -0.00000000000E+00 -0.81851723862E+01  0.81851723862E+01  0.00000000000E+00 0.  1.
         21    1    1    2  503  501  0.24803616995E+02 -0.21889566542E+02  0.56559321196E+03  0.56655984146E+03  0.00000000000E+00 0. -1.
         21    1    1    2  504  503 -0.24803616995E+02  0.21889566542E+02  0.27821148340E+02  0.43224863613E+02  0.00000000000E+00 0.  1.
</event>
<event>
 4    1  0.3080871E+006  0.2261345E+02  0.7546771E-02  0.1497410E+00
         21   -1    0    0  503  501  0.00000000000E+00  0.00000000000E+00  0.16374940343E+02  0.16374940343E+02  0.00000000000E+00 0.  1.
         21   -1    0    0  501  502 -0.00000000000E+00 -0.00000000000E+00 -0.74846227479E+02  0.74846227479E+02  0.00000000000E+00 0.  1.
         21    1    1    2  503  504 -0.18501887011E+02 -0.13001860000E+02  0.55829456039E+01  0.23292433708E+02  0.00000000000E+00 0.  1.
         21    1    1    2  504  502  0.18501887011E+02  0.13001860000E+02 -0.64054232740E+02  0.67928734114E+02  0.00000000000E+00 0.  1.
</event>
<event>
 4    1  0.3080871E+006  0.3182249E+02  0.7546771E-02  0.1404393E+00
         21   -1    0    0  504  501  0.00000000000E+00  0.00000000000E+00  0.34781793923E+03  0.34781793923E+03  0.00000000000E+00 0.  1.
         21   -1    0    0  501  502 -0.00000000000E+00 -0.00000000000E+00 -0.10305314761E+02  0.10305314761E+02  0.00000000000E+00 0.  1.
         21    1    1    2  503  502  0.31793198725E+02  0.13649785922E+01  0.17084007354E+02  0.36118332727E+02  0.00000000000E+00 0.  1.
         21    1    1    2  504  503 -0.31793198725E+02 -0.13649785922E+01  0.32042861711E+03  0.32200492126E+03  0.00000000000E+00 0.  1.
</event>
<event>
 4    1  0.3080871E+006  0.2944639E+02  0.7546771E-02  0.1424469E+00
         21   -1    0    0  502  501  0.00000000000E+00  0.00000000000E+00  0.16892467622E+04  0.16892467622E+04  0.00000000000E+00 0. -1.
         21   -1    0    0  503  502 -0.00000000000E+00 -0.00000000000E+00 -0.59858958520E+00  0.59858958520E+00  0.00000000000E+00 0. -1.
         21    1    1    2  503  504 -0.15863821535E+02  0.24807842785E+02  0.52538988734E+03  0.52621442741E+03  0.00000000000E+00 0. -1.
         21    1    1    2  504  501  0.15863821535E+02 -0.24807842785E+02  0.11632582853E+04  0.11636309244E+04  0.00000000000E+00 0. -1.
</event>
<event>
 4    1  0.3080871E+006  0.2927390E+02  0.7546771E-02  0.1426013E+00
         21   -1    0    0  503  501  0.00000000000E+00  0.00000000000E+00  0.42405900012E+03  0.42405900012E+03  0.00000000000E+00 0. -1.
         21   -1    0    0  504  502 -0.00000000000E+00 -0.00000000000E+00 -0.24253790207E+01  0.24253790207E+01  0.00000000000E+00 0. -1.
         21    1    1    2  503  502 -0.26406031938E+02  0.12636561800E+02  0.12372924343E+03  0.12714514107E+03  0.00000000000E+00 0. -1.
         21    1    1    2  504  501  0.26406031938E+02 -0.12636561800E+02  0.29790437766E+03  0.29933923807E+03  0.00000000000E+00 0. -1.
</event>
<event>
 4    1  0.3080871E+006  0.2130344E+02  0.7546771E-02  0.1514976E+00
         21   -1    0    0  502  501  0.00000000000E+00  0.00000000000E+00  0.27881946551E+02  0.27881946551E+02  0.00000000000E+00 0. -1.
         21   -1    0    0  504  502 -0.00000000000E+00 -0.00000000000E+00 -0.10745921404E+03  0.10745921404E+03  0.00000000000E+00 0. -1.
         21    1    1    2  503  501  0.18921196728E+01  0.21219245427E+02  0.22546509587E+02  0.31019052015E+02  0.00000000000E+00 0. -1.
         21    1    1    2  504  503 -0.18921196728E+01 -0.21219245427E+02 -0.10212377708E+03  0.10432210858E+03  0.00000000000E+00 0. -1.
</event>
<event>
 4    1  0.3080871E+006  0.2695604E+02  0.7546771E-02  0.1448050E+00
         21   -1    0    0  503  501  0.00000000000E+00  0.00000000000E+00  0.10349793846E+02  0.10349793846E+02  0.00000000000E+00 0.  1.
         21   -1    0    0  504  502 -0.00000000000E+00 -0.00000000000E+00 -0.19813477537E+03  0.19813477537E+03  0.00000000000E+00 0. -1.
         21    1    1    2  503  502 -0.15561805933E+02 -0.22010418515E+02 -0.17765427770E+03  0.17968770329E+03  0.00000000000E+00 0. -1.
         21    1    1    2  504  501  0.15561805933E+02  0.22010418515E+02 -0.10130703817E+02  0.28796865923E+02  0.00000000000E+00 0.  1.
</event>
<event>
 4    1  0.3080871E+006  0.2092711E+02  0.7546771E-02  0.1520308E+00
         21   -1    0    0  502  501  0.00000000000E+00  0.00000000000E+00  0.47568014817E+01  0.47568014817E+01  0.00000000000E+00 0.  1.
         21   -1    0    0  504  502 -0.00000000000E+00 -0.00000000000E+00 -0.37390211676E+03  0.37390211676E+03  0.00000000000E+00 0. -1.
         21    1    1    2  503  501  0.63172912508E+01 -0.19950831587E+02 -0.20197235593E+02  0.29083881711E+02  0.00000000000E+00 0.  1.
         21    1    1    2  504  503 -0.63172912508E+01  0.19950831587E+02 -0.34894807968E+03  0.34957503653E+03  0.00000000000E+00 0. -1.
</event>
<event>
 4    1  0.3080871E+006  0.2776917E+02  0.7546771E-02  0.1440031E+00
         21   -1    0    0  504  501  0.00000000000E+00  0.00000000000E+00  0.64004686178E+01  0.64004686178E+01  0.00000000000E+00 0. -1.
         21   -1    0    0  501  502 -0.00000000000E+00 -0.00000000000E+00 -0.46258035563E+03  0.46258035563E+03  0.00000000000E+00 0.  1.
         21    1    1    2  503  502  0.26867937939E+02  0.70171634130E+01 -0.42974468462E+03  0.43064094166E+03  0.00000000000E+00 0.  1.
         21    1    1    2  504  503 -0.26867937939E+02 -0.70171634130E+01 -0.26435202385E+02  0.38339882584E+02  0.00000000000E+00 0. -1.
</event>
<event>
 4    1  0.3080871E+006  0.2146050E+02  0.7546771E-02  0.1512791E+00
         21   -1    0    0  503  501  0.00000000000E+00  0.00000000000E+00  0.44547190862E+01  0.44547190862E+01  0.00000000000E+00 0.  1.
         21   -1    0    0  504  502 -0.00000000000E+00 -0.00000000000E+00 -0.18011905370E+03  0.18011905370E+03  0.00000000000E+00 0. -1.
         21    1    1    2  503  502 -0.14032110474E+02 -0.16237391088E+02 -0.27596593167E+02  0.34958903703E+02  0.00000000000E+00 0.  1.
         21    1    1    2  504  501  0.14032110474E+02  0.16237391088E+02 -0.14806774145E+03  0.14961486908E+03  0.00000000000E+00 0. -1.
</event>
<event>
 4    1  0.3080871E+006  0.4524645E+02  0.7546771E-02  0.1320212E+00
         21   -1    0    0  503  501  0.00000000000E+00  0.00000000000E+00  0.24845305516E+02  0.24845305516E+02  0.00000000000E+00 0.  1.
         21   -1    0    0  504  502 -0.00000000000E+00 -0.00000000000E+00 -0.14038596033E+03  0.14038596033E+03  0.00000000000E+00 0.  1.
         21    1    1    2  503  502  0.58030185201E+01 -0.44872780274E+02 -0.11086654599E+03  0.11974402888E+03  0.00000000000E+00 0.  1.
         21    1    1    2  504  501 -0.58030185201E+01  0.44872780274E+02 -0.46741088266E+01  0.45487236966E+02  0.00000000000E+00 0.  1.
</event>
<event>
 4    1  0.3080871E+006  0.2128074E+02  0.7546771E-02  0.1515294E+00
         21   -1    0    0  503  501  0.00000000000E+00  0.00000000000E+00  0.14662019369E+04  0.14662019369E+04  0.00000000000E+00 0. -1.
         21   -1    0    0  501  502 -0.00000000000E+00 -0.00000000000E+00 -0.31998853426E+00  0.31998853426E+00  0.00000000000E+00 0. -1.
         21    1    1    2  503  504 -0.45387430057E+01  0.20791101200E+02  0.86960620573E+03  0.86986655477E+03  0.00000000000E+00 0. -1.
         21    1    1    2  504  502  0.45387430057E+01 -0.20791101200E+02  0.59627574260E+03  0.59665537062E+03  0.00000000000E+00 0. -1.
</event>
<event>
 4    1  0.3080871E+006  0.2287624E+02  0.7546771E-02  0.1494058E+00
         21   -1    0    0  504  501  0.00000000000E+00  0.00000000000E+00  0.37281670582E+03  0.37281670582E+03  0.00000000000E+00 0.  1.
         21   -1    0    0  503  502 -0.00000000000E+00 -0.00000000000E+00 -0.74867215266E+01  0.74867215266E+01  0.00000000000E+00 0. -1.
         21    1    1    2  503  501  0.11985178974E+01 -0.22844825560E+02  0.35406629165E+03  0.35480453969E+03  0.00000000000E+00 0.  1.
         21    1    1    2  504  502 -0.11985178974E+01  0.22844825560E+02  0.11263692647E+02  0.25498887663E+02  0.00000000000E+00 0. -1.
</event>
<event>
 4    1  0.3080871E+006  0.2146797E+02  0.7546771E-02  0.1512687E+00
         21   -1    0    0  504  501  0.00000000000E+00  0.00000000000E+00  0.34235590545E+02  0.34235590545E+02  0.00000000000E+00 0.  1.
         21   -1    0    0  501  502 -0.00000000000E+00 -0.00000000000E+00 -0.13859752191E+02  0.13859752191E+02  0.00000000000E+00 0.  1.
         21    1    1    2  503  502 -0.97773567411E+01  0.19112219215E+02  0.61132203135E+01  0.22321404319E+02  0.00000000000E+00 0.  1.
         21    1    1    2  504  503  0.97773567411E+01 -0.19112219215E+02  0.14262618040E+02  0.25773938417E+02  0.00000000000E+00 0.  1.
</event>
<event>
 4    1  0.3080871E+006  0.2572919E+02  0.7546771E-02  0.1460809E+00
         21   -1    0    0  503  501  0.00000000000E+00  0.00000000000E+00  0.21378384187E+03  0.21378384187E+03  0.00000000000E+00 0. -1.
         21   -1    0    0  504  502 -0.00000000000E+00 -0.00000000000E+00 -0.46907414289E+01  0.46907414289E+01  0.00000000000E+00 0.  1.
         21    1    1    2  503  502  0.13283708430E+02  0.22034848006E+02  0.16822918124E+03  0.17018533679E+03  0.00000000000E+00 0. -1.
         21    1    1    2  504  501 -0.13283708430E+02 -0.22034848006E+02  0.40863919201E+02  0.48289246513E+02  0.00000000000E+00 0.  1.
</event>
<event>
 4    1  0.3080871E+006  0.2577898E+02  0.7546771E-02  0.1460275E+00
         21   -1    0    0  504  501  0.00000000000E+00  0.00000000000E+00  0.17957419087E+02  0.17957419087E+02  0.00000000000E+00 0. -1.
         21   -1    0    0  503  502 -0.00000000000E+00 -0.00000000000E+00 -0.18191455051E+03  0.18191455051E+03  0.00000000000E+00 0.  1.
         21    1    1    2  503  501 -0.16332284855E+02  0.19945230221E+02  0.72149379226E+01  0.26769592197E+02  0.00000000000E+00 0. -1.
         21    1    1    2  504  502  0.16332284855E+02 -0.19945230221E+02 -0.17117206935E+03  0.17310237740E+03  0.00000000000E+00 0.  1.
</event>
<event>
 4    1  0.3080871E+006  0.2780553E+02  0.7546771E-02  0.1439680E+00
         21   -1    0    0  503  501  0.00000000000E+00  0.00000000000E+00  0.15504665011E+03  0.15504665011E+03  0.00000000000E+00 0.  1.
         21   -1    0    0  504  502 -0.00000000000E+00 -0.00000000000E+00 -0.88946665315E+01  0.88946665315E+01  0.00000000000E+00 0.  1.
         21    1    1    2  503  502  0.11963413155E+02 -0.25100284969E+02  0.12741071417E+03  0.13040949982E+03  0.00000000000E+00 0.  1.
         21    1    1    2  504  501 -0.11963413155E+02  0.25100284969E+02  0.18741269410E+02  0.33531816816E+02  0.00000000000E+00 0.  1.
</event>
<event>
 4    1  0.3080871E+006  0.3498416E+02  0.7546771E-02  0.1380675E+00
         21   -1    0    0  502  501  0.00000000000E+00  0.00000000000E+00  0.41451801008E+02  0.41451801008E+02  0.00000000000E+00 0. -1.
         21   -1    0    0  503  502 -0.00000000000E+00 -0.00000000000E+00 -0.20211696311E+03  0.20211696311E+03  0.00000000000E+00 0. -1.
         21    1    1    2  503  504 -0.34983311116E+02 -0.24376445380E+00 -0.19287070678E+03  0.19601785891E+03  0.00000000000E+00 0. -1.
         21    1    1    2  504  501  0.34983311116E+02  0.24376445380E+00  0.32205544680E+02  0.47550905206E+02  0.00000000000E+00 0. -1.
</event>
<event>
 4    1  0.3080871E+006  0.2001045E+02  0.7546771E-02  0.1533876E+00
         21   -1    0    0  502  501  0.00000000000E+00  0.00000000000E+00  0.33388799716E+00  0.33388799716E+00  0.00000000000E+00 0. -1.
         21   -1    0    0  503  502 -0.00000000000E+00 -0.00000000000E+00 -0.14704482753E+04  0.14704482753E+04  0.00000000000E+00 0. -1.
         21    1    1    2  503  504 -0.12918822448E+02 -0.15281425552E+02 -0.10508704284E+04  0.10510609284E+04  0.00000000000E+00 0. -1.
         21    1    1    2  504  501  0.12918822448E+02  0.15281425552E+02 -0.41924395893E+03  0.41972123491E+03  0.00000000000E+00 0. -1.
</event>
<event>
 4    1  0.3080871E+006  0.3696522E+02  0.7546771E-02  0.1367250E+00
         21   -1    0    0  503  501  0.00000000000E+00  0.00000000000E+00  0.22708778241E+03  0.22708778241E+03  0.00000000000E+00 0. -1.
         21   -1    0    0  504  502 -0.00000000000E+00 -0.00000000000E+00 -0.61738060611E+01  0.61738060611E+01  0.00000000000E+00 0. -1.
         21    1    1    2  503  502  0.36850550990E+02  0.29093045566E+01  0.12903393155E+03  0.13422437428E+03  0.00000000000E+00 0. -1.
         21    1    1    2  504  501 -0.36850550990E+02 -0.29093045566E+01  0.91880044802E+02  0.99037214187E+02  0.00000000000E+00 0. -1.
</event>
<event>
 4    1  0.3080871E+006  0.2067857E+02  0.7546771E-02  0.1523904E+00
         21   -1    0    0  504  501  0.00000000000E+00  0.00000000000E+00  0.23523545476E+02  0.23523545476E+02  0.00000000000E+00 0.  1.
         21   -1    0    0  501  502 -0.00000000000E+00 -0.00000000000E+00 -0.26296757445E+02  0.26296757445E+02  0.00000000000E+00 0.  1.
         21    1    1    2  503  502 -0.54609954977E+01  0.19944445789E+02 -0.15227964413E+02  0.25680620900E+02  0.00000000000E+00 0.  1.
         21    1    1    2  504  503  0.54609954977E+01 -0.19944445789E+02  0.12454752443E+02  0.24139682021E+02  0.00000000000E+00 0.  1.
</event>
<event>
 4    1  0.3080871E+006  0.2967602E+02  0.7546771E-02  0.1422433E+00
         21   -1    0    0  503  501  0.00000000000E+00  0.00000000000E+00  0.34180787852E+03  0.34180787852E+03  0.00000000000E+00 0.  1.
         21   -1    0    0  504  502 -0.00000000000E+00 -0.00000000000E+00 -0.91012014385E+01  0.91012014385E+01  0.00000000000E+00 0. -1.
         21    1    1    2  503  502  0.44778499239E+01 -0.29336242099E+02  0.31491123456E+03  0.31630642088E+03  0.00000000000E+00 0.  1.
         21    1    1    2  504  501 -0.44778499239E+01  0.29336242099E+02  0.17795442520E+02  0.34602659073E+02  0.00000000000E+00 0. -1.
</event>
<event>
 4    1  0.3080871E+006  0.2566626E+02  0.7546771E-02  0.1461486E+00
         21   -1    0    0  502  501  0.00000000000E+00  0.00000000000E+00  0.25924138339E+02  0.25924138339E+02  0.00000000000E+00 0. -1.
         21   -1    0    0  503  502 -0.00000000000E+00 -0.00000000000E+00 -0.27360161141E+02  0.27360161141E+02  0.00000000000E+00 0. -1.
         21    1    1    2  503  504  0.25374202830E+02 -0.38609020221E+01 -0.78291714581E+01  0.26833796962E+02  0.00000000000E+00 0. -1.
         21    1    1    2  504  501 -0.25374202830E+02  0.38609020221E+01  0.63931486561E+01  0.26450502517E+02  0.00000000000E+00 0. -1.
</event>
<event>
 4    1  0.3080871E+006  0.3530819E+02  0.7546771E-02  0.1378409E+00
         21   -1    0    0  502  501  0.00000000000E+00  0.00000000000E+00  0.10944498659E+03  0.10944498659E+03  0.00000000000E+00 0.  1.
         21   -1    0    0  504  502 -0.00000000000E+00 -0.00000000000E+00 -0.29806647970E+02  0.29806647970E+02  0.00000000000E+00 0. -1.
         21    1    1    2  503  501  0.27370156579E+02 -0.22305673911E+02  0.94547136431E+02  0.10092487090E+03  0.00000000000E+00 0.  1.
         21    1    1    2  504  503 -0.27370156579E+02  0.22305673911E+02 -0.14908797814E+02  0.38326763653E+02  0.00000000000E+00 0. -1.
</event>
<event>
 4    1  0.3080871E+006  0.3320765E+02  0.7546771E-02  0.1393621E+00
         21   -1    0    0  502  501  0.00000000000E+00  0.00000000000E+00  0.24361394220E+02  0.24361394220E+02  0.00000000000E+00 0.  1.
         21   -1    0    0  503  502 -0.00000000000E+00 -0.00000000000E+00 -0.32912399616E+03  0.32912399616E+03  0.00000000000E+00 0.  1.
         21    1    1    2  503  504 -0.30703850480E+02  0.12649965098E+02 -0.31652042193E+03  0.31825764021E+03  0.00000000000E+00 0.  1.
         21    1    1    2  504  501  0.30703850480E+02 -0.12649965098E+02  0.11757819991E+02  0.35227750173E+02  0.00000000000E+00 0.  1.
</event>
<event>
 4    1  0.3080871E+006  0.5269941E+02  0.7546771E-02  0.1286875E+00
         21   -1    0    0  502  501  0.00000000000E+00  0.00000000000E+00  0.10740099099E+02  0.10740099099E+02  0.00000000000E+00 0. -1.
         21   -1    0    0  504  502 -0.00000000000E+00 -0.00000000000E+00 -0.42150611561E+03  0.42150611561E+03  0.00000000000E+00 0. -1.
         21    1    1    2  503  501  0.31073361435E+02 -0.42563762175E+02 -0.71017419222E+02  0.88434730023E+02  0.00000000000E+00 0. -1.
         21    1    1    2  504  503 -0.31073361435E+02  0.42563762175E+02 -0.33974859729E+03  0.34381148468E+03  0.00000000000E+00 0. -1.
</event>
<event>
 4    1  0.3080871E+006  0.2562037E+02  0.7546771E-02  0.1461982E+00
         21   -1    0    0  502  501  0.00000000000E+00  0.00000000000E+00  0.10046382012E+03  0.10046382012E+03  0.00000000000E+00 0. -1.
         21   -1    0    0  504  502 -0.00000000000E+00 -0.00000000000E+00 -0.99271970498E+02  0.99271970498E+02  0.00000000000E+00 0. -1.
         21    1    1    2  503  501  0.11761002857E+02  0.22761419861E+02  0.97121412210E+02  0.10044387553E+03  0.00000000000E+00 0. -1.
         21    1    1    2  504  503 -0.11761002857E+02 -0.22761419861E+02 -0.95929562590E+02  0.99291915084E+02  0.00000000000E+00 0. -1.
</event>
<event>
 4    1  0.3080871E+006  0.2350601E+02  0.7546771E-02  0.1486240E+00
         21   -1    0    0  504  501  0.00000000000E+00  0.00000000000E+00  0.10743544336E+01  0.10743544336E+01  0.00000000000E+00 0.  1.
         21   -1    0    0  503  502 -0.00000000000E+00 -0.00000000000E+00 -0.56434151097E+03  0.56434151097E+03  0.00000000000E+00 0.  1.
         21    1    1    2  503  501 -0.22856078769E+02  0.54892944388E+01 -0.36582419404E+03  0.36657860499E+03  0.00000000000E+00 0.  1.
         21    1    1    2  504  502  0.22856078769E+02 -0.54892944388E+01 -0.19744296249E+03  0.19883726041E+03  0.00000000000E+00 0.  1.
</event>
<event>
 4    1  0.3080871E+006  0.5561508E+02  0.7546771E-02  0.1275506E+00
         21   -1    0    0  503  501  0.00000000000E+00  0.00000000000E+00  0.50193971233E+03  0.50193971233E+03  0.00000000000E+00 0.  1.
         21   -1    0    0  504  502 -0.00000000000E+00 -0.00000000000E+00 -0.91203152006E+02  0.91203152006E+02  0.00000000000E+00 0.  1.
         21    1    1    2  503  502  0.55534769894E+02 -0.29876796036E+01 -0.81008979173E+02  0.98262361071E+02  0.00000000000E+00 0.  1.
         21    1    1    2  504  501 -0.55534769894E+02  0.29876796036E+01  0.49174553949E+03  0.49488050326E+03  0.00000000000E+00 0.  1.
</event>
<event>
 4    1  0.3080871E+006  0.2172511E+02  0.7546771E-02  0.1509159E+00
         21   -1    0    0  502  501  0.00000000000E+00  0.00000000000E+00  0.62408601629E+01  0.62408601629E+01  0.00000000000E+00 0.  1.
         21   -1    0    0  503  502 -0.00000000000E+00 -0.00000000000E+00 -0.19662452896E+03  0.19662452896E+03  0.00000000000E+00 0.  1.
         21    1    1    2  503  504 -0.89742719374E+01  0.19784911066E+02 -0.17476132546E+03  0.17610650510E+03  0.00000000000E+00 0.  1.
         21    1    1    2  504  501  0.89742719374E+01 -0.19784911066E+02 -0.15622343337E+02  0.26758884021E+02  0.00000000000E+00 0.  1.
</event>
<event>
 4    1  0.3080871E+006  0.3426551E+02  0.7546771E-02  0.1385802E+00
         21   -1    0    0  502  501  0.00000000000E+00  0.00000000000E+00  0.36888480917E+03  0.36888480917E+03  0.00000000000E+00 0. -1.
         21   -1    0    0  503  502 -0.00000000000E+00 -0.00000000000E+00 -0.42230074725E+01  0.42230074725E+01  0.00000000000E+00 0. -1.
         21    1    1    2  503  504  0.22963498154E+02 -0.25432315170E+02  0.89747800829E+02  0.96066605311E+02  0.00000000000E+00 0. -1.
         21    1    1    2  504  501 -0.22963498154E+02  0.25432315170E+02  0.27491400087E+03  0.27704121133E+03  0.00000000000E+00 0. -1.
</event>
<event>
 4    1  0.3080871E+006  0.2254043E+02  0.7546771E-02  0.1498351E+00
         21   -1    0    0  503  501  0.00000000000E+00  0.00000000000E+00  0.90429943873E+02  0.90429943873E+02  0.00000000000E+00 0.  1.
         21   -1    0    0  504  502 -0.00000000000E+00 -0.00000000000E+00 -0.56450663079E+01  0.56450663079E+01  0.00000000000E+00 0.  1.
         21    1    1    2  503  502  0.16944970145E+02  0.14864016839E+02  0.39090414942E+02  0.45123514381E+02  0.00000000000E+00 0.  1.
         21    1    1    2  504  501 -0.16944970145E+02 -0.14864016839E+02  0.45694462623E+02  0.50951495799E+02  0.00000000000E+00 0.  1.
</event>
<event>
 4    1  0.3080871E+006  0.2159742E+02  0.7546771E-02  0.1510904E+00
         21   -1    0    0  502  501  0.00000000000E+00  0.00000000000E+00  0.14927443989E+02  0.14927443989E+02  0.00000000000E+00 0. -1.
         21   -1    0    0  503  502 -0.00000000000E+00 -0.00000000000E+00 -0.22412306226E+03  0.22412306226E+03  0.00000000000E+00 0. -1.
         21    1    1    2  503  504 -0.14789449111E+02 -0.15739149140E+02 -0.21547820066E+03  0.21655785273E+03  0.00000000000E+00 0. -1.
         21    1    1    2  504  501  0.14789449111E+02  0.15739149140E+02  0.62825823896E+01  0.22492653515E+02  0.00000000000E+00 0. -1.
</event>
<event>
 4    1  0.3080871E+006  0.2321341E+02  0.7546771E-02  0.1489836E+00
         21   -1    0    0  502  501  0.00000000000E+00  0.00000000000E+00  0.42485953096E+02  0.42485953096E+02  0.00000000000E+00 0. -1.
         21   -1    0    0  503  502 -0.00000000000E+00 -0.00000000000E+00 -0.14501375874E+02  0.14501375874E+02  0.00000000000E+00 0. -1.
         21    1    1    2  503  504  0.66555423658E+01 -0.22238844890E+02  0.39032765199E+01  0.23539287029E+02  0.00000000000E+00 0. -1.
         21    1    1    2  504  501 -0.66555423658E+01  0.22238844890E+02  0.24081300702E+02  0.33448041941E+02  0.00000000000E+00 0. -1.
</event>
<event>
 4    1  0.3080871E+006  0.2406381E+02  0.7546771E-02  0.1479555E+00
         21   -1    0    0  504  501  0.00000000000E+00  0.00000000000E+00  0.23292482468E+03  0.23292482468E+03  0.00000000000E+00 0.  1.
         21   -1    0    0  503  502 -0.00000000000E+00 -0.00000000000E+00 -0.25831207681E+01  0.25831207681E+01  0.00000000000E+00 0.  1.
         21    1    1    2  503  501 -0.16559318478E+02 -0.17460127662E+02  0.13799559487E+03  0.14007801858E+03  0.00000000000E+00 0.  1.
         21    1    1    2  504  502  0.16559318478E+02  0.17460127662E+02  0.92346109041E+02  0.95429926865E+02  0.00000000000E+00 0.  1.
</event>
<event>
 4    1  0.3080871E+006  0.2579126E+02  0.7546771E-02  0.1460143E+00
         21   -1    0    0  504  501  0.00000000000E+00  0.00000000000E+00  0.18172506909E+03  0.18172506909E+03  0.00000000000E+00 0. -1.
         21   -1    0    0  503  502 -0.00000000000E+00 -0.00000000000E+00 -0.16515829313E+03  0.16515829313E+03  0.00000000000E+00 0.  1.
         21    1    1    2  503  501 -0.23498031914E+02  0.10631639903E+02  0.17979229960E+03  0.18163276210E+03  0.00000000000E+00 0. -1.
         21    1    1    2  504  502  0.23498031914E+02 -0.10631639903E+02 -0.16322552365E+03  0.16525060012E+03  0.00000000000E+00 0.  1.
</event>
<event>
 4    1  0.3080871E+006  0.2752132E+02  0.7546771E-02  0.1442440E+00
         21   -1    0    0  503  501  0.00000000000E+00  0.00000000000E+00  0.24638361924E+03  0.24638361924E+03  0.00000000000E+00 0.  1.
         21   -1    0    0  504  502 -0.00000000000E+00 -0.00000000000E+00 -0.18184354142E+02  0.18184354142E+02  0.00000000000E+00 0.  1.
         21    1    1    2  503  502  0.19131379778E+02  0.19784172185E+02  0.23468464371E+03  0.23629283772E+03  0.00000000000E+00 0.  1.
         21    1    1    2  504  501 -0.19131379778E+02 -0.19784172185E+02 -0.64853786136E+01  0.28275135668E+02  0.00000000000E+00 0.  1.
</event>
<event>
 4    1  0.3080871E+006  0.2083974E+02  0.7546771E-02  0.1521565E+00
         21   -1    0    0  504  501  0.00000000000E+00  0.00000000000E+00  0.31901758012E+03  0.31901758012E+03  0.00000000000E+00 0.  1.
         21   -1    0    0  503  502 -0.00000000000E+00 -0.00000000000E+00 -0.61577561259E+01  0.61577561259E+01  0.00000000000E+00 0. -1.
         21    1    1    2  503  501  0.84349499154E+01  0.19056399777E+02  0.29992409974E+03  0.30064723574E+03  0.00000000000E+00 0.  1.
         21    1    1    2  504  502 -0.84349499154E+01 -0.19056399777E+02  0.12935724255E+02  0.24528100508E+02  0.00000000000E+00 0. -1.
</event>
<event>
 4    1  0.3080871E+006  0.3600883E+02  0.7546771E-02  0.1373606E+00
         21   -1    0    0  502  501  0.00000000000E+00  0.00000000000E+00  0.89889436247E+03  0.89889436247E+03  0.00000000000E+00 0. -1.
         21   -1    0    0  504  502 -0.00000000000E+00 -0.00000000000E+00 -0.19878377064E+03  0.19878377064E+03  0.00000000000E+00 0. -1.
         21    1    1    2  503  501 -0.24686890250E+02 -0.26214368962E+02  0.89689940597E+03  0.89762195835E+03  0.00000000000E+00 0. -1.
         21    1    1    2  504  503  0.24686890250E+02  0.26214368962E+02 -0.19678881414E+03  0.20005617476E+03  0.00000000000E+00 0. -1.
</event>
<event>
 4    1  0.3080871E+006  0.2032075E+02  0.7546771E-02  0.1529188E+00
         21   -1    0    0  503  501  0.00000000000E+00  0.00000000000E+00  0.10921612124E+02  0.10921612124E+02  0.00000000000E+00 0. -1.
         21   -1    0    0  504  502 -0.00000000000E+00 -0.00000000000E+00 -0.57612444232E+02  0.57612444232E+02  0.00000000000E+00 0. -1.
         21    1    1    2  503  502 -0.18294319964E+02 -0.88459385576E+01 -0.43435933703E+02  0.47954281441E+02  0.00000000000E+00 0. -1.
         21    1    1    2  504  501  0.18294319964E+02  0.88459385576E+01 -0.32548984051E+01  0.20579774915E+02  0.00000000000E+00 0. -1.
</event>
<event>
 4    1  0.3080871E+006  0.2055583E+02  0.7546771E-02  0.1525702E+00
         21   -1    0    0  502  501  0.00000000000E+00  0.00000000000E+00  0.12132363590E+03  0.12132363590E+03  0.00000000000E+00 0. -1.
         21   -1    0    0  504  502 -0.00000000000E+00 -0.00000000000E+00 -0.53915996612E+02  0.53915996612E+02  0.00000000000E+00 0. -1.
         21    1    1    2  503  501 -0.20341623500E+02  0.29597998642E+01  0.11844644330E+03  0.12021689561E+03  0.00000000000E+00 0. -1.
         21    1    1    2  504  503  0.20341623500E+02 -0.29597998642E+01 -0.51038804004E+02  0.55022736900E+02  0.00000000000E+00 0. -1.
</event>
<event>
 4    1  0.3080871E+006  0.2151600E+02  0.7546771E-02  0.1512024E+00
         21   -1    0    0  503  501  0.00000000000E+00  0.00000000000E+00  0.38118277438E+02  0.38118277438E+02  0.00000000000E+00 0.  1.
         21   -1    0    0  504  502 -0.00000000000E+00 -0.00000000000E+00 -0.25230839208E+03  0.25230839208E+03  0.00000000000E+00 0. -1.
         21    1    1    2  503  502  0.16352789981E+02 -0.13983003914E+02 -0.24877039397E+03  0.24969911304E+03  0.00000000000E+00 0. -1.
         21    1    1    2  504  501 -0.16352789981E+02  0.13983003914E+02  0.34580279325E+02  0.40727556479E+02  0.00000000000E+00 0.  1.
</event>
<event>
 4    1  0.3080871E+006  0.2781805E+02  0.7546771E-02  0.1439559E+00
         21   -1    0    0  503  501  0.00000000000E+00  0.00000000000E+00  0.44853947668E+03  0.44853947668E+03  0.00000000000E+00 0.  1.
         21   -1    0    0  504  502 -0.00000000000E+00 -0.00000000000E+00 -0.19081047628E+01  0.19081047628E+01  0.00000000000E+00 0. -1.
         21    1    1    2  503  502 -0.27251516771E+02  0.55855775738E+01  0.29303664509E+03  0.29435407116E+03  0.00000000000E+00 0. -1.
         21    1    1    2  504  501  0.27251516771E+02 -0.55855775738E+01  0.15359472683E+03  0.15609351029E+03  0.00000000000E+00 0.  1.
</event>
<event>
 4    1  0.3080871E+006  0.2337660E+02  0.7546771E-02  0.1487822E+00
         21   -1    0    0  504  501  0.00000000000E+00  0.00000000000E+00  0.15760697076E+03  0.15760697076E+03  0.00000000000E+00 0.  1.
         21   -1    0    0  503  502 -0.00000000000E+00 -0.00000000000E+00 -0.13234202234E+02  0.13234202234E+02  0.00000000000E+00 0.  1.
         21    1    1    2  503  501  0.18551676730E+02  0.14223252871E+02  0.14556893333E+03  0.14743398517E+03  0.00000000000E+00 0.  1.
         21    1    1    2  504  502 -0.18551676730E+02 -0.14223252871E+02 -0.11961648025E+01  0.23407187827E+02  0.00000000000E+00 0.  1.
</event>
<event>
 4    1  0.3080871E+006  0.2250059E+02  0.7546771E-02  0.1498866E+00
         21   -1    0    0  504  501  0.00000000000E+00  0.00000000000E+00  0.35311492835E+02  0.35311492835E+02  0.00000000000E+00 0. -1.
         21   -1    0    0  501  502 -0.00000000000E+00 -0.00000000000E+00 -0.69064260828E+02  0.69064260828E+02  0.00000000000E+00 0.  1.
         21    1    1    2  503  502  0.21716417340E+02  0.58884350711E+01 -0.63332516338E+02  0.67210743750E+02  0.00000000000E+00 0.  1.
         21    1    1    2  504  503 -0.21716417340E+02 -0.58884350711E+01  0.29579748345E+02  0.37165009913E+02  0.00000000000E+00 0. -1.
</event>
<event>
 4    1  0.3080871E+006  0.2495440E+02  0.7546771E-02  0.1469314E+00
         21   -1    0    0  504  501  0.00000000000E+00  0.00000000000E+00  0.12949591570E+03  0.12949591570E+03  0.00000000000E+00 0. -1.
         21   -1    0    0  503  502 -0.00000000000E+00 -0.00000000000E+00 -0.56586760392E+02  0.56586760392E+02  0.00000000000E+00 0.  1.
         21    1    1    2  503  501  0.21484121588E+02  0.12694662078E+02 -0.52545613139E+02  0.58170124513E+02  0.00000000000E+00 0.  1.
         21    1    1    2  504  502 -0.21484121588E+02 -0.12694662078E+02  0.12545476845E+03  0.12791255158E+03  0.00000000000E+00 0. -1.
</event>
<event>
 4    1  0.3080871E+006  0.2221282E+02  0.7546771E-02  0.1502627E+00
         21   -1    0    0  504  501  0.00000000000E+00  0.00000000000E+00  0.38983793852E+01  0.38983793852E+01  0.00000000000E+00 0. -1.
         21   -1    0    0  503  502 -0.00000000000E+00 -0.00000000000E+00 -0.12721028762E+03  0.12721028762E+03  0.00000000000E+00 0.  1.
         21    1    1    2  503  501  0.44780279515E+01 -0.21756759515E+02 -0.56997184504E+02  0.61172611194E+02  0.00000000000E+00 0.  1.
         21    1    1    2  504  502 -0.44780279515E+01  0.21756759515E+02 -0.66314723729E+02  0.69936055809E+02  0.00000000000E+00 0. -1.
</event>
<event>
 4    1  0.3080871E+006  0.2359434E+02  0.7546771E-02  0.1485167E+00
         21   -1    0    0  502  501  0.00000000000E+00  0.00000000000E+00  0.43066207449E+03  0.43066207449E+03  0.00000000000E+00 0. -1.
         21   -1    0    0  504  502 -0.00000000000E+00 -0.00000000000E+00 -0.22198238481E+01  0.22198238481E+01  0.00000000000E+00 0. -1.
         21    1    1    2  503  501 -0.61474203560E+01  0.22779427883E+02  0.35410316836E+03  0.35488835844E+03  0.00000000000E+00 0. -1.
         21    1    1    2  504  503  0.61474203560E+01 -0.22779427883E+02  0.74339082278E+02  0.77993539897E+02  0.00000000000E+00 0. -1.
</event>
<event>
 4    1  0.3080871E+006  0.2258424E+02  0.7546771E-02  0.1497786E+00
         21   -1    0    0  504  501  0.00000000000E+00  0.00000000000E+00  0.21656858324E+03  0.21656858324E+03  0.00000000000E+00 0.  1.
         21   -1    0    0  503  502 -0.00000000000E+00 -0.00000000000E+00 -0.57519692857E+01  0.57519692857E+01  0.00000000000E+00 0. -1.
         21    1    1    2  503  501  0.10345644882E+02  0.20075251458E+02  0.19984570054E+02  0.30156775845E+02  0.00000000000E+00 0. -1.
         21    1    1    2  504  502 -0.10345644882E+02 -0.20075251458E+02  0.19083204390E+03  0.19216377668E+03  0.00000000000E+00 0.  1.
</event>
<event>
 4    1  0.3080871E+006  0.2063079E+02  0.7546771E-02  0.1524602E+00
         21   -1    0    0  504  501  0.00000000000E+00  0.00000000000E+00  0.13299904140E+01  0.13299904140E+01  0.00000000000E+00 0.  1.
         21   -1    0    0  503  502 -0.00000000000E+00 -0.00000000000E+00 -0.32349785172E+03  0.32349785172E+03  0.00000000000E+00 0.  1.
         21    1    1    2  503  501  0.16225088337E+02  0.12742688167E+02 -0.17791293258E+03  0.17910511208E+03  0.00000000000E+00 0.  1.
         21    1    1    2  504  502 -0.16225088337E+02 -0.12742688167E+02 -0.14425492873E+03  0.14572273006E+03  0.00000000000E+00 0.  1.
</event>
<event>
 4    1  0.3080871E+006  0.2718629E+02  0.7546771E-02  0.1445746E+00
         21   -1    0    0  504  501  0.00000000000E+00  0.00000000000E+00  0.26002100734E+02  0.26002100734E+02  0.00000000000E+00 0.  1.
         21   -1    0    0  501  502 -0.00000000000E+00 -0.00000000000E+00 -0.41282896282E+02  0.41282896282E+02  0.00000000000E+00 0.  1.
         21    1    1    2  503  502  0.17717129298E+02 -0.20620320524E+02 -0.26416184326E+02  0.37906583642E+02  0.00000000000E+00 0.  1.
         21    1    1    2  504  503 -0.17717129298E+02  0.20620320524E+02  0.11135388778E+02  0.29378413373E+02  0.00000000000E+00 0.  1.
</event>
<event>
 4    1  0.3080871E+006  0.2509789E+02  0.7546771E-02  0.1467711E+00
         21   -1    0    0  502  501  0.00000000000E+00  0.00000000000E+00  0.46727953634E+03  0.46727953634E+03  0.00000000000E+00 0. -1.
         21   -1    0    0  504  502 -0.00000000000E+00 -0.00000000000E+00 -0.58588903088E+01  0.58588903088E+01  0.00000000000E+00 0.  1.
         21    1    1    2  503  501 -0.20125768328E+02  0.14995243031E+02  0.43828794726E+03  0.43900595506E+03  0.00000000000E+00 0. -1.
         21    1    1    2  504  503  0.20125768328E+02 -0.14995243031E+02  0.23132698771E+02  0.34132471589E+02  0.00000000000E+00 0.  1.
</event>
<event>
 4    1  0.3080871E+006  0.2347711E+02  0.7546771E-02  0.1486592E+00
         21   -1    0    0  504  501  0.00000000000E+00  0.00000000000E+00  0.82076095407E+01  0.82076095407E+01  0.00000000000E+00 0.  1.
         21   -1    0    0  501  502 -0.00000000000E+00 -0.00000000000E+00 -0.40755437072E+03  0.40755437072E+03  0.00000000000E+00 0.  1.
         21    1    1    2  503  502  0.23160089491E+02 -0.38450961702E+01 -0.38965734990E+03  0.39036396458E+03  0.00000000000E+00 0.  1.
         21    1    1    2  504  503 -0.23160089491E+02  0.38450961702E+01 -0.96894112829E+01  0.25398015687E+02  0.00000000000E+00 0.  1.
</event>
<event>
 4    1  0.3080871E+006  0.3269984E+02  0.7546771E-02  0.1397498E+00
         21   -1    0    0  504  501  0.00000000000E+00  0.00000000000E+00  0.42140079199E+02  0.42140079199E+02  0.00000000000E+00 0. -1.
         21   -1    0    0  503  502 -0.00000000000E+00 -0.00000000000E+00 -0.27853174021E+02  0.27853174021E+02  0.00000000000E+00 0. -1.
         21    1    1    2  503  501 -0.32669416252E+02  0.14101990319E+01 -0.32967013535E+01  0.32865599939E+02  0.00000000000E+00 0. -1.
         21    1    1    2  504  502  0.32669416252E+02 -0.14101990319E+01  0.17583606531E+02  0.37127653281E+02  0.00000000000E+00 0. -1.
</event>
<event>
 4    1  0.3080871E+006  0.2218576E+02  0.7546771E-02  0.1502984E+00
         21   -1    0    0  504  501  0.00000000000E+00  0.00000000000E+00  0.70741160088E+03  0.70741160088E+03  0.00000000000E+00 0.  1.
         21   -1    0    0  503  502 -0.00000000000E+00 -0.00000000000E+00 -0.66895314866E+01  0.66895314866E+01  0.00000000000E+00 0. -1.
         21    1    1    2  503  501  0.11077272186E+02 -0.19222437936E+02  0.12388839199E+02  0.25410458791E+02  0.00000000000E+00 0. -1.
         21    1    1    2  504  502 -0.11077272186E+02  0.19222437936E+02  0.68833323020E+03  0.68869067358E+03  0.00000000000E+00 0.  1.
</event>
<event>
 4    1  0.3080871E+006  0.2208667E+02  0.7546771E-02  0.1504297E+00
         21   -1    0    0  504  501  0.00000000000E+00  0.00000000000E+00  0.57512101537E+02  0.57512101537E+02  0.00000000000E+00 0. -1.
         21   -1    0    0  501  502 -0.00000000000E+00 -0.00000000000E+00 -0.26716906133E+02  0.26716906133E+02  0.00000000000E+00 0.  1.
         21    1    1    2  503  502  0.82807468312E+01  0.20475596440E+02 -0.19395229114E+02  0.29393804279E+02  0.00000000000E+00 0.  1.
         21    1    1    2  504  503 -0.82807468312E+01 -0.20475596440E+02  0.50190424517E+02  0.54835203391E+02  0.00000000000E+00 0. -1.
</event>
<event>
 4    1  0.3080871E+006  0.2563151E+02  0.7546771E-02  0.1461861E+00
         21   -1    0    0  502  501  0.00000000000E+00  0.00000000000E+00  0.34426348134E+01  0.34426348134E+01  0.00000000000E+00 0. -1.
         21   -1    0    0  504  502 -0.00000000000E+00 -0.00000000000E+00 -0.57037811317E+03  0.57037811317E+03  0.00000000000E+00 0. -1.
         21    1    1    2  503  501 -0.25370379886E+02  0.36493878041E+01 -0.49424796093E+02  0.55675709926E+02  0.00000000000E+00 0. -1.
         21    1    1    2  504  503  0.25370379886E+02 -0.36493878041E+01 -0.51751068226E+03  0.51814503806E+03  0.00000000000E+00 0. -1.
</event>
<event>
 4    1  0.3080871E+006  0.3893190E+02  0.7546771E-02  0.1354861E+00
         21   -1    0    0  504  501  0.00000000000E+00  0.00000000000E+00  0.12459464119E+04  0.12459464119E+04  0.00000000000E+00 0.  1.
         21   -1    0    0  503  502 -0.00000000000E+00 -0.00000000000E+00 -0.18337583629E+01  0.18337583629E+01  0.00000000000E+00 0. -1.
         21    1    1    2  503  501  0.81105881891E+01  0.38077697005E+02  0.98402488585E+03  0.98479473426E+03  0.00000000000E+00 0.  1.
         21    1    1    2  504  502 -0.81105881891E+01 -0.38077697005E+02  0.26008776764E+03  0.26298543596E+03  0.00000000000E+00 0. -1.
</event>
<event>
 4    1  0.3080871E+006  0.2879658E+02  0.7546771E-02  0.1430350E+00
         21   -1    0    0  502  501  0.00000000000E+00  0.00000000000E+00  0.51522922946E+03  0.51522922946E+03  0.00000000000E+00 0.  1.
         21   -1    0    0  503  502 -0.00000000000E+00 -0.00000000000E+00 -0.13722152633E+02  0.13722152633E+02  0.00000000000E+00 0. -1.
         21    1    1    2  503  504  0.17574416308E+02 -0.22811903705E+02  0.22715528345E+01  0.28886034887E+02  0.00000000000E+00 0. -1.
         21    1    1    2  504  501 -0.17574416308E+02  0.22811903705E+02  0.49923552400E+03  0.50006534721E+03  0.00000000000E+00 0.  1.
</event>
<event>
 4    1  0.3080871E+006  0.2234443E+02  0.7546771E-02  0.1500898E+00
         21   -1    0    0  504  501  0.00000000000E+00  0.00000000000E+00  0.51283599631E+02  0.51283599631E+02  0.00000000000E+00 0.  1.
         21   -1    0    0  503  502 -0.00000000000E+00 -0.00000000000E+00 -0.98069367142E+01  0.98069367142E+01  0.00000000000E+00 0.  1.
         21    1    1    2  503  501 -0.20694315080E+02  0.84272620449E+01  0.18132039345E+02  0.28775758427E+02  0.00000000000E+00 0.  1.
         21    1    1    2  504  502  0.20694315080E+02 -0.84272620449E+01  0.23344623572E+02  0.32314777918E+02  0.00000000000E+00 0.  1.
</event>
<event>
 4    1  0.3080871E+006  0.2203815E+02  0.7546771E-02  0.1504943E+00
         21   -1    0    0  503  501  0.00000000000E+00  0.00000000000E+00  0.28328544608E+03  0.28328544608E+03  0.00000000000E+00 0.  1.
         21   -1    0    0  501  502 -0.00000000000E+00 -0.00000000000E+00 -0.33682997023E+01  0.33682997023E+01  0.00000000000E+00 0. -1.
         21    1    1    2  503  504  0.56630031288E+01  0.21298137317E+02  0.24038998670E+03  0.24139806536E+03  0.00000000000E+00 0.  1.
         21    1    1    2  504  502 -0.56630031288E+01 -0.21298137317E+02  0.39527159679E+02  0.45255680416E+02  0.00000000000E+00 0. -1.
</event>
<event>
 4    1  0.3080871E+006  0.2110964E+02  0.7546771E-02  0.1517705E+00
         21   -1    0    0  504  501  0.00000000000E+00  0.00000000000E+00  0.15024889993E+01  0.15024889993E+01  0.00000000000E+00 0. -1.
         21   -1    0    0  501  502 -0.00000000000E+00 -0.00000000000E+00 -0.81358055012E+03  0.81358055012E+03  0.00000000000E+00 0. -1.
         21    1    1    2  503  502 -0.33829113909E+01 -0.20836811361E+02 -0.73091282239E+03  0.73121759465E+03  0.00000000000E+00 0. -1.
         21    1    1    2  504  503  0.33829113909E+01  0.20836811361E+02 -0.81165238733E+02  0.83865444468E+02  0.00000000000E+00 0. -1.
</event>
<event>
 4    1  0.3080871E+006  0.2317738E+02  0.7546771E-02  0.1490283E+00
         21   -1    0    0  503  501  0.00000000000E+00  0.00000000000E+00  0.45228304345E+01  0.45228304345E+01  0.00000000000E+00 0. -1.
         21   -1    0    0  504  502 -0.00000000000E+00 -0.00000000000E+00 -0.20169483327E+03  0.20169483327E+03  0.00000000000E+00 0. -1.
         21    1    1    2  503  502  0.14666074828E+02 -0.17947065778E+02 -0.32473669638E+02  0.39896492836E+02  0.00000000000E+00 0. -1.
         21    1    1    2  504  501 -0.14666074828E+02  0.17947065778E+02 -0.16469833320E+03  0.16632117087E+03  0.00000000000E+00 0. -1.
</event>
<event>
 4    1  0.3080871E+006  0.2621512E+02  0.7546771E-02  0.1455656E+00
         21   -1    0    0  502  501  0.00000000000E+00  0.00000000000E+00  0.18242005903E+03  0.18242005903E+03  0.00000000000E+00 0. -1.
         21   -1    0    0  504  502 -0.00000000000E+00 -0.00000000000E+00 -0.26004434026E+02  0.26004434026E+02  0.00000000000E+00 0. -1.
         21    1    1    2  503  501 -0.22637509393E+02  0.13220277938E+02  0.17457615341E+03  0.17653346968E+03  0.00000000000E+00 0. -1.
         21    1    1    2  504  503  0.22637509393E+02 -0.13220277938E+02 -0.18160528399E+02  0.31891023377E+02  0.00000000000E+00 0. -1.
</event>
<event>
 4    1  0.3080871E+006  0.2165109E+02  0.7546771E-02  0.1510169E+00
         21   -1    0    0  502  501  0.00000000000E+00  0.00000000000E+00  0.26516662340E+02  0.26516662340E+02  0.00000000000E+00 0. -1.
         21   -1    0    0  503  502 -0.00000000000E+00 -0.00000000000E+00 -0.49939008654E+02  0.49939008654E+02  0.00000000000E+00 0. -1.
         21    1    1    2  503  504 -0.21032852883E+02 -0.51369974709E+01 -0.42436511091E+02  0.47640603658E+02  0.00000000000E+00 0. -1.
         21    1    1    2  504  501  0.21032852883E+02  0.51369974709E+01  0.19014164777E+02  0.28815067335E+02  0.00000000000E+00 0. -1.
</event>
<event>
 4    1  0.3080871E+006  0.2229407E+02  0.7546771E-02  0.1501558E+00
         21   -1    0    0  503  501  0.00000000000E+00  0.00000000000E+00  0.22586048322E+03  0.22586048322E+03  0.00000000000E+00 0.  1.
         21   -1    0    0  501  502 -0.00000000000E+00 -0.00000000000E+00 -0.10366376475E+02  0.10366376475E+02  0.00000000000E+00 0. -1.
         21    1    1    2  503  504 -0.11547176825E+02  0.19070613953E+02  0.21257688445E+03  0.21374273651E+03  0.00000000000E+00 0.  1.
         21    1    1    2  504  502  0.11547176825E+02 -0.19070613953E+02  0.29172222897E+01  0.22484123178E+02  0.00000000000E+00 0. -1.
</event>
<event>
 4    1  0.3080871E+006  0.2620577E+02  0.7546771E-02  0.1455754E+00
         21   -1    0    0  503  501  0.00000000000E+00  0.00000000000E+00  0.44673090848E+03  0.44673090848E+03  0.00000000000E+00 0. -1.
         21   -1    0    0  504  502 -0.00000000000E+00 -0.00000000000E+00 -0.36716582976E+02  0.36716582976E+02  0.00000000000E+00 0. -1.
         21    1    1    2  503  502 -0.17277590215E+01  0.26148756602E+02 -0.31602191818E+02  0.41054124650E+02  0.00000000000E+00 0. -1.
         21    1    1    2  504  501  0.17277590215E+01 -0.26148756602E+02  0.44161651732E+03  0.44239336681E+03  0.00000000000E+00 0. -1.
</event>
<event>
 4    1  0.3080871E+006  0.2069163E+02  0.7546771E-02  0.1523713E+00
         21   -1    0    0  504  501  0.00000000000E+00  0.00000000000E+00  0.55474995583E+02  0.55474995583E+02  0.00000000000E+00 0. -1.
         21   -1    0    0  503  502 -0.00000000000E+00 -0.00000000000E+00 -0.10555268889E+02  0.10555268889E+02  0.00000000000E+00 0. -1.
         21    1    1    2  503  501  0.12247791296E+02 -0.16677385096E+02  0.53421474203E+01  0.21370121767E+02  0.00000000000E+00 0. -1.
         21    1    1    2  504  502 -0.12247791296E+02  0.16677385096E+02  0.39577579273E+02  0.44660142705E+02  0.00000000000E+00 0. -1.
</event>
<event>
 4    1  0.3080871E+006  0.2628000E+02  0.7546771E-02  0.1454978E+00
         21   -1    0    0  504  501  0.00000000000E+00  0.00000000000E+00  0.12089384446E+02  0.12089384446E+02  0.00000000000E+00 0.  1.
         21   -1    0    0  503  502 -0.00000000000E+00 -0.00000000000E+00 -0.87452424904E+02  0.87452424904E+02  0.00000000000E+00 0.  1.
         21    1    1    2  503  501 -0.24999966303E+02  0.81018507832E+01 -0.83733777395E+01  0.27581728663E+02  0.00000000000E+00 0.  1.
         21    1    1    2  504  502  0.24999966303E+02 -0.81018507832E+01 -0.66989662719E+02  0.71960080687E+02  0.00000000000E+00 0.  1.
</event>
<event>
 4    1  0.3080871E+006  0.3632999E+02  0.7546771E-02  0.1371447E+00
         21   -1    0    0  502  501  0.00000000000E+00  0.00000000000E+00  0.22462286283E+03  0.22462286283E+03  0.00000000000E+00 0.  1.
         21   -1    0    0  504  502 -0.00000000000E+00 -0.00000000000E+00 -0.61362776476E+01  0.61362776476E+01  0.00000000000E+00 0.  1.
         21    1    1    2  503  501  0.33900625408E+02  0.13062009276E+02  0.13300908167E+03  0.13788141389E+03  0.00000000000E+00 0.  1.
         21    1    1    2  504  503 -0.33900625408E+02 -0.13062009276E+02  0.85477503504E+02  0.92877726580E+02  0.00000000000E+00 0.  1.
</event>
<event>
 4    1  0.3080871E+006  0.2346834E+02  0.7546771E-02  0.1486699E+00
         21   -1    0    0  504  501  0.00000000000E+00  0.00000000000E+00  0.23003032640E+02  0.23003032640E+02  0.00000000000E+00 0.  1.
         21   -1    0    0  501  502 -0.00000000000E+00 -0.00000000000E+00 -0.43432897217E+02  0.43432897217E+02  0.00000000000E+00 0.  1.
         21    1    1    2  503  502 -0.18411273846E+02 -0.14552933773E+02 -0.32466867087E+02  0.40060708238E+02  0.00000000000E+00 0.  1.
         21    1    1    2  504  503  0.18411273846E+02  0.14552933773E+02  0.12037002510E+02  0.26375221619E+02  0.00000000000E+00 0.  1.
</event>
<event>
 4    1  0.3080871E+006  0.6221015E+02  0.7546771E-02  0.1252503E+00
         21   -1    0    0  503  501  0.00000000000E+00  0.00000000000E+00  0.19048982168E+03  0.19048982168E+03  0.00000000000E+00 0.  1.
         21   -1    0    0  504  502 -0.00000000000E+00 -0.00000000000E+00 -0.31482625304E+02  0.31482625304E+02  0.00000000000E+00 0.  1.
         21    1    1    2  503  502  0.43793172831E+02 -0.44184400032E+02  0.14560081065E+03  0.15833413799E+03  0.00000000000E+00 0.  1.
         21    1    1    2  504  501 -0.43793172831E+02  0.44184400032E+02  0.13406385727E+02  0.63638308990E+02  0.00000000000E+00 0.  1.
</event>
<event>
 4    1  0.3080871E+006  0.2093652E+02  0.7546771E-02  0.1520173E+00
         21   -1    0    0  504  501  0.00000000000E+00  0.00000000000E+00  0.68562643721E+02  0.68562643721E+02  0.00000000000E+00 0.  1.
         21   -1    0    0  503  502 -0.00000000000E+00 -0.00000000000E+00 -0.11908038334E+03  0.11908038334E+03  0.00000000000E+00 0.  1.
         21    1    1    2  503  501  0.92986271054E+01 -0.18758290311E+02 -0.11652707157E+03  0.11839297416E+03  0.00000000000E+00 0.  1.
         21    1    1    2  504  502 -0.92986271054E+01  0.18758290311E+02  0.66009331954E+02  0.69250052899E+02  0.00000000000E+00 0.  1.
</event>
<event>
 4    1  0.3080871E+006  0.2747253E+02  0.7546771E-02  0.1442918E+00
         21   -1    0    0  503  501  0.00000000000E+00  0.00000000000E+00  0.46081097569E+03  0.46081097569E+03  0.00000000000E+00 0. -1.
         21   -1    0    0  504  502 -0.00000000000E+00 -0.00000000000E+00 -0.16584088404E+01  0.16584088404E+01  0.00000000000E+00 0. -1.
         21    1    1    2  503  502 -0.50258802993E+01 -0.27008895915E+02  0.20383139403E+03  0.20567444451E+03  0.00000000000E+00 0. -1.
         21    1    1    2  504  501  0.50258802993E+01  0.27008895915E+02  0.25532117282E+03  0.25679494002E+03  0.00000000000E+00 0. -1.
</event>
<event>
 4    1  0.3080871E+006  0.2620571E+02  0.7546771E-02  0.1455754E+00
         21   -1    0    0  504  501  0.00000000000E+00  0.00000000000E+00  0.62448455452E+01  0.62448455452E+01  0.00000000000E+00 0.  1.
         21   -1    0    0  503  502 -0.00000000000E+00 -0.00000000000E+00 -0.11040975069E+03  0.11040975069E+03  0.00000000000E+00 0.  1.
         21    1    1    2  503  501  0.26204971209E+02 -0.19637429999E+00 -0.55767911143E+02  0.61618170958E+02  0.00000000000E+00 0.  1.
         21    1    1    2  504  502 -0.26204971209E+02  0.19637429999E+00 -0.48396994006E+02  0.55036425281E+02  0.00000000000E+00 0.  1.
</event>
<event>
 4    1  0.3080871E+006  0.2086342E+02  0.7546771E-02  0.1521224E+00
         21   -1    0    0  504  501  0.00000000000E+00  0.00000000000E+00  0.17023147133E+02  0.17023147133E+02  0.00000000000E+00 0. -1.
         21   -1    0    0  503  502 -0.00000000000E+00 -0.00000000000E+00 -0.10163098390E+03  0.10163098390E+03  0.00000000000E+00 0.  1.
         21    1    1    2  503  501 -0.18582246853E+02  0.94858994357E+01  0.90201079638E+01  0.22729815967E+02  0.00000000000E+00 0. -1.
         21    1    1    2  504  502  0.18582246853E+02 -0.94858994357E+01 -0.93627944728E+02  0.95924315063E+02  0.00000000000E+00 0.  1.
</event>
<event>
 4    1  0.3080871E+006  0.2785605E+02  0.7546771E-02  0.1439193E+00
         21   -1    0    0  503  501  0.00000000000E+00  0.00000000000E+00  0.73614864631E+03  0.73614864631E+03  0.00000000000E+00 0. -1.
         21   -1    0    0  504  502 -0.00000000000E+00 -0.00000000000E+00 -0.25037351459E+01  0.25037351459E+01  0.00000000000E+00 0.  1.
         21    1    1    2  503  502  0.12401592646E+02  0.24943141127E+02  0.85795344494E+02  0.90204217896E+02  0.00000000000E+00 0.  1.
         21    1    1    2  504  501 -0.12401592646E+02 -0.24943141127E+02  0.64784956667E+03  0.64844816356E+03  0.00000000000E+00 0. -1.
</event>
<event>
 4    1  0.3080871E+006  0.2088346E+02  0.7546771E-02  0.1520935E+00
         21   -1    0    0  504  501  0.00000000000E+00  0.00000000000E+00  0.74181506981E+02  0.74181506981E+02  0.00000000000E+00 0.  1.
         21   -1    0    0  503  502 -0.00000000000E+00 -0.00000000000E+00 -0.77919827245E+01  0.77919827245E+01  0.00000000000E+00 0.  1.
         21    1    1    2  503  501  0.31873781645E+01  0.20638790488E+02  0.12886824451E+02  0.24539545571E+02  0.00000000000E+00 0.  1.
         21    1    1    2  504  502 -0.31873781645E+01 -0.20638790488E+02  0.53502699806E+02  0.57433944135E+02  0.00000000000E+00 0.  1.
</event>
<event>
 4    1  0.3080871E+006  0.2316508E+02  0.7546771E-02  0.1490436E+00
         21   -1    0    0  503  501  0.00000000000E+00  0.00000000000E+00  0.23134046198E+01  0.23134046198E+01  0.00000000000E+00 0. -1.
         21   -1    0    0  504  502 -0.00000000000E+00 -0.00000000000E+00 -0.35103280911E+03  0.35103280911E+03  0.00000000000E+00 0. -1.
         21    1    1    2  503  502 -0.10806146090E+02  0.20490192770E+02 -0.27725609875E+03  0.27822215061E+03  0.00000000000E+00 0. -1.
         21    1    1    2  504  501  0.10806146090E+02 -0.20490192770E+02 -0.71463305736E+02  0.75124063121E+02  0.00000000000E+00 0. -1.
</event>
<event>
 4    1  0.3080871E+006  0.2011329E+02  0.7546771E-02  0.1532311E+00
         21   -1    0    0  503  501  0.00000000000E+00  0.00000000000E+00  0.30112082189E+02  0.30112082189E+02  0.00000000000E+00 0.  1.
         21   -1    0    0  504  502 -0.00000000000E+00 -0.00000000000E+00 -0.22291086395E+02  0.22291086395E+02  0.00000000000E+00 0. -1.
         21    1    1    2  503  502 -0.19331204821E+02 -0.55542007469E+01 -0.12605011566E+02  0.23736700326E+02  0.00000000000E+00 0. -1.
         21    1    1    2  504  501  0.19331204821E+02  0.55542007469E+01  0.20426007360E+02  0.28666468259E+02  0.00000000000E+00 0.  1.
</event>
<event>
 4    1  0.3080871E+006  0.2124632E+02  0.7546771E-02  0.1515777E+00
         21   -1    0    0  504  501  0.00000000000E+00  0.00000000000E+00  0.23389986546E+01  0.23389986546E+01  0.00000000000E+00 0.  1.
         21   -1    0    0  503  502 -0.00000000000E+00 -0.00000000000E+00 -0.40179055986E+03  0.40179055986E+03  0.00000000000E+00 0.  1.
         21    1    1    2  503  501 -0.13170996579E+01 -0.21205458382E+02 -0.34539081353E+03  0.34604366818E+03  0.00000000000E+00 0.  1.
         21    1    1    2  504  502  0.13170996579E+01  0.21205458382E+02 -0.54060747675E+02  0.58085890334E+02  0.00000000000E+00 0.  1.
</event>
<event>
 4    1  0.3080871E+006  0.2111832E+02  0.7546771E-02  0.1517582E+00
         21   -1    0    0  503  501  0.00000000000E+00  0.00000000000E+00  0.92506785378E+02  0.92506785378E+02  0.00000000000E+00 0.  1.
         21   -1    0    0  501  502 -0.00000000000E+00 -0.00000000000E+00 -0.27085819261E+02  0.27085819261E+02  0.00000000000E+00 0.  1.
         21    1    1    2  503  504 -0.20514244906E+02 -0.50148933032E+01  0.86924559620E+02  0.89453129984E+02  0.00000000000E+00 0.  1.
         21    1    1    2  504  502  0.20514244906E+02  0.50148933032E+01 -0.21503593503E+02  0.30139474655E+02  0.00000000000E+00 0.  1.
</event>
<event>
 4    1  0.3080871E+006  0.2603930E+02  0.7546771E-02  0.1457505E+00
         21   -1    0    0  502  501  0.00000000000E+00  0.00000000000E+00  0.11566066027E+02  0.11566066027E+02  0.00000000000E+00 0.  1.
         21   -1    0    0  503  502 -0.00000000000E+00 -0.00000000000E+00 -0.17140569980E+03  0.17140569980E+03  0.00000000000E+00 0.  1.
         21    1    1    2  503  504  0.21437308757E+02  0.14781310862E+02 -0.15412963845E+03  0.15631375758E+03  0.00000000000E+00 0.  1.
         21    1    1    2  504  501 -0.21437308757E+02 -0.14781310862E+02 -0.57099953221E+01  0.26658008255E+02  0.00000000000E+00 0.  1.
</event>
<event>
 4    1  0.3080871E+006  0.2472446E+02  0.7546771E-02  0.1471910E+00
         21   -1    0    0  503  501  0.00000000000E+00  0.00000000000E+00  0.67897920395E+01  0.67897920395E+01  0.00000000000E+00 0. -1.
         21   -1    0    0  504  502 -0.00000000000E+00 -0.00000000000E+00 -0.11906688873E+03  0.11906688873E+03  0.00000000000E+00 0.  1.
         21    1    1    2  503  502 -0.24463746212E+02 -0.35810555282E+01 -0.87213506281E+02  0.90650397215E+02  0.00000000000E+00 0.  1.
         21    1    1    2  504  501  0.24463746212E+02  0.35810555282E+01 -0.25063590406E+02  0.35206283551E+02  0.00000000000E+00 0. -1.
</event>
<event>
 4    1  0.3080871E+006  0.3333802E+02  0.7546771E-02  0.1392640E+00
         21   -1    0    0  503  501  0.00000000000E+00  0.00000000000E+00  0.35053093077E+03  0.35053093077E+03  0.00000000000E+00 0. -1.
         21   -1    0    0  504  502 -0.00000000000E+00 -0.00000000000E+00 -0.31818029390E+01  0.31818029390E+01  0.00000000000E+00 0. -1.
         21    1    1    2  503  502  0.33291533238E+02  0.17599166059E+01  0.16322067332E+03  0.16659055103E+03  0.00000000000E+00 0. -1.
         21    1    1    2  504  501 -0.33291533238E+02 -0.17599166059E+01  0.18412845450E+03  0.18712218267E+03  0.00000000000E+00 0. -1.
</event>
<event>
 4    1  0.3080871E+006  0.2039347E+02  0.7546771E-02  0.1528103E+00
         21   -1    0    0  502  501  0.00000000000E+00  0.00000000000E+00  0.26192589016E+01  0.26192589016E+01  0.00000000000E+00 0.  1.
         21   -1    0    0  504  502 -0.00000000000E+00 -0.00000000000E+00 -0.28086958273E+03  0.28086958273E+03  0.00000000000E+00 0.  1.
         21    1    1    2  503  501 -0.19376619221E+02 -0.63592520845E+01 -0.45673332000E+02  0.50019463366E+02  0.00000000000E+00 0.  1.
         21    1    1    2  504  503  0.19376619221E+02  0.63592520845E+01 -0.23257699182E+03  0.23346937826E+03  0.00000000000E+00 0.  1.
</event>
<event>
 4    1  0.3080871E+006  0.2264103E+02  0.7546771E-02  0.1497056E+00
         21   -1    0    0  504  501  0.00000000000E+00  0.00000000000E+00  0.13823454644E+03  0.13823454644E+03  0.00000000000E+00 0. -1.
         21   -1    0    0  503  502 -0.00000000000E+00 -0.00000000000E+00 -0.95092208047E+01  0.95092208047E+01  0.00000000000E+00 0.  1.
         21    1    1    2  503  501  0.22636034159E+02 -0.47558580768E+00  0.66654426619E+01  0.23601787013E+02  0.00000000000E+00 0.  1.
         21    1    1    2  504  502 -0.22636034159E+02  0.47558580768E+00  0.12205988297E+03  0.12414198023E+03  0.00000000000E+00 0. -1.
</event>
<event>
 4    1  0.3080871E+006  0.2239092E+02  0.7546771E-02  0.1500291E+00
         21   -1    0    0  504  501  0.00000000000E+00  0.00000000000E+00  0.26038351254E+02  0.26038351254E+02  0.00000000000E+00 0. -1.
         21   -1    0    0  503  502 -0.00000000000E+00 -0.00000000000E+00 -0.22879043073E+03  0.22879043073E+03  0.00000000000E+00 0. -1.
         21    1    1    2  503  501 -0.21994212830E+02  0.41961851163E+01 -0.22331118214E+03  0.22443091907E+03  0.00000000000E+00 0. -1.
         21    1    1    2  504  502  0.21994212830E+02 -0.41961851163E+01  0.20559102660E+02  0.30397862914E+02  0.00000000000E+00 0. -1.
</event>
<event>
 4    1  0.3080871E+006  0.2662502E+02  0.7546771E-02  0.1451412E+00
         21   -1    0    0  503  501  0.00000000000E+00  0.00000000000E+00  0.91655890809E+02  0.91655890809E+02  0.00000000000E+00 0. -1.
         21   -1    0    0  504  502 -0.00000000000E+00 -0.00000000000E+00 -0.11801097712E+02  0.11801097712E+02  0.00000000000E+00 0.  1.
         21    1    1    2  503  502  0.17770321556E+02  0.19826934505E+02  0.95607822541E+01  0.28289577893E+02  0.00000000000E+00 0.  1.
         21    1    1    2  504  501 -0.17770321556E+02 -0.19826934505E+02  0.70294010843E+02  0.75167410628E+02  0.00000000000E+00 0. -1.
</event>
<event>
 4    1  0.3080871E+006  0.2169703E+02  0.7546771E-02  0.1509541E+00
         21   -1    0    0  503  501  0.00000000000E+00  0.00000000000E+00  0.26732436422E+03  0.26732436422E+03  0.00000000000E+00 0. -1.
         21   -1    0    0  504  502 -0.00000000000E+00 -0.00000000000E+00 -0.18236710616E+01  0.18236710616E+01  0.00000000000E+00 0. -1.
         21    1    1    2  503  502 -0.18307410471E+02 -0.11644739233E+02  0.15769527628E+03  0.15918090775E+03  0.00000000000E+00 0. -1.
         21    1    1    2  504  501  0.18307410471E+02  0.11644739233E+02  0.10780541687E+03  0.10996712753E+03  0.00000000000E+00 0. -1.
</event>
<event>
 4    1  0.3080871E+006  0.3341000E+02  0.7546771E-02  0.1392100E+00
         21   -1    0    0  502  501  0.00000000000E+00  0.00000000000E+00  0.95505863050E+03  0.95505863050E+03  0.00000000000E+00 0. -1.
         21   -1    0    0  503  502 -0.00000000000E+00 -0.00000000000E+00 -0.60214792595E+01  0.60214792595E+01  0.00000000000E+00 0. -1.
         21    1    1    2  503  504  0.17968935134E+02 -0.28166394842E+02  0.43127798308E+02  0.54554884430E+02  0.00000000000E+00 0. -1.
         21    1    1    2  504  501 -0.17968935134E+02  0.28166394842E+02  0.90590935293E+03  0.90652522533E+03  0.00000000000E+00 0. -1.
</event>
<event>
 4    1  0.3080871E+006  0.2354187E+02  0.7546771E-02  0.1485804E+00
         21   -1    0    0  502  501  0.00000000000E+00  0.00000000000E+00  0.10331136777E+01  0.10331136777E+01  0.00000000000E+00 0.  1.
         21   -1    0    0  503  502 -0.00000000000E+00 -0.00000000000E+00 -0.66066008245E+03  0.66066008245E+03  0.00000000000E+00 0. -1.
         21    1    1    2  503  504  0.40030796341E+01 -0.23199028638E+02 -0.47326539761E+03  0.47385056310E+03  0.00000000000E+00 0. -1.
         21    1    1    2  504  501 -0.40030796341E+01  0.23199028638E+02 -0.18636157116E+03  0.18784263303E+03  0.00000000000E+00 0.  1.
</event>
<event>
 4    1  0.3080871E+006  0.2960838E+02  0.7546771E-02  0.1423031E+00
         21   -1    0    0  503  501  0.00000000000E+00  0.00000000000E+00  0.87130938695E+01  0.87130938695E+01  0.00000000000E+00 0.  1.
         21   -1    0    0  504  502 -0.00000000000E+00 -0.00000000000E+00 -0.10762769174E+03  0.10762769174E+03  0.00000000000E+00 0.  1.
         21    1    1    2  503  502  0.35256349367E+00 -0.29606279559E+02 -0.34607366960E+02  0.45544768506E+02  0.00000000000E+00 0.  1.
         21    1    1    2  504  501 -0.35256349367E+00  0.29606279559E+02 -0.64307230912E+02  0.70796017105E+02  0.00000000000E+00 0.  1.
</event>
<event>
 4    1  0.3080871E+006  0.2450789E+02  0.7546771E-02  0.1474384E+00
         21   -1    0    0  503  501  0.00000000000E+00  0.00000000000E+00  0.16548519054E+02  0.16548519054E+02  0.00000000000E+00 0.  1.
         21   -1    0    0  504  502 -0.00000000000E+00 -0.00000000000E+00 -0.62313673007E+03  0.62313673007E+03  0.00000000000E+00 0. -1.
         21    1    1    2  503  502  0.33902450368E+01  0.24272271027E+02  0.70939295014E+01  0.25513932233E+02  0.00000000000E+00 0.  1.
         21    1    1    2  504  501 -0.33902450368E+01 -0.24272271027E+02 -0.61368214052E+03  0.61417131690E+03  0.00000000000E+00 0. -1.
</event>
<event>
 4    1  0.3080871E+006  0.2355398E+02  0.7546771E-02  0.1485657E+00
         21   -1    0    0  503  501  0.00000000000E+00  0.00000000000E+00  0.20341263458E+03  0.20341263458E+03  0.00000000000E+00 0.  1.
         21   -1    0    0  504  502 -0.00000000000E+00 -0.00000000000E+00 -0.66183991752E+01  0.66183991752E+01  0.00000000000E+00 0.  1.
         21    1    1    2  503  502  0.74088819434E+01  0.22358406995E+02  0.17876529126E+02  0.29569582151E+02  0.00000000000E+00 0.  1.
         21    1    1    2  504  501 -0.74088819434E+01 -0.22358406995E+02  0.17891770628E+03  0.18046145160E+03  0.00000000000E+00 0.  1.
</event>
<event>
 4    1  0.3080871E+006  0.2234619E+02  0.7546771E-02  0.1500875E+00
         21   -1    0    0  502  501  0.00000000000E+00  0.00000000000E+00  0.12875255382E+02  0.12875255382E+02  0.00000000000E+00 0. -1.
         21   -1    0    0  503  502 -0.00000000000E+00 -0.00000000000E+00 -0.28705158323E+03  0.28705158323E+03  0.00000000000E+00 0. -1.
         21    1    1    2  503  504  0.22326378349E+02  0.94079848576E+00 -0.27655324387E+03  0.27745458902E+03  0.00000000000E+00 0. -1.
         21    1    1    2  504  501 -0.22326378349E+02 -0.94079848576E+00  0.23769160243E+01  0.22472249593E+02  0.00000000000E+00 0. -1.
</event>
<event>
 4    1  0.3080871E+006  0.2265918E+02  0.7546771E-02  0.1496823E+00
         21   -1    0    0  503  501  0.00000000000E+00  0.00000000000E+00  0.60518628977E+01  0.60518628977E+01  0.00000000000E+00 0.  1.
         21   -1    0    0  501  502 -0.00000000000E+00 -0.00000000000E+00 -0.93789981805E+02  0.93789981805E+02  0.00000000000E+00 0. -1.
         21    1    1    2  503  504 -0.22471442431E+02  0.29108211386E+01 -0.28447750475E+02  0.36369123054E+02  0.00000000000E+00 0.  1.
         21    1    1    2  504  502  0.22471442431E+02 -0.29108211386E+01 -0.59290368432E+02  0.63472721648E+02  0.00000000000E+00 0. -1.
</event>
<event>
 4    1  0.3080871E+006  0.3502007E+02  0.7546771E-02  0.1380422E+00
         21   -1    0    0  503  501  0.00000000000E+00  0.00000000000E+00  0.82988070513E+02  0.82988070513E+02  0.00000000000E+00 0.  1.
         21   -1    0    0  504  502 -0.00000000000E+00 -0.00000000000E+00 -0.72559723480E+02  0.72559723480E+02  0.00000000000E+00 0.  1.
         21    1    1    2  503  502 -0.27384085940E+02  0.21829274085E+02  0.74617605992E+02  0.82426891813E+02  0.00000000000E+00 0.  1.
         21    1    1    2  504  501  0.27384085940E+02 -0.21829274085E+02 -0.64189258960E+02  0.73120902181E+02  0.00000000000E+00 0.  1.
</event>
<event>
 4    1  0.3080871E+006  0.4998550E+02  0.7546771E-02  0.1298235E+00
         21   -1    0    0  504  501  0.00000000000E+00  0.00000000000E+00  0.21294634411E+04  0.21294634411E+04  0.00000000000E+00 0. -1.
         21   -1    0    0  501  502 -0.00000000000E+00 -0.00000000000E+00 -0.17891508675E+02  0.17891508675E+02  0.00000000000E+00 0. -1.
         21    1    1    2  503  502  0.16578690163E+02  0.47156091239E+02  0.17911270923E+02  0.53097679182E+02  0.00000000000E+00 0. -1.
         21    1    1    2  504  503 -0.16578690163E+02 -0.47156091239E+02  0.20936606615E+04  0.20942572706E+04  0.00000000000E+00 0. -1.
</event>
<event>
 4    1  0.3080871E+006  0.3600037E+02  0.7546771E-02  0.1373663E+00
         21   -1    0    0  503  501  0.00000000000E+00  0.00000000000E+00  0.83629292587E+03  0.83629292587E+03  0.00000000000E+00 0.  1.
         21   -1    0    0  504  502 -0.00000000000E+00 -0.00000000000E+00 -0.15357936407E+02  0.15357936407E+02  0.00000000000E+00 0. -1.
         21    1    1    2  503  502  0.35228666244E+02 -0.74140230337E+01  0.66976999986E+01  0.36618108200E+02  0.00000000000E+00 0. -1.
         21    1    1    2  504  501 -0.35228666244E+02  0.74140230337E+01  0.81423728946E+03  0.81503275407E+03  0.00000000000E+00 0.  1.
</event>
<event>
 4    1  0.3080871E+006  0.2204701E+02  0.7546771E-02  0.1504825E+00
         21   -1    0    0  504  501  0.00000000000E+00  0.00000000000E+00  0.11779833681E+03  0.11779833681E+03  0.00000000000E+00 0. -1.
         21   -1    0    0  501  502 -0.00000000000E+00 -0.00000000000E+00 -0.90992067931E+01  0.90992067931E+01  0.00000000000E+00 0.  1.
         21    1    1    2  503  502  0.19807423855E+02 -0.96817591572E+01  0.74437269452E+01  0.23269713599E+02  0.00000000000E+00 0.  1.
         21    1    1    2  504  503 -0.19807423855E+02  0.96817591572E+01  0.10125540307E+03  0.10362783000E+03  0.00000000000E+00 0. -1.
</event>
<event>
 4    1  0.3080871E+006  0.2749792E+02  0.7546771E-02  0.1442670E+00
         21   -1    0    0  502  501  0.00000000000E+00  0.00000000000E+00  0.79628451880E+02  0.79628451880E+02  0.00000000000E+00 0. -1.
         21   -1    0    0  503  502 -0.00000000000E+00 -0.00000000000E+00 -0.83220006787E+02  0.83220006787E+02  0.00000000000E+00 0. -1.
         21    1    1    2  503  504  0.21915679693E+02  0.16608389165E+02 -0.78433898181E+02  0.83114451156E+02  0.00000000000E+00 0. -1.
         21    1    1    2  504  501 -0.21915679693E+02 -0.16608389165E+02  0.74842343274E+02  0.79734007511E+02  0.00000000000E+00 0. -1.
</event>
<event>
 4    1  0.3080871E+006  0.2375804E+02  0.7546771E-02  0.1483193E+00
         21   -1    0    0  504  501  0.00000000000E+00  0.00000000000E+00  0.16176582271E+02  0.16176582271E+02  0.00000000000E+00 0.  1.
         21   -1    0    0  503  502 -0.00000000000E+00 -0.00000000000E+00 -0.59712545020E+02  0.59712545020E+02  0.00000000000E+00 0.  1.
         21    1    1    2  503  501 -0.15619108020E+02  0.17902173655E+02 -0.46231360932E+02  0.51978679192E+02  0.00000000000E+00 0.  1.
         21    1    1    2  504  502  0.15619108020E+02 -0.17902173655E+02  0.26953981838E+01  0.23910448099E+02  0.00000000000E+00 0.  1.
</event>
<event>
 4    1  0.3080871E+006  0.2597003E+02  0.7546771E-02  0.1458238E+00
         21   -1    0    0  504  501  0.00000000000E+00  0.00000000000E+00  0.79591227777E+01  0.79591227777E+01  0.00000000000E+00 0. -1.
         21   -1    0    0  503  502 -0.00000000000E+00 -0.00000000000E+00 -0.87015340137E+02  0.87015340137E+02  0.00000000000E+00 0. -1.
         21    1    1    2  503  501  0.25280584473E+02 -0.59443007363E+01 -0.47209904128E+02  0.53881515479E+02  0.00000000000E+00 0. -1.
         21    1    1    2  504  502 -0.25280584473E+02  0.59443007363E+01 -0.31846313232E+02  0.41092947436E+02  0.00000000000E+00 0. -1.
</event>
<event>
 4    1  0.3080871E+006  0.2215377E+02  0.7546771E-02  0.1503407E+00
         21   -1    0    0  504  501  0.00000000000E+00  0.00000000000E+00  0.17946168987E+02  0.17946168987E+02  0.00000000000E+00 0. -1.
         21   -1    0    0  503  502 -0.00000000000E+00 -0.00000000000E+00 -0.46027564581E+02  0.46027564581E+02  0.00000000000E+00 0. -1.
         21    1    1    2  503  501 -0.18569473896E+02  0.12081557231E+02 -0.34418045726E+02  0.40931543551E+02  0.00000000000E+00 0. -1.
         21    1    1    2  504  502  0.18569473896E+02 -0.12081557231E+02  0.63366501316E+01  0.23042190017E+02  0.00000000000E+00 0. -1.
</event>
<event>
 4    1  0.3080871E+006  0.2543623E+02  0.7546771E-02  0.1463982E+00
         21   -1    0    0  503  501  0.00000000000E+00  0.00000000000E+00  0.26067600328E+03  0.26067600328E+03  0.00000000000E+00 0. -1.
         21   -1    0    0  504  502 -0.00000000000E+00 -0.00000000000E+00 -0.16123732993E+03  0.16123732993E+03  0.00000000000E+00 0. -1.
         21    1    1    2  503  502  0.80214488360E+01 -0.24138314595E+02  0.25904601977E+03  0.26029184050E+03  0.00000000000E+00 0. -1.
         21    1    1    2  504  501 -0.80214488360E+01  0.24138314595E+02 -0.15960734642E+03  0.16162149271E+03  0.00000000000E+00 0. -1.
</event>
<event>
 4    1  0.3080871E+006  0.2061964E+02  0.7546771E-02  0.1524765E+00
         21   -1    0    0  504  501  0.00000000000E+00  0.00000000000E+00  0.11660219553E+01  0.11660219553E+01  0.00000000000E+00 0.  1.
         21   -1    0    0  503  502 -0.00000000000E+00 -0.00000000000E+00 -0.38808182996E+03  0.38808182996E+03  0.00000000000E+00 0.  1.
         21    1    1    2  503  501 -0.10530421778E+02  0.17727932367E+02 -0.14561683891E+03  0.14706948407E+03  0.00000000000E+00 0.  1.
         21    1    1    2  504  502  0.10530421778E+02 -0.17727932367E+02 -0.24129896909E+03  0.24217836785E+03  0.00000000000E+00 0.  1.
</event>
<event>
 4    1  0.3080871E+006  0.3389802E+02  0.7546771E-02  0.1388480E+00
         21   -1    0    0  503  501  0.00000000000E+00  0.00000000000E+00  0.47506023409E+02  0.47506023409E+02  0.00000000000E+00 0. -1.
         21   -1    0    0  501  502 -0.00000000000E+00 -0.00000000000E+00 -0.64180469776E+02  0.64180469776E+02  0.00000000000E+00 0.  1.
         21    1    1    2  503  504 -0.26173060101E+02  0.21541748913E+02  0.35744472147E+02  0.49261986463E+02  0.00000000000E+00 0. -1.
         21    1    1    2  504  502  0.26173060101E+02 -0.21541748913E+02 -0.52418918513E+02  0.62424506721E+02  0.00000000000E+00 0.  1.
</event>
<event>
 4    1  0.3080871E+006  0.2157042E+02  0.7546771E-02  0.1511274E+00
         21   -1    0    0  504  501  0.00000000000E+00  0.00000000000E+00  0.75451298119E+02  0.75451298119E+02  0.00000000000E+00 0.  1.
         21   -1    0    0  503  502 -0.00000000000E+00 -0.00000000000E+00 -0.80833458801E+01  0.80833458801E+01  0.00000000000E+00 0.  1.
         21    1    1    2  503  501  0.16950477071E+02 -0.13340335311E+02  0.54022313361E+02  0.58169524324E+02  0.00000000000E+00 0.  1.
         21    1    1    2  504  502 -0.16950477071E+02  0.13340335311E+02  0.13345638878E+02  0.25365119676E+02  0.00000000000E+00 0.  1.
</event>
<event>
 4    1  0.3080871E+006  0.5999097E+02  0.7546771E-02  0.1259863E+00
         21   -1    0    0  502  501  0.00000000000E+00  0.00000000000E+00  0.24914646161E+03  0.24914646161E+03  0.00000000000E+00 0.  1.
         21   -1    0    0  504  502 -0.00000000000E+00 -0.00000000000E+00 -0.14626782384E+02  0.14626782384E+02  0.00000000000E+00 0.  1.
         21    1    1    2  503  501  0.64715249107E+01  0.59640891331E+02  0.13196337680E+03  0.14495947493E+03  0.00000000000E+00 0.  1.
         21    1    1    2  504  503 -0.64715249107E+01 -0.59640891331E+02  0.10255630242E+03  0.11881376906E+03  0.00000000000E+00 0.  1.
</event>
<event>
 4    1  0.3080871E+006  0.2909861E+02  0.7546771E-02  0.1427594E+00
         21   -1    0    0  503  501  0.00000000000E+00  0.00000000000E+00  0.13498929019E+02  0.13498929019E+02  0.00000000000E+00 0. -1.
         21   -1    0    0  501  502 -0.00000000000E+00 -0.00000000000E+00 -0.12325391794E+03  0.12325391794E+03  0.00000000000E+00 0. -1.
         21    1    1    2  503  504 -0.22748507471E+02 -0.18144824372E+02 -0.69609933299E+01  0.29919636892E+02  0.00000000000E+00 0. -1.
         21    1    1    2  504  502  0.22748507471E+02  0.18144824372E+02 -0.10279399559E+03  0.10683321007E+03  0.00000000000E+00 0. -1.
</event>
<event>
 4    1  0.3080871E+006  0.2042691E+02  0.7546771E-02  0.1527607E+00
         21   -1    0    0  503  501  0.00000000000E+00  0.00000000000E+00  0.43111469693E+01  0.43111469693E+01  0.00000000000E+00 0. -1.
         21   -1    0    0  504  502 -0.00000000000E+00 -0.00000000000E+00 -0.14699819515E+03  0.14699819515E+03  0.00000000000E+00 0. -1.
         21    1    1    2  503  502 -0.88137744079E+01  0.18427584439E+02 -0.11556004151E+03  0.11735153038E+03  0.00000000000E+00 0. -1.
         21    1    1    2  504  501  0.88137744079E+01 -0.18427584439E+02 -0.27127006672E+02  0.33957811746E+02  0.00000000000E+00 0. -1.
</event>
<event>
 4    1  0.3080871E+006  0.2075182E+02  0.7546771E-02  0.1522838E+00
         21   -1    0    0  502  501  0.00000000000E+00  0.00000000000E+00  0.18711541534E+03  0.18711541534E+03  0.00000000000E+00 0.  1.
         21   -1    0    0  504  502 -0.00000000000E+00 -0.00000000000E+00 -0.67177465548E+01  0.67177465548E+01  0.00000000000E+00 0.  1.
         21    1    1    2  503  501 -0.20062041024E+02  0.53058926836E+01  0.16877938585E+03  0.17005034277E+03  0.00000000000E+00 0.  1.
         21    1    1    2  504  503  0.20062041024E+02 -0.53058926836E+01  0.11618282931E+02  0.23782819124E+02  0.00000000000E+00 0.  1.
</event>
<event>
 4    1  0.3080871E+006  0.2693848E+02  0.7546771E-02  0.1448227E+00
         21   -1    0    0  504  501  0.00000000000E+00  0.00000000000E+00  0.26406569129E+03  0.26406569129E+03  0.00000000000E+00 0. -1.
         21   -1    0    0  503  502 -0.00000000000E+00 -0.00000000000E+00 -0.62526115802E+02  0.62526115802E+02  0.00000000000E+00 0.  1.
         21    1    1    2  503  501 -0.20356181461E+02 -0.17643906886E+02  0.26043682847E+03  0.26182632258E+03  0.00000000000E+00 0. -1.
         21    1    1    2  504  502  0.20356181461E+02  0.17643906886E+02 -0.58897252986E+02  0.64765484505E+02  0.00000000000E+00 0.  1.
</event>
<event>
 4    1  0.3080871E+006  0.2191202E+02  0.7546771E-02  0.1506631E+00
         21   -1    0    0  502  501  0.00000000000E+00  0.00000000000E+00  0.30203135763E+02  0.30203135763E+02  0.00000000000E+00 0.  1.
         21   -1    0    0  504  502 -0.00000000000E+00 -0.00000000000E+00 -0.49993307995E+02  0.49993307995E+02  0.00000000000E+00 0. -1.
         21    1    1    2  503  501 -0.72011266201E+00 -0.21900187134E+02  0.23219808726E+02  0.31926419719E+02  0.00000000000E+00 0.  1.
         21    1    1    2  504  503  0.72011266201E+00  0.21900187134E+02 -0.43009980958E+02  0.48270024040E+02  0.00000000000E+00 0. -1.
</event>
<event>
 4    1  0.3080871E+006  0.2414639E+02  0.7546771E-02  0.1478584E+00
         21   -1    0    0  504  501  0.00000000000E+00  0.00000000000E+00  0.13473980586E+01  0.13473980586E+01  0.00000000000E+00 0.  1.
         21   -1    0    0  501  502 -0.00000000000E+00 -0.00000000000E+00 -0.46413048285E+03  0.46413048285E+03  0.00000000000E+00 0. -1.
         21    1    1    2  503  502  0.15989846686E+02 -0.18093455515E+02 -0.29193605835E+03  0.29293294539E+03  0.00000000000E+00 0.  1.
         21    1    1    2  504  503 -0.15989846686E+02  0.18093455515E+02 -0.17084702644E+03  0.17254493552E+03  0.00000000000E+00 0. -1.
</event>
<event>
 4    1  0.3080871E+006  0.2038186E+02  0.7546771E-02  0.1528276E+00
         21   -1    0    0  503  501  0.00000000000E+00  0.00000000000E+00  0.14430714364E+03  0.14430714364E+03  0.00000000000E+00 0. -1.
         21   -1    0    0  504  502 -0.00000000000E+00 -0.00000000000E+00 -0.32471027793E+01  0.32471027793E+01  0.00000000000E+00 0. -1.
         21    1    1    2  503  502  0.14390334848E+02  0.14433934163E+02  0.45680271610E+02  0.50021069629E+02  0.00000000000E+00 0. -1.
         21    1    1    2  504  501 -0.14390334848E+02 -0.14433934163E+02  0.95379769251E+02  0.97533176790E+02  0.00000000000E+00 0. -1.
</event>
<event>
 4    1  0.3080871E+006  0.2116143E+02  0.7546771E-02  0.1516972E+00
         21   -1    0    0  503  501  0.00000000000E+00  0.00000000000E+00  0.15894191548E+03  0.15894191548E+03  0.00000000000E+00 0. -1.
         21   -1    0    0  504  502 -0.00000000000E+00 -0.00000000000E+00 -0.50720334779E+01  0.50720334779E+01  0.00000000000E+00 0. -1.
         21    1    1    2  503  502  0.50445866635E+01 -0.20551361369E+02  0.13161080769E+03  0.13330120408E+03  0.00000000000E+00 0. -1.
         21    1    1    2  504  501 -0.50445866635E+01  0.20551361369E+02  0.22259074320E+02  0.30712744884E+02  0.00000000000E+00 0. -1.
</event>
<event>
 4    1  0.3080871E+006  0.2308696E+02  0.7546771E-02  0.1491409E+00
         21   -1    0    0  502  501  0.00000000000E+00  0.00000000000E+00  0.36813150605E+02  0.36813150605E+02  0.00000000000E+00 0.  1.
         21   -1    0    0  504  502 -0.00000000000E+00 -0.00000000000E+00 -0.25531377466E+02  0.25531377466E+02  0.00000000000E+00 0.  1.
         21    1    1    2  503  501 -0.22923963718E+02 -0.27385328293E+01  0.26150826030E+02  0.34883712197E+02  0.00000000000E+00 0.  1.
         21    1    1    2  504  503  0.22923963718E+02  0.27385328293E+01 -0.14869052891E+02  0.27460815874E+02  0.00000000000E+00 0.  1.
</event>
<event>
 4    1  0.3080871E+006  0.2428677E+02  0.7546771E-02  0.1476943E+00
         21   -1    0    0  502  501  0.00000000000E+00  0.00000000000E+00  0.25327215161E+03  0.25327215161E+03  0.00000000000E+00 0.  1.
         21   -1    0    0  504  502 -0.00000000000E+00 -0.00000000000E+00 -0.54720188111E+01  0.54720188111E+01  0.00000000000E+00 0.  1.
         21    1    1    2  503  501  0.42571324855E+01  0.23910747288E+02  0.22194988111E+03  0.22327471138E+03  0.00000000000E+00 0.  1.
         21    1    1    2  504  503 -0.42571324855E+01 -0.23910747288E+02  0.25850251683E+02  0.35469459045E+02  0.00000000000E+00 0.  1.
</event>
<event>
 4    1  0.3080871E+006  0.2270338E+02  0.7546771E-02  0.1496257E+00
         21   -1    0    0  504  501  0.00000000000E+00  0.00000000000E+00  0.63629020249E+02  0.63629020249E+02  0.00000000000E+00 0.  1.
         21   -1    0    0  503  502 -0.00000000000E+00 -0.00000000000E+00 -0.69812364639E+02  0.69812364639E+02  0.00000000000E+00 0. -1.
         21    1    1    2  503  501 -0.19712768908E+02  0.11262777363E+02 -0.65822033773E+02  0.69627462556E+02  0.00000000000E+00 0. -1.
         21    1    1    2  504  502  0.19712768908E+02 -0.11262777363E+02  0.59638689384E+02  0.63813922332E+02  0.00000000000E+00 0.  1.
</event>
<event>
 4    1  0.3080871E+006  0.2397720E+02  0.7546771E-02  0.1480579E+00
         21   -1    0    0  503  501  0.00000000000E+00  0.00000000000E+00  0.55031532262E+02  0.55031532262E+02  0.00000000000E+00 0.  1.
         21   -1    0    0  504  502 -0.00000000000E+00 -0.00000000000E+00 -0.10452946089E+02  0.10452946089E+02  0.00000000000E+00 0.  1.
         21    1    1    2  503  502  0.18681143218E+02 -0.15030675276E+02  0.21498762608E+02  0.32204085220E+02  0.00000000000E+00 0.  1.
         21    1    1    2  504  501 -0.18681143218E+02  0.15030675276E+02  0.23079823565E+02  0.33280393131E+02  0.00000000000E+00 0.  1.
</event>
<event>
 4    1  0.3080871E+006  0.2624237E+02  0.7546771E-02  0.1455371E+00
         21   -1    0    0  503  501  0.00000000000E+00  0.00000000000E+00  0.55990118588E+01  0.55990118588E+01  0.00000000000E+00 0. -1.
         21   -1    0    0  504  502 -0.00000000000E+00 -0.00000000000E+00 -0.13007343767E+03  0.13007343767E+03  0.00000000000E+00 0. -1.
         21    1    1    2  503  502 -0.25789276900E+02 -0.48554011051E+01 -0.46414739729E+02  0.53319694176E+02  0.00000000000E+00 0. -1.
         21    1    1    2  504  501  0.25789276900E+02  0.48554011051E+01 -0.78059686085E+02  0.82352755356E+02  0.00000000000E+00 0. -1.
</event>
<event>
 4    1  0.3080871E+006  0.2628246E+02  0.7546771E-02  0.1454952E+00
         21   -1    0    0  504  501  0.00000000000E+00  0.00000000000E+00  0.38249104098E+02  0.38249104098E+02  0.00000000000E+00 0. -1.
         21   -1    0    0  503  502 -0.00000000000E+00 -0.00000000000E+00 -0.18550582448E+02  0.18550582448E+02  0.00000000000E+00 0. -1.
         21    1    1    2  503  501  0.25024505767E+02  0.80337999738E+01  0.14469030285E+02  0.30002011071E+02  0.00000000000E+00 0. -1.
         21    1    1    2  504  502 -0.25024505767E+02 -0.80337999738E+01  0.52294913652E+01  0.26797675475E+02  0.00000000000E+00 0. -1.
</event>
<event>
 4    1  0.3080871E+006  0.2354769E+02  0.7546771E-02  0.1485733E+00
         21   -1    0    0  502  501  0.00000000000E+00  0.00000000000E+00  0.44750767587E+02  0.44750767587E+02  0.00000000000E+00 0. -1.
         21   -1    0    0  503  502 -0.00000000000E+00 -0.00000000000E+00 -0.12758530619E+03  0.12758530619E+03  0.00000000000E+00 0. -1.
         21    1    1    2  503  504 -0.17951922096E+02  0.15238834633E+02 -0.12329427094E+03  0.12552279010E+03  0.00000000000E+00 0. -1.
         21    1    1    2  504  501  0.17951922096E+02 -0.15238834633E+02  0.40459732336E+02  0.46813283677E+02  0.00000000000E+00 0. -1.
</event>
<event>
 4    1  0.3080871E+006  0.2207508E+02  0.7546771E-02  0.1504451E+00
         21   -1    0    0  504  501  0.00000000000E+00  0.00000000000E+00  0.49754393780E+02  0.49754393780E+02  0.00000000000E+00 0. -1.
         21   -1    0    0  503  502 -0.00000000000E+00 -0.00000000000E+00 -0.13892563927E+03  0.13892563927E+03  0.00000000000E+00 0. -1.
         21    1    1    2  503  501  0.14468286328E+02 -0.16672673448E+02  0.46368120506E+02  0.51354765587E+02  0.00000000000E+00 0. -1.
         21    1    1    2  504  502 -0.14468286328E+02  0.16672673448E+02 -0.13553936600E+03  0.13732526746E+03  0.00000000000E+00 0. -1.
</event>
<event>
 4    1  0.3080871E+006  0.2566351E+02  0.7546771E-02  0.1461516E+00
         21   -1    0    0  503  501  0.00000000000E+00  0.00000000000E+00  0.58993887206E+02  0.58993887206E+02  0.00000000000E+00 0. -1.
         21   -1    0    0  501  502 -0.00000000000E+00 -0.00000000000E+00 -0.17810481428E+02  0.17810481428E+02  0.00000000000E+00 0. -1.
         21    1    1    2  503  504 -0.19330511252E+02 -0.16880382882E+02  0.44050699667E+02  0.50981174297E+02  0.00000000000E+00 0. -1.
         21    1    1    2  504  502  0.19330511252E+02  0.16880382882E+02 -0.28672938898E+01  0.25823194337E+02  0.00000000000E+00 0. -1.
</event>
<event>
 4    1  0.3080871E+006  0.2315257E+02  0.7546771E-02  0.1490591E+00
         21   -1    0    0  504  501  0.00000000000E+00  0.00000000000E+00  0.21255432647E+02  0.21255432647E+02  0.00000000000E+00 0. -1.
         21   -1    0    0  503  502 -0.00000000000E+00 -0.00000000000E+00 -0.25980545361E+02  0.25980545361E+02  0.00000000000E+00 0. -1.
         21    1    1    2  503  501  0.18112756376E+02 -0.14421156985E+02 -0.64060227934E+01  0.24022465326E+02  0.00000000000E+00 0. -1.
         21    1    1    2  504  502 -0.18112756376E+02  0.14421156985E+02  0.16809100786E+01  0.23213512682E+02  0.00000000000E+00 0. -1.
</event>
<event>
 4    1  0.3080871E+006  0.2200496E+02  0.7546771E-02  0.1505386E+00
         21   -1    0    0  504  501  0.00000000000E+00  0.00000000000E+00  0.78993491073E+02  0.78993491073E+02  0.00000000000E+00 0. -1.
         21   -1    0    0  503  502 -0.00000000000E+00 -0.00000000000E+00 -0.49081037655E+02  0.49081037655E+02  0.00000000000E+00 0.  1.
         21    1    1    2  503  501 -0.18232001257E+02 -0.12321223977E+02  0.74861282919E+02  0.78028392976E+02  0.00000000000E+00 0. -1.
         21    1    1    2  504  502  0.18232001257E+02  0.12321223977E+02 -0.44948829501E+02  0.50046135752E+02  0.00000000000E+00 0.  1.
</event>
<event>
 4    1  0.3080871E+006  0.2054629E+02  0.7546771E-02  0.1525842E+00
         21   -1    0    0  504  501  0.00000000000E+00  0.00000000000E+00  0.57448787864E+02  0.57448787864E+02  0.00000000000E+00 0. -1.
         21   -1    0    0  503  502 -0.00000000000E+00 -0.00000000000E+00 -0.80473826972E+01  0.80473826972E+01  0.00000000000E+00 0. -1.
         21    1    1    2  503  501 -0.28923966839E+01  0.20341685661E+02  0.34352921281E+02  0.40028406596E+02  0.00000000000E+00 0. -1.
         21    1    1    2  504  502  0.28923966839E+01 -0.20341685661E+02  0.15048483885E+02  0.25467763965E+02  0.00000000000E+00 0. -1.
</event>
<event>
 4    1  0.3080871E+006  0.2495166E+02  0.7546771E-02  0.1469345E+00
         21   -1    0    0  502  501  0.00000000000E+00  0.00000000000E+00  0.24630888802E+02  0.24630888802E+02  0.00000000000E+00 0.  1.
         21   -1    0    0  504  502 -0.00000000000E+00 -0.00000000000E+00 -0.17007418084E+03  0.17007418084E+03  0.00000000000E+00 0.  1.
         21    1    1    2  503  501  0.10341616743E+01  0.24930217865E+02  0.17105730347E+02  0.30252128253E+02  0.00000000000E+00 0.  1.
         21    1    1    2  504  503 -0.10341616743E+01 -0.24930217865E+02 -0.16254902238E+03  0.16445294139E+03  0.00000000000E+00 0.  1.
</event>
<event>
 4    1  0.3080871E+006  0.3078180E+02  0.7546771E-02  0.1412922E+00
         21   -1    0    0  504  501  0.00000000000E+00  0.00000000000E+00  0.59439594728E+03  0.59439594728E+03  0.00000000000E+00 0.  1.
         21   -1    0    0  503  502 -0.00000000000E+00 -0.00000000000E+00 -0.16261020837E+01  0.16261020837E+01  0.00000000000E+00 0.  1.
         21    1    1    2  503  501 -0.20501465242E+02  0.22961033164E+02  0.25456986651E+03  0.25642413314E+03  0.00000000000E+00 0.  1.
         21    1    1    2  504  502  0.20501465242E+02 -0.22961033164E+02  0.33819997869E+03  0.33959791623E+03  0.00000000000E+00 0.  1.
</event>
<event>
 4    1  0.3080871E+006  0.2017173E+02  0.7546771E-02  0.1531427E+00
         21   -1    0    0  503  501  0.00000000000E+00  0.00000000000E+00  0.97670589512E+01  0.97670589512E+01  0.00000000000E+00 0. -1.
         21   -1    0    0  504  502 -0.00000000000E+00 -0.00000000000E+00 -0.46380829142E+02  0.46380829142E+02  0.00000000000E+00 0. -1.
         21    1    1    2  503  502  0.18029990021E+02 -0.90453403716E+01 -0.27263192026E+02  0.33914309105E+02  0.00000000000E+00 0. -1.
         21    1    1    2  504  501 -0.18029990021E+02  0.90453403716E+01 -0.93505781644E+01  0.22233578988E+02  0.00000000000E+00 0. -1.
</event>
<event>
 4    1  0.3080871E+006  0.3146557E+02  0.7546771E-02  0.1407274E+00
         21   -1    0    0  504  501  0.00000000000E+00  0.00000000000E+00  0.78803488622E+01  0.78803488622E+01  0.00000000000E+00 0.  1.
         21   -1    0    0  503  502 -0.00000000000E+00 -0.00000000000E+00 -0.14255064596E+04  0.14255064596E+04  0.00000000000E+00 0. -1.
         21    1    1    2  503  501  0.30332826348E+02 -0.83666860844E+01 -0.13931946050E+04  0.13935498876E+04  0.00000000000E+00 0. -1.
         21    1    1    2  504  502 -0.30332826348E+02  0.83666860844E+01 -0.24431505674E+02  0.39836920812E+02  0.00000000000E+00 0.  1.
</event>
<event>
 4    1  0.3080871E+006  0.2229223E+02  0.7546771E-02  0.1501582E+00
         21   -1    0    0  502  501  0.00000000000E+00  0.00000000000E+00  0.30970256455E+03  0.30970256455E+03  0.00000000000E+00 0.  1.
         21   -1    0    0  503  502 -0.00000000000E+00 -0.00000000000E+00 -0.13323824508E+02  0.13323824508E+02  0.00000000000E+00 0. -1.
         21    1    1    2  503  504 -0.20333534211E+02 -0.91373295014E+01 -0.32864496245E+01  0.22533178983E+02  0.00000000000E+00 0. -1.
         21    1    1    2  504  501  0.20333534211E+02  0.91373295014E+01  0.29966518967E+03  0.30049321008E+03  0.00000000000E+00 0.  1.
</event>
<event>
 4    1  0.3080871E+006  0.3701185E+02  0.7546771E-02  0.1366946E+00
         21   -1    0    0  504  501  0.00000000000E+00  0.00000000000E+00  0.23404137123E+03  0.23404137123E+03  0.00000000000E+00 0.  1.
         21   -1    0    0  501  502 -0.00000000000E+00 -0.00000000000E+00 -0.27754441458E+02  0.27754441458E+02  0.00000000000E+00 0. -1.
         21    1    1    2  503  502 -0.35687023837E+02  0.98139406008E+01 -0.13135567154E+02  0.39273658155E+02  0.00000000000E+00 0. -1.
         21    1    1    2  504  503  0.35687023837E+02 -0.98139406008E+01  0.21942249692E+03  0.22252215453E+03  0.00000000000E+00 0.  1.
</event>
<event>
 4    1  0.3080871E+006  0.2873380E+02  0.7546771E-02  0.1430928E+00
         21   -1    0    0  503  501  0.00000000000E+00  0.00000000000E+00  0.14283550258E+02  0.14283550258E+02  0.00000000000E+00 0. -1.
         21   -1    0    0  501  502 -0.00000000000E+00 -0.00000000000E+00 -0.10323131566E+03  0.10323131566E+03  0.00000000000E+00 0.  1.
         21    1    1    2  503  504 -0.22163399926E+02  0.18287018102E+02 -0.54957846593E+01  0.29254657345E+02  0.00000000000E+00 0. -1.
         21    1    1    2  504  502  0.22163399926E+02 -0.18287018102E+02 -0.83451980740E+02  0.88260208570E+02  0.00000000000E+00 0.  1.
</event>
<event>
 4    1  0.3080871E+006  0.3172816E+02  0.7546771E-02  0.1405150E+00
         21   -1    0    0  504  501  0.00000000000E+00  0.00000000000E+00  0.12038042749E+03  0.12038042749E+03  0.00000000000E+00 0.  1.
         21   -1    0    0  501  502 -0.00000000000E+00 -0.00000000000E+00 -0.65291531272E+03  0.65291531272E+03  0.00000000000E+00 0.  1.
         21    1    1    2  503  502 -0.16869884746E+02 -0.26871604375E+02 -0.65043126470E+03  0.65120465771E+03  0.00000000000E+00 0.  1.
         21    1    1    2  504  503  0.16869884746E+02  0.26871604375E+02  0.11789637947E+03  0.12209108249E+03  0.00000000000E+00 0.  1.
</event>
<event>
 4    1  0.3080871E+006  0.2030089E+02  0.7546771E-02  0.1529485E+00
         21   -1    0    0  503  501  0.00000000000E+00  0.00000000000E+00  0.33431376538E+03  0.33431376538E+03  0.00000000000E+00 0. -1.
         21   -1    0    0  504  502 -0.00000000000E+00 -0.00000000000E+00 -0.74028828793E+01  0.74028828793E+01  0.00000000000E+00 0. -1.
         21    1    1    2  503  502 -0.16680137690E+02 -0.11571485938E+02  0.31944044861E+03  0.32008487388E+03  0.00000000000E+00 0. -1.
         21    1    1    2  504  501  0.16680137690E+02  0.11571485938E+02  0.74704338898E+01  0.21631774376E+02  0.00000000000E+00 0. -1.
</event>
<event>
 4    1  0.3080871E+006  0.2013605E+02  0.7546771E-02  0.1531966E+00
         21   -1    0    0  503  501  0.00000000000E+00  0.00000000000E+00  0.24989493732E+03  0.24989493732E+03  0.00000000000E+00 0. -1.
         21   -1    0    0  504  502 -0.00000000000E+00 -0.00000000000E+00 -0.19697210848E+01  0.19697210848E+01  0.00000000000E+00 0. -1.
         21    1    1    2  503  502 -0.19588945146E+02  0.46619324710E+01  0.71090908441E+02  0.73887601458E+02  0.00000000000E+00 0. -1.
         21    1    1    2  504  501  0.19588945146E+02 -0.46619324710E+01  0.17683430779E+03  0.17797705695E+03  0.00000000000E+00 0. -1.
</event>
<event>
 4    1  0.3080871E+006  0.2238788E+02  0.7546771E-02  0.1500331E+00
         21   -1    0    0  503  501  0.00000000000E+00  0.00000000000E+00  0.44640782567E+01  0.44640782567E+01  0.00000000000E+00 0. -1.
         21   -1    0    0  504  502 -0.00000000000E+00 -0.00000000000E+00 -0.12042324195E+03  0.12042324195E+03  0.00000000000E+00 0. -1.
         21    1    1    2  503  502 -0.12659018520E+02 -0.18465274572E+02 -0.41739464939E+02  0.47364544211E+02  0.00000000000E+00 0. -1.
         21    1    1    2  504  501  0.12659018520E+02  0.18465274572E+02 -0.74219698753E+02  0.77522775994E+02  0.00000000000E+00 0. -1.
</event>
<event>
 4    1  0.3080871E+006  0.2945081E+02  0.7546771E-02  0.1424430E+00
         21   -1    0    0  504  501  0.00000000000E+00  0.00000000000E+00  0.23605250633E+02  0.23605250633E+02  0.00000000000E+00 0. -1.
         21   -1    0    0  503  502 -0.00000000000E+00 -0.00000000000E+00 -0.30086053948E+03  0.30086053948E+03  0.00000000000E+00 0.  1.
         21    1    1    2  503  501 -0.23633875628E+02  0.17572427810E+02  0.13376048237E+02  0.32346081104E+02  0.00000000000E+00 0. -1.
         21    1    1    2  504  502  0.23633875628E+02 -0.17572427810E+02 -0.29063133708E+03  0.29211970901E+03  0.00000000000E+00 0.  1.
</event>
<event>
 4    1  0.3080871E+006  0.2766022E+02  0.7546771E-02  0.1441086E+00
         21   -1    0    0  504  501  0.00000000000E+00  0.00000000000E+00  0.32464636596E+02  0.32464636596E+02  0.00000000000E+00 0.  1.
         21   -1    0    0  503  502 -0.00000000000E+00 -0.00000000000E+00 -0.24483808406E+02  0.24483808406E+02  0.00000000000E+00 0.  1.
         21    1    1    2  503  501  0.27548331223E+02  0.24854437915E+01  0.95009803593E+01  0.29246480332E+02  0.00000000000E+00 0.  1.
         21    1    1    2  504  502 -0.27548331223E+02 -0.24854437915E+01 -0.15201521697E+01  0.27701964671E+02  0.00000000000E+00 0.  1.
</event>
<event>
 4    1  0.3080871E+006  0.2048677E+02  0.7546771E-02  0.1526720E+00
         21   -1    0    0  502  501  0.00000000000E+00  0.00000000000E+00  0.50473951225E+02  0.50473951225E+02  0.00000000000E+00 0. -1.
         21   -1    0    0  503  502 -0.00000000000E+00 -0.00000000000E+00 -0.10172751841E+02  0.10172751841E+02  0.00000000000E+00 0. -1.
         21    1    1    2  503  504 -0.17616154116E+02 -0.10458431093E+02  0.71933447430E+01  0.21712942577E+02  0.00000000000E+00 0. -1.
         21    1    1    2  504  501  0.17616154116E+02  0.10458431093E+02  0.33107854641E+02  0.38933760488E+02  0.00000000000E+00 0. -1.
</event>
<event>
 4    1  0.3080871E+006  0.2585805E+02  0.7546771E-02  0.1459429E+00
         21   -1    0    0  503  501  0.00000000000E+00  0.00000000000E+00  0.18385955304E+02  0.18385955304E+02  0.00000000000E+00 0. -1.
         21   -1    0    0  504  502 -0.00000000000E+00 -0.00000000000E+00 -0.36634328944E+02  0.36634328944E+02  0.00000000000E+00 0. -1.
         21    1    1    2  503  502  0.85974514562E+01  0.24386936763E+02 -0.11474967777E+02  0.28289816926E+02  0.00000000000E+00 0. -1.
         21    1    1    2  504  501 -0.85974514562E+01 -0.24386936763E+02 -0.67734058627E+01  0.26730467321E+02  0.00000000000E+00 0. -1.
</event>
<event>
 4    1  0.3080871E+006  0.2030183E+02  0.7546771E-02  0.1529471E+00
         21   -1    0    0  504  501  0.00000000000E+00  0.00000000000E+00  0.25984797380E+03  0.25984797380E+03  0.00000000000E+00 0.  1.
         21   -1    0    0  503  502 -0.00000000000E+00 -0.00000000000E+00 -0.20012041747E+01  0.20012041747E+01  0.00000000000E+00 0.  1.
         21    1    1    2  503  501  0.14641585106E+02 -0.14063729072E+02  0.18854648728E+03  0.18963634239E+03  0.00000000000E+00 0.  1.
         21    1    1    2  504  502 -0.14641585106E+02  0.14063729072E+02  0.69300282341E+02  0.72212835580E+02  0.00000000000E+00 0.  1.
</event>
<event>
 4    1  0.3080871E+006  0.2245856E+02  0.7546771E-02  0.1499411E+00
         21   -1    0    0  504  501  0.00000000000E+00  0.00000000000E+00  0.12693691910E+02  0.12693691910E+02  0.00000000000E+00 0.  1.
         21   -1    0    0  503  502 -0.00000000000E+00 -0.00000000000E+00 -0.60248017209E+02  0.60248017209E+02  0.00000000000E+00 0. -1.
         21    1    1    2  503  501  0.21407602657E+02 -0.67898137935E+01 -0.45057900640E+02  0.50344825285E+02  0.00000000000E+00 0. -1.
         21    1    1    2  504  502 -0.21407602657E+02  0.67898137935E+01 -0.24964246589E+01  0.22596883833E+02  0.00000000000E+00 0.  1.
</event>
<event>
 4    1  0.3080871E+006  0.2206262E+02  0.7546771E-02  0.1504617E+00
         21   -1    0    0  504  501  0.00000000000E+00  0.00000000000E+00  0.63407066878E+02  0.63407066878E+02  0.00000000000E+00 0.  1.
         21   -1    0    0  503  502 -0.00000000000E+00 -0.00000000000E+00 -0.80424894068E+01  0.80424894068E+01  0.00000000000E+00 0.  1.
         21    1    1    2  503  501  0.12677858156E+02  0.18056336652E+02  0.20063817237E+02  0.29821404106E+02  0.00000000000E+00 0.  1.
         21    1    1    2  504  502 -0.12677858156E+02 -0.18056336652E+02  0.35300760234E+02  0.41628152179E+02  0.00000000000E+00 0.  1.
</event>
<event>
 4    1  0.3080871E+006  0.3019945E+02  0.7546771E-02  0.1417871E+00
         21   -1    0    0  504  501  0.00000000000E+00  0.00000000000E+00  0.24823571850E+03  0.24823571850E+03  0.00000000000E+00 0. -1.
         21   -1    0    0  503  502 -0.00000000000E+00 -0.00000000000E+00 -0.47703581224E+01  0.47703581224E+01  0.00000000000E+00 0. -1.
         21    1    1    2  503  501 -0.12381385617E+02 -0.27544660195E+02  0.18237984068E+03  0.18486322864E+03  0.00000000000E+00 0. -1.
         21    1    1    2  504  502  0.12381385617E+02  0.27544660195E+02  0.61085519698E+02  0.68142847988E+02  0.00000000000E+00 0. -1.
</event>
<event>
 4    1  0.3080871E+006  0.2067850E+02  0.7546771E-02  0.1523905E+00
         21   -1    0    0  503  501  0.00000000000E+00  0.00000000000E+00  0.43253773172E+03  0.43253773172E+03  0.00000000000E+00 0. -1.
         21   -1    0    0  504  502 -0.00000000000E+00 -0.00000000000E+00 -0.11047534511E+01  0.11047534511E+01  0.00000000000E+00 0. -1.
         21    1    1    2  503  502  0.20115106507E+02 -0.47940265962E+01  0.28602594423E+03  0.28677245505E+03  0.00000000000E+00 0. -1.
         21    1    1    2  504  501 -0.20115106507E+02  0.47940265962E+01  0.14540703404E+03  0.14687003013E+03  0.00000000000E+00 0. -1.
</event>
<event>
 4    1  0.3080871E+006  0.2215457E+02  0.7546771E-02  0.1503396E+00
         21   -1    0    0  502  501  0.00000000000E+00  0.00000000000E+00  0.23282761102E+02  0.23282761102E+02  0.00000000000E+00 0.  1.
         21   -1    0    0  504  502 -0.00000000000E+00 -0.00000000000E+00 -0.21100229936E+02  0.21100229936E+02  0.00000000000E+00 0.  1.
         21    1    1    2  503  501  0.72261624648E+01 -0.20942960118E+02  0.42216698891E+00  0.22158592632E+02  0.00000000000E+00 0.  1.
         21    1    1    2  504  503 -0.72261624648E+01  0.20942960118E+02  0.17603641767E+01  0.22224398406E+02  0.00000000000E+00 0.  1.
</event>
<event>
 4    1  0.3080871E+006  0.2221907E+02  0.7546771E-02  0.1502544E+00
         21   -1    0    0  504  501  0.00000000000E+00  0.00000000000E+00  0.19812219606E+02  0.19812219606E+02  0.00000000000E+00 0. -1.
         21   -1    0    0  503  502 -0.00000000000E+00 -0.00000000000E+00 -0.54967385030E+02  0.54967385030E+02  0.00000000000E+00 0.  1.
         21    1    1    2  503  501 -0.22212613087E+02 -0.53582641856E+00 -0.45222550601E+02  0.50386172438E+02  0.00000000000E+00 0.  1.
         21    1    1    2  504  502  0.22212613087E+02  0.53582641856E+00  0.10067385177E+02  0.24393432198E+02  0.00000000000E+00 0. -1.
</event>
<event>
 4    1  0.3080871E+006  0.2749643E+02  0.7546771E-02  0.1442684E+00
         21   -1    0    0  503  501  0.00000000000E+00  0.00000000000E+00  0.19838084122E+02  0.19838084122E+02  0.00000000000E+00 0.  1.
         21   -1    0    0  504  502 -0.00000000000E+00 -0.00000000000E+00 -0.38586304482E+02  0.38586304482E+02  0.00000000000E+00 0.  1.
         21    1    1    2  503  502 -0.97918715435E+01  0.25693835622E+02 -0.61327673356E+01  0.28172056589E+02  0.00000000000E+00 0.  1.
         21    1    1    2  504  501  0.97918715435E+01 -0.25693835622E+02 -0.12615453025E+02  0.30252332015E+02  0.00000000000E+00 0.  1.
</event>
<event>
 4    1  0.3080871E+006  0.8199365E+02  0.7546771E-02  0.1199293E+00
         21   -1    0    0  504  501  0.00000000000E+00  0.00000000000E+00  0.43357996452E+03  0.43357996452E+03  0.00000000000E+00 0.  1.
         21   -1    0    0  503  502 -0.00000000000E+00 -0.00000000000E+00 -0.29231423790E+02  0.29231423790E+02  0.00000000000E+00 0.  1.
         21    1    1    2  503  501  0.37380059288E+01 -0.81908396902E+02  0.36074272081E+03  0.36994360217E+03  0.00000000000E+00 0.  1.
         21    1    1    2  504  502 -0.37380059288E+01  0.81908396902E+02  0.43605819924E+02  0.92867786141E+02  0.00000000000E+00 0.  1.
</event>
<event>
 4    1  0.3080871E+006  0.2205320E+02  0.7546771E-02  0.1504742E+00
         21   -1    0    0  503  501  0.00000000000E+00  0.00000000000E+00  0.23970947462E+01  0.23970947462E+01  0.00000000000E+00 0. -1.
         21   -1    0    0  504  502 -0.00000000000E+00 -0.00000000000E+00 -0.38184971276E+03  0.38184971276E+03  0.00000000000E+00 0. -1.
         21    1    1    2  503  502 -0.22027692420E+02 -0.10603922969E+01 -0.32125277069E+03  0.32200882960E+03  0.00000000000E+00 0. -1.
         21    1    1    2  504  501  0.22027692420E+02  0.10603922969E+01 -0.58199847319E+02  0.62237977900E+02  0.00000000000E+00 0. -1.
</event>
<event>
 4    1  0.3080871E+006  0.2185234E+02  0.7546771E-02  0.1507435E+00
         21   -1    0    0  502  501  0.00000000000E+00  0.00000000000E+00  0.43693175179E+02  0.43693175179E+02  0.00000000000E+00 0.  1.
         21   -1    0    0  503  502 -0.00000000000E+00 -0.00000000000E+00 -0.11085391960E+03  0.11085391960E+03  0.00000000000E+00 0. -1.
         21    1    1    2  503  504 -0.93343526437E+01  0.19758404407E+02 -0.10694591393E+03  0.10915563746E+03  0.00000000000E+00 0. -1.
         21    1    1    2  504  501  0.93343526437E+01 -0.19758404407E+02  0.39785169510E+02  0.45391457313E+02  0.00000000000E+00 0.  1.
</event>
<event>
 4    1  0.3080871E+006  0.6016974E+02  0.7546771E-02  0.1259257E+00
         21   -1    0    0  504  501  0.00000000000E+00  0.00000000000E+00  0.56841798663E+03  0.56841798663E+03  0.00000000000E+00 0. -1.
         21   -1    0    0  503  502 -0.00000000000E+00 -0.00000000000E+00 -0.63693932627E+01  0.63693932627E+01  0.00000000000E+00 0. -1.
         21    1    1    2  503  501 -0.52273588774E+02  0.29797133256E+02  0.27966946060E+03  0.28606888056E+03  0.00000000000E+00 0. -1.
         21    1    1    2  504  502  0.52273588774E+02 -0.29797133256E+02  0.28237913277E+03  0.28871849934E+03  0.00000000000E+00 0. -1.
</event>
<event>
 4    1  0.3080871E+006  0.2082214E+02  0.7546771E-02  0.1521819E+00
         21   -1    0    0  503  501  0.00000000000E+00  0.00000000000E+00  0.15836773570E+02  0.15836773570E+02  0.00000000000E+00 0. -1.
         21   -1    0    0  504  502 -0.00000000000E+00 -0.00000000000E+00 -0.33554364354E+02  0.33554364354E+02  0.00000000000E+00 0. -1.
         21    1    1    2  503  502  0.20233259145E+02 -0.49169922210E+01 -0.19454992976E+02  0.28496637343E+02  0.00000000000E+00 0. -1.
         21    1    1    2  504  501 -0.20233259145E+02  0.49169922210E+01  0.17374021919E+01  0.20894500581E+02  0.00000000000E+00 0. -1.
</event>
<event>
 4    1  0.3080871E+006  0.2146148E+02  0.7546771E-02  0.1512777E+00
         21   -1    0    0  502  501  0.00000000000E+00  0.00000000000E+00  0.38619445821E+02  0.38619445821E+02  0.00000000000E+00 0. -1.
         21   -1    0    0  503  502 -0.00000000000E+00 -0.00000000000E+00 -0.13370870148E+02  0.13370870148E+02  0.00000000000E+00 0. -1.
         21    1    1    2  503  504  0.15055492572E+02 -0.15294680933E+02  0.40804950604E+01  0.21845950686E+02  0.00000000000E+00 0. -1.
         21    1    1    2  504  501 -0.15055492572E+02  0.15294680933E+02  0.21168080613E+02  0.30144365282E+02  0.00000000000E+00 0. -1.
</event>
<event>
 4    1  0.3080871E+006  0.2344855E+02  0.7546771E-02  0.1486941E+00
         21   -1    0    0  503  501  0.00000000000E+00  0.00000000000E+00  0.12235707250E+03  0.12235707250E+03  0.00000000000E+00 0.  1.
         21   -1    0    0  504  502 -0.00000000000E+00 -0.00000000000E+00 -0.91609629770E+01  0.91609629770E+01  0.00000000000E+00 0.  1.
         21    1    1    2  503  502 -0.40038867416E+01 -0.23104183898E+02  0.10353517929E+03  0.10615727848E+03  0.00000000000E+00 0.  1.
         21    1    1    2  504  501  0.40038867416E+01  0.23104183898E+02  0.96609302294E+01  0.25360756998E+02  0.00000000000E+00 0.  1.
</event>
<event>
 4    1  0.3080871E+006  0.5031856E+02  0.7546771E-02  0.1296797E+00
         21   -1    0    0  502  501  0.00000000000E+00  0.00000000000E+00  0.82554864879E+02  0.82554864879E+02  0.00000000000E+00 0.  1.
         21   -1    0    0  504  502 -0.00000000000E+00 -0.00000000000E+00 -0.41936875788E+03  0.41936875788E+03  0.00000000000E+00 0. -1.
         21    1    1    2  503  501  0.14985782134E+02 -0.48035235293E+02  0.73203763471E+02  0.88829885074E+02  0.00000000000E+00 0.  1.
         21    1    1    2  504  503 -0.14985782134E+02  0.48035235293E+02 -0.41001765648E+03  0.41309373769E+03  0.00000000000E+00 0. -1.
</event>
<event>
 4    1  0.3080871E+006  0.2117182E+02  0.7546771E-02  0.1516826E+00
         21   -1    0    0  504  501  0.00000000000E+00  0.00000000000E+00  0.28785836464E+02  0.28785836464E+02  0.00000000000E+00 0.  1.
         21   -1    0    0  501  502 -0.00000000000E+00 -0.00000000000E+00 -0.27738078866E+02  0.27738078866E+02  0.00000000000E+00 0. -1.
         21    1    1    2  503  502 -0.15887660236E+02  0.13993867330E+02 -0.18193442290E+02  0.27915003367E+02  0.00000000000E+00 0. -1.
         21    1    1    2  504  503  0.15887660236E+02 -0.13993867330E+02  0.19241199887E+02  0.28608911963E+02  0.00000000000E+00 0.  1.
</event>
<event>
 4    1  0.3080871E+006  0.2454849E+02  0.7546771E-02  0.1473918E+00
         21   -1    0    0  503  501  0.00000000000E+00  0.00000000000E+00  0.40122227543E+01  0.40122227543E+01  0.00000000000E+00 0.  1.
         21   -1    0    0  504  502 -0.00000000000E+00 -0.00000000000E+00 -0.75763444460E+03  0.75763444460E+03  0.00000000000E+00 0.  1.
         21    1    1    2  503  502  0.11677587703E+02  0.21593108003E+02 -0.35819205390E+02  0.43424000766E+02  0.00000000000E+00 0.  1.
         21    1    1    2  504  501 -0.11677587703E+02 -0.21593108003E+02 -0.71780301646E+03  0.71822266659E+03  0.00000000000E+00 0.  1.
</event>
<event>
 4    1  0.3080871E+006  0.2421654E+02  0.7546771E-02  0.1477762E+00
         21   -1    0    0  504  501  0.00000000000E+00  0.00000000000E+00  0.52445101022E+01  0.52445101022E+01  0.00000000000E+00 0.  1.
         21   -1    0    0  501  502 -0.00000000000E+00 -0.00000000000E+00 -0.16923359923E+03  0.16923359923E+03  0.00000000000E+00 0.  1.
         21    1    1    2  503  502  0.24831230425E+01 -0.24088900097E+02 -0.13280757805E+03  0.13499738440E+03  0.00000000000E+00 0.  1.
         21    1    1    2  504  503 -0.24831230425E+01  0.24088900097E+02 -0.31181511078E+02  0.39480724931E+02  0.00000000000E+00 0.  1.
</event>
<event>
 4    1  0.3080871E+006  0.2155672E+02  0.7546771E-02  0.1511463E+00
         21   -1    0    0  504  501  0.00000000000E+00  0.00000000000E+00  0.81514185994E+03  0.81514185994E+03  0.00000000000E+00 0. -1.
         21   -1    0    0  503  502 -0.00000000000E+00 -0.00000000000E+00 -0.54471084312E+01  0.54471084312E+01  0.00000000000E+00 0. -1.
         21    1    1    2  503  501  0.12747146705E+02 -0.17383971577E+02  0.79307865461E+03  0.79337156781E+03  0.00000000000E+00 0. -1.
         21    1    1    2  504  502 -0.12747146705E+02  0.17383971577E+02  0.16616096896E+02  0.27217400555E+02  0.00000000000E+00 0. -1.
</event>
<event>
 4    1  0.3080871E+006  0.2422456E+02  0.7546771E-02  0.1477668E+00
         21   -1    0    0  504  501  0.00000000000E+00  0.00000000000E+00  0.99983633540E+02  0.99983633540E+02  0.00000000000E+00 0. -1.
         21   -1    0    0  503  502 -0.00000000000E+00 -0.00000000000E+00 -0.51849610470E+02  0.51849610470E+02  0.00000000000E+00 0. -1.
         21    1    1    2  503  501 -0.19079073769E+02 -0.14927089788E+02 -0.47423813063E+02  0.53252672335E+02  0.00000000000E+00 0. -1.
         21    1    1    2  504  502  0.19079073769E+02  0.14927089788E+02  0.95557836133E+02  0.98580571675E+02  0.00000000000E+00 0. -1.
</event>
<event>
 4    1  0.3080871E+006  0.2138322E+02  0.7546771E-02  0.1513863E+00
         21   -1    0    0  504  501  0.00000000000E+00  0.00000000000E+00  0.24205102585E+03  0.24205102585E+03  0.00000000000E+00 0. -1.
         21   -1    0    0  501  502 -0.00000000000E+00 -0.00000000000E+00 -0.40819580020E+02  0.40819580020E+02  0.00000000000E+00 0.  1.
         21    1    1    2  503  502 -0.38478542672E+01  0.21034164519E+02 -0.37508172922E+02  0.43175283386E+02  0.00000000000E+00 0.  1.
         21    1    1    2  504  503  0.38478542672E+01 -0.21034164519E+02  0.23873961875E+03  0.23969532248E+03  0.00000000000E+00 0. -1.
</event>
<event>
 4    1  0.3080871E+006  0.2098549E+02  0.7546771E-02  0.1519472E+00
         21   -1    0    0  502  501  0.00000000000E+00  0.00000000000E+00  0.65687587940E+02  0.65687587940E+02  0.00000000000E+00 0. -1.
         21   -1    0    0  504  502 -0.00000000000E+00 -0.00000000000E+00 -0.70507572469E+02  0.70507572469E+02  0.00000000000E+00 0. -1.
         21    1    1    2  503  501 -0.63111779309E+01  0.20013987782E+02  0.62369151657E+02  0.65805028321E+02  0.00000000000E+00 0. -1.
         21    1    1    2  504  503  0.63111779309E+01 -0.20013987782E+02 -0.67189136187E+02  0.70390132088E+02  0.00000000000E+00 0. -1.
</event>
<event>
 4    1  0.3080871E+006  0.2147262E+02  0.7546771E-02  0.1512623E+00
         21   -1    0    0  503  501  0.00000000000E+00  0.00000000000E+00  0.27156285801E+02  0.27156285801E+02  0.00000000000E+00 0. -1.
         21   -1    0    0  501  502 -0.00000000000E+00 -0.00000000000E+00 -0.18598762240E+02  0.18598762240E+02  0.00000000000E+00 0. -1.
         21    1    1    2  503  504 -0.79750744463E+01 -0.19936690743E+02  0.11031150330E+02  0.24140416894E+02  0.00000000000E+00 0. -1.
         21    1    1    2  504  502  0.79750744463E+01  0.19936690743E+02 -0.24736267688E+01  0.21614631147E+02  0.00000000000E+00 0. -1.
</event>
<event>
 4    1  0.3080871E+006  0.3180430E+02  0.7546771E-02  0.1404539E+00
         21   -1    0    0  504  501  0.00000000000E+00  0.00000000000E+00  0.55557258113E+01  0.55557258113E+01  0.00000000000E+00 0. -1.
         21   -1    0    0  503  502 -0.00000000000E+00 -0.00000000000E+00 -0.18389657084E+03  0.18389657084E+03  0.00000000000E+00 0. -1.
         21    1    1    2  503  501 -0.65878686812E+01 -0.31114525525E+02 -0.79721747774E+02  0.85831642070E+02  0.00000000000E+00 0. -1.
         21    1    1    2  504  502  0.65878686812E+01  0.31114525525E+02 -0.98619097257E+02  0.10362065458E+03  0.00000000000E+00 0. -1.
</event>
<event>
 4    1  0.3080871E+006  0.3911054E+02  0.7546771E-02  0.1353778E+00
         21   -1    0    0  504  501  0.00000000000E+00  0.00000000000E+00  0.59570591511E+01  0.59570591511E+01  0.00000000000E+00 0. -1.
         21   -1    0    0  503  502 -0.00000000000E+00 -0.00000000000E+00 -0.25765678325E+03  0.25765678325E+03  0.00000000000E+00 0. -1.
         21    1    1    2  503  501  0.35758255764E+02  0.15842390320E+02 -0.11814666171E+03  0.12445186965E+03  0.00000000000E+00 0. -1.
         21    1    1    2  504  502 -0.35758255764E+02 -0.15842390320E+02 -0.13355306239E+03  0.13916197275E+03  0.00000000000E+00 0. -1.
</event>
<event>
 4    1  0.3080871E+006  0.3892731E+02  0.7546771E-02  0.1354889E+00
         21   -1    0    0  504  501  0.00000000000E+00  0.00000000000E+00  0.34196923517E+02  0.34196923517E+02  0.00000000000E+00 0. -1.
         21   -1    0    0  503  502 -0.00000000000E+00 -0.00000000000E+00 -0.71496630259E+02  0.71496630259E+02  0.00000000000E+00 0. -1.
         21    1    1    2  503  501  0.38874027938E+02 -0.20359645448E+01  0.13936605647E+02  0.41346876263E+02  0.00000000000E+00 0. -1.
         21    1    1    2  504  502 -0.38874027938E+02  0.20359645448E+01 -0.51236312388E+02  0.64346677513E+02  0.00000000000E+00 0. -1.
</event>
<event>
 4    1  0.3080871E+006  0.2362815E+02  0.7546771E-02  0.1484758E+00
         21   -1    0    0  503  501  0.00000000000E+00  0.00000000000E+00  0.98245670653E+02  0.98245670653E+02  0.00000000000E+00 0. -1.
         21   -1    0    0  504  502 -0.00000000000E+00 -0.00000000000E+00 -0.12467708589E+03  0.12467708589E+03  0.00000000000E+00 0. -1.
         21    1    1    2  503  502  0.16861778808E+02  0.16552030258E+02 -0.12210734669E+03  0.12437239809E+03  0.00000000000E+00 0. -1.
         21    1    1    2  504  501 -0.16861778808E+02 -0.16552030258E+02  0.95675931459E+02  0.98550358450E+02  0.00000000000E+00 0. -1.
</event>
<event>
 4    1  0.3080871E+006  0.2286377E+02  0.7546771E-02  0.1494216E+00
         21   -1    0    0  504  501  0.00000000000E+00  0.00000000000E+00  0.20205851844E+02  0.20205851844E+02  0.00000000000E+00 0. -1.
         21   -1    0    0  503  502 -0.00000000000E+00 -0.00000000000E+00 -0.10654286850E+03  0.10654286850E+03  0.00000000000E+00 0. -1.
         21    1    1    2  503  501  0.22291085914E+02 -0.50852038847E+01  0.11977187998E+02  0.25810944231E+02  0.00000000000E+00 0. -1.
         21    1    1    2  504  502 -0.22291085914E+02  0.50852038847E+01 -0.98314204650E+02  0.10093777611E+03  0.00000000000E+00 0. -1.
</event>
<event>
 4    1  0.3080871E+006  0.2339313E+02  0.7546771E-02  0.1487620E+00
         21   -1    0    0  503  501  0.00000000000E+00  0.00000000000E+00  0.69335650032E+00  0.69335650032E+00  0.00000000000E+00 0.  1.
         21   -1    0    0  504  502 -0.00000000000E+00 -0.00000000000E+00 -0.88834730257E+03  0.88834730257E+03  0.00000000000E+00 0.  1.
         21    1    1    2  503  502  0.99009535701E+01 -0.21194565287E+02 -0.29536697016E+03  0.29629189246E+03  0.00000000000E+00 0.  1.
         21    1    1    2  504  501 -0.99009535701E+01  0.21194565287E+02 -0.59228697591E+03  0.59274876660E+03  0.00000000000E+00 0.  1.
</event>
<event>
 4    1  0.3080871E+006  0.2346802E+02  0.7546771E-02  0.1486703E+00
         21   -1    0    0  503  501  0.00000000000E+00  0.00000000000E+00  0.17901739129E+03  0.17901739129E+03  0.00000000000E+00 0. -1.
         21   -1    0    0  504  502 -0.00000000000E+00 -0.00000000000E+00 -0.24231023428E+03  0.24231023428E+03  0.00000000000E+00 0.  1.
         21    1    1    2  503  502 -0.18109947330E+02  0.14925744581E+02  0.17767576658E+03  0.17921893336E+03  0.00000000000E+00 0. -1.
         21    1    1    2  504  501  0.18109947330E+02 -0.14925744581E+02 -0.24096860957E+03  0.24210869221E+03  0.00000000000E+00 0.  1.
</event>
<event>
 4    1  0.3080871E+006  0.2219985E+02  0.7546771E-02  0.1502798E+00
         21   -1    0    0  503  501  0.00000000000E+00  0.00000000000E+00  0.72678440195E+02  0.72678440195E+02  0.00000000000E+00 0. -1.
         21   -1    0    0  504  502 -0.00000000000E+00 -0.00000000000E+00 -0.68390777551E+01  0.68390777551E+01  0.00000000000E+00 0. -1.
         21    1    1    2  503  502  0.22199376031E+02  0.14493971373E+00  0.36583194450E+02  0.42792095296E+02  0.00000000000E+00 0. -1.
         21    1    1    2  504  501 -0.22199376031E+02 -0.14493971373E+00  0.29256167991E+02  0.36725422655E+02  0.00000000000E+00 0. -1.
</event>
<event>
 4    1  0.3080871E+006  0.2182302E+02  0.7546771E-02  0.1507831E+00
         21   -1    0    0  502  501  0.00000000000E+00  0.00000000000E+00  0.29603390331E+01  0.29603390331E+01  0.00000000000E+00 0. -1.
         21   -1    0    0  503  502 -0.00000000000E+00 -0.00000000000E+00 -0.23702727083E+03  0.23702727083E+03  0.00000000000E+00 0. -1.
         21    1    1    2  503  504  0.69815435763E+01 -0.20676132600E+02 -0.18504792100E+03  0.18633029135E+03  0.00000000000E+00 0. -1.
         21    1    1    2  504  501 -0.69815435763E+01  0.20676132600E+02 -0.49019010799E+02  0.53657318510E+02  0.00000000000E+00 0. -1.
</event>
<event>
 4    1  0.3080871E+006  0.2181630E+02  0.7546771E-02  0.1507922E+00
         21   -1    0    0  504  501  0.00000000000E+00  0.00000000000E+00  0.31248352337E+03  0.31248352337E+03  0.00000000000E+00 0. -1.
         21   -1    0    0  503  502 -0.00000000000E+00 -0.00000000000E+00 -0.64079378243E+01  0.64079378243E+01  0.00000000000E+00 0.  1.
         21    1    1    2  503  501  0.18393304642E+02 -0.11731886808E+02  0.29225015577E+03  0.29306331120E+03  0.00000000000E+00 0. -1.
         21    1    1    2  504  502 -0.18393304642E+02  0.11731886808E+02  0.13825429779E+02  0.25828149998E+02  0.00000000000E+00 0.  1.
</event>
<event>
 4    1  0.3080871E+006  0.3695575E+02  0.7546771E-02  0.1367312E+00
         21   -1    0    0  504  501  0.00000000000E+00  0.00000000000E+00  0.36073259094E+02  0.36073259094E+02  0.00000000000E+00 0. -1.
         21   -1    0    0  503  502 -0.00000000000E+00 -0.00000000000E+00 -0.39660545446E+03  0.39660545446E+03  0.00000000000E+00 0.  1.
         21    1    1    2  503  501 -0.19092968821E+02  0.31641527987E+02  0.25488474279E+02  0.44893096048E+02  0.00000000000E+00 0. -1.
         21    1    1    2  504  502  0.19092968821E+02 -0.31641527987E+02 -0.38602066964E+03  0.38778561750E+03  0.00000000000E+00 0.  1.
</event>
<event>
 4    1  0.3080871E+006  0.2069575E+02  0.7546771E-02  0.1523653E+00
         21   -1    0    0  504  501  0.00000000000E+00  0.00000000000E+00  0.12297990271E+03  0.12297990271E+03  0.00000000000E+00 0. -1.
         21   -1    0    0  503  502 -0.00000000000E+00 -0.00000000000E+00 -0.35001818959E+01  0.35001818959E+01  0.00000000000E+00 0. -1.
         21    1    1    2  503  501 -0.15852183364E+02 -0.13304977604E+02  0.55283075292E+02  0.59029929359E+02  0.00000000000E+00 0. -1.
         21    1    1    2  504  502  0.15852183364E+02  0.13304977604E+02  0.64196645524E+02  0.67450155248E+02  0.00000000000E+00 0. -1.
</event>
<event>
 4    1  0.3080871E+006  0.2302614E+02  0.7546771E-02  0.1492170E+00
         21   -1    0    0  503  501  0.00000000000E+00  0.00000000000E+00  0.11798695554E+03  0.11798695554E+03  0.00000000000E+00 0. -1.
         21   -1    0    0  504  502 -0.00000000000E+00 -0.00000000000E+00 -0.67090032786E+01  0.67090032786E+01  0.00000000000E+00 0. -1.
         21    1    1    2  503  502  0.22063791193E+02 -0.65872808763E+01  0.91465583310E+02  0.94319436393E+02  0.00000000000E+00 0. -1.
         21    1    1    2  504  501 -0.22063791193E+02  0.65872808763E+01  0.19812368947E+02  0.30376522422E+02  0.00000000000E+00 0. -1.
</event>
<event>
 4    1  0.3080871E+006  0.2199901E+02  0.7546771E-02  0.1505465E+00
         21   -1    0    0  503  501  0.00000000000E+00  0.00000000000E+00  0.97095210564E+02  0.97095210564E+02  0.00000000000E+00 0. -1.
         21   -1    0    0  504  502 -0.00000000000E+00 -0.00000000000E+00 -0.65419326990E+02  0.65419326990E+02  0.00000000000E+00 0. -1.
         21    1    1    2  503  502  0.17818037788E+02 -0.12902484016E+02 -0.62262477131E+02  0.66034631996E+02  0.00000000000E+00 0. -1.
         21    1    1    2  504  501 -0.17818037788E+02  0.12902484016E+02  0.93938360705E+02  0.96479905558E+02  0.00000000000E+00 0. -1.
</event>
<event>
 4    1  0.3080871E+006  0.2562555E+02  0.7546771E-02  0.1461926E+00
         21   -1    0    0  502  501  0.00000000000E+00  0.00000000000E+00  0.43398341404E+02  0.43398341404E+02  0.00000000000E+00 0.  1.
         21   -1    0    0  503  502 -0.00000000000E+00 -0.00000000000E+00 -0.26271969010E+02  0.26271969010E+02  0.00000000000E+00 0.  1.
         21    1    1    2  503  504  0.50801746990E+01  0.25116936372E+02 -0.14121311389E+02  0.29258846577E+02  0.00000000000E+00 0.  1.
         21    1    1    2  504  501 -0.50801746990E+01 -0.25116936372E+02  0.31247683783E+02  0.40411463837E+02  0.00000000000E+00 0.  1.
</event>
<event>
 4    1  0.3080871E+006  0.4640009E+02  0.7546771E-02  0.1314583E+00
         21   -1    0    0  502  501  0.00000000000E+00  0.00000000000E+00  0.19124126070E+04  0.19124126070E+04  0.00000000000E+00 0. -1.
         21   -1    0    0  504  502 -0.00000000000E+00 -0.00000000000E+00 -0.11947989569E+01  0.11947989569E+01  0.00000000000E+00 0. -1.
         21    1    1    2  503  501  0.42587866202E+02 -0.18418521534E+02  0.11855619648E+04  0.11864696122E+04  0.00000000000E+00 0. -1.
         21    1    1    2  504  503 -0.42587866202E+02  0.18418521534E+02  0.72565584320E+03  0.72713779372E+03  0.00000000000E+00 0. -1.
</event>
<event>
 4    1  0.3080871E+006  0.2369930E+02  0.7546771E-02  0.1483899E+00
         21   -1    0    0  502  501  0.00000000000E+00  0.00000000000E+00  0.47199351324E+01  0.47199351324E+01  0.00000000000E+00 0. -1.
         21   -1    0    0  504  502 -0.00000000000E+00 -0.00000000000E+00 -0.21215531576E+03  0.21215531576E+03  0.00000000000E+00 0. -1.
         21    1    1    2  503  501 -0.22297669419E+02  0.80293574791E+01 -0.31861434492E+02  0.39709037396E+02  0.00000000000E+00 0. -1.
         21    1    1    2  504  503  0.22297669419E+02 -0.80293574791E+01 -0.17557394613E+03  0.17716621349E+03  0.00000000000E+00 0. -1.
</event>
<event>
 4    1  0.3080871E+006  0.4509659E+02  0.7546771E-02  0.1320957E+00
         21   -1    0    0  504  501  0.00000000000E+00  0.00000000000E+00  0.24720229320E+03  0.24720229320E+03  0.00000000000E+00 0. -1.
         21   -1    0    0  503  502 -0.00000000000E+00 -0.00000000000E+00 -0.29412351809E+02  0.29412351809E+02  0.00000000000E+00 0. -1.
         21    1    1    2  503  501  0.17834235757E+01 -0.45061307586E+02  0.22627641063E+03  0.23072649620E+03  0.00000000000E+00 0. -1.
         21    1    1    2  504  502 -0.17834235757E+01  0.45061307586E+02 -0.84864692390E+01  0.45888148809E+02  0.00000000000E+00 0. -1.
</event>
<event>
 4    1  0.3080871E+006  0.2700173E+02  0.7546771E-02  0.1447591E+00
         21   -1    0    0  503  501  0.00000000000E+00  0.00000000000E+00  0.24646451376E+02  0.24646451376E+02  0.00000000000E+00 0.  1.
         21   -1    0    0  504  502 -0.00000000000E+00 -0.00000000000E+00 -0.44461865458E+03  0.44461865458E+03  0.00000000000E+00 0.  1.
         21    1    1    2  503  502  0.19640753427E+02 -0.18529283650E+02  0.16706635235E+02  0.31752247301E+02  0.00000000000E+00 0.  1.
         21    1    1    2  504  501 -0.19640753427E+02  0.18529283650E+02 -0.43667883844E+03  0.43751285865E+03  0.00000000000E+00 0.  1.
</event>
<event>
 4    1  0.3080871E+006  0.4133827E+02  0.7546771E-02  0.1340817E+00
         21   -1    0    0  502  501  0.00000000000E+00  0.00000000000E+00  0.65367955817E+02  0.65367955817E+02  0.00000000000E+00 0.  1.
         21   -1    0    0  503  502 -0.00000000000E+00 -0.00000000000E+00 -0.27795456056E+03  0.27795456056E+03  0.00000000000E+00 0. -1.
         21    1    1    2  503  504 -0.39216617077E+02 -0.13073235057E+02 -0.26968276282E+03  0.27283263202E+03  0.00000000000E+00 0. -1.
         21    1    1    2  504  501  0.39216617077E+02  0.13073235057E+02  0.57096158078E+02  0.70489884360E+02  0.00000000000E+00 0.  1.
</event>
<event>
 4    1  0.3080871E+006  0.2556721E+02  0.7546771E-02  0.1462557E+00
         21   -1    0    0  503  501  0.00000000000E+00  0.00000000000E+00  0.44079181916E+03  0.44079181916E+03  0.00000000000E+00 0. -1.
         21   -1    0    0  501  502 -0.00000000000E+00 -0.00000000000E+00 -0.15510840442E+01  0.15510840442E+01  0.00000000000E+00 0. -1.
         21    1    1    2  503  504 -0.30396656819E+01  0.25385875373E+02  0.26596731300E+03  0.26719336410E+03  0.00000000000E+00 0. -1.
         21    1    1    2  504  502  0.30396656819E+01 -0.25385875373E+02  0.17327342212E+03  0.17514953910E+03  0.00000000000E+00 0. -1.
</event>
<event>
 4    1  0.3080871E+006  0.2078448E+02  0.7546771E-02  0.1522364E+00
         21   -1    0    0  504  501  0.00000000000E+00  0.00000000000E+00  0.11741763235E+02  0.11741763235E+02  0.00000000000E+00 0. -1.
         21   -1    0    0  503  502 -0.00000000000E+00 -0.00000000000E+00 -0.41759586714E+02  0.41759586714E+02  0.00000000000E+00 0. -1.
         21    1    1    2  503  501  0.22724961991E+01 -0.20659871885E+02 -0.24235915027E+02  0.31927638849E+02  0.00000000000E+00 0. -1.
         21    1    1    2  504  502 -0.22724961991E+01  0.20659871885E+02 -0.57819084522E+01  0.21573711100E+02  0.00000000000E+00 0. -1.
</event>
<event>
 4    1  0.3080871E+006  0.2269890E+02  0.7546771E-02  0.1496314E+00
         21   -1    0    0  502  501  0.00000000000E+00  0.00000000000E+00  0.54029836349E+02  0.54029836349E+02  0.00000000000E+00 0.  1.
         21   -1    0    0  503  502 -0.00000000000E+00 -0.00000000000E+00 -0.27488368465E+02  0.27488368465E+02  0.00000000000E+00 0. -1.
         21    1    1    2  503  504 -0.22602359178E+02 -0.20912790699E+01 -0.19668114830E+02  0.30034560585E+02  0.00000000000E+00 0. -1.
         21    1    1    2  504  501  0.22602359178E+02  0.20912790699E+01  0.46209582714E+02  0.51483644229E+02  0.00000000000E+00 0.  1.
</event>
<event>
 4    1  0.3080871E+006  0.2233618E+02  0.7546771E-02  0.1501006E+00
         21   -1    0    0  503  501  0.00000000000E+00  0.00000000000E+00  0.60815261868E+03  0.60815261868E+03  0.00000000000E+00 0.  1.
         21   -1    0    0  504  502 -0.00000000000E+00 -0.00000000000E+00 -0.48549955365E+01  0.48549955365E+01  0.00000000000E+00 0. -1.
         21    1    1    2  503  502 -0.16936556031E+01 -0.22271879509E+02  0.58105982574E+03  0.58148897339E+03  0.00000000000E+00 0.  1.
         21    1    1    2  504  501  0.16936556031E+01  0.22271879509E+02  0.22237797405E+02  0.31518640827E+02  0.00000000000E+00 0. -1.
</event>
<event>
 4    1  0.3080871E+006  0.4061641E+02  0.7546771E-02  0.1344911E+00
         21   -1    0    0  504  501  0.00000000000E+00  0.00000000000E+00  0.46849376308E+02  0.46849376308E+02  0.00000000000E+00 0.  1.
         21   -1    0    0  503  502 -0.00000000000E+00 -0.00000000000E+00 -0.17237030820E+03  0.17237030820E+03  0.00000000000E+00 0. -1.
         21    1    1    2  503  501 -0.93114018060E+01 -0.39534673635E+02 -0.16053557051E+03  0.16559396735E+03  0.00000000000E+00 0. -1.
         21    1    1    2  504  502  0.93114018060E+01  0.39534673635E+02  0.35014638620E+02  0.53625717158E+02  0.00000000000E+00 0.  1.
</event>
<event>
 4    1  0.3080871E+006  0.2148821E+02  0.7546771E-02  0.1512407E+00
         21   -1    0    0  503  501  0.00000000000E+00  0.00000000000E+00  0.67841239723E+01  0.67841239723E+01  0.00000000000E+00 0. -1.
         21   -1    0    0  504  502 -0.00000000000E+00 -0.00000000000E+00 -0.87243389095E+02  0.87243389095E+02  0.00000000000E+00 0. -1.
         21    1    1    2  503  502  0.67804764558E+01  0.20390402090E+02 -0.18185406376E+02  0.28150530429E+02  0.00000000000E+00 0. -1.
         21    1    1    2  504  501 -0.67804764558E+01 -0.20390402090E+02 -0.62273858746E+02  0.65876982638E+02  0.00000000000E+00 0. -1.
</event>
<event>
 4    1  0.3080871E+006  0.3918686E+02  0.7546771E-02  0.1353318E+00
         21   -1    0    0  503  501  0.00000000000E+00  0.00000000000E+00  0.47744396680E+01  0.47744396680E+01  0.00000000000E+00 0. -1.
         21   -1    0    0  504  502 -0.00000000000E+00 -0.00000000000E+00 -0.14456007889E+04  0.14456007889E+04  0.00000000000E+00 0. -1.
         21    1    1    2  503  502 -0.85308818562E+01 -0.38247009232E+02 -0.13598585248E+04  0.13604230287E+04  0.00000000000E+00 0. -1.
         21    1    1    2  504  501  0.85308818562E+01  0.38247009232E+02 -0.80967824443E+02  0.89952199837E+02  0.00000000000E+00 0. -1.
</event>
<event>
 4    1  0.3080871E+006  0.3258600E+02  0.7546771E-02  0.1398378E+00
         21   -1    0    0  503  501  0.00000000000E+00  0.00000000000E+00  0.10946010784E+03  0.10946010784E+03  0.00000000000E+00 0. -1.
         21   -1    0    0  504  502 -0.00000000000E+00 -0.00000000000E+00 -0.56371117401E+02  0.56371117401E+02  0.00000000000E+00 0. -1.
         21    1    1    2  503  502  0.23960155955E+02 -0.22085251310E+02  0.10198915527E+03  0.10706836690E+03  0.00000000000E+00 0. -1.
         21    1    1    2  504  501 -0.23960155955E+02  0.22085251310E+02 -0.48900164834E+02  0.58762858334E+02  0.00000000000E+00 0. -1.
</event>
<event>
 4    1  0.3080871E+006  0.3262022E+02  0.7546771E-02  0.1398113E+00
         21   -1    0    0  503  501  0.00000000000E+00  0.00000000000E+00  0.49452517209E+03  0.49452517209E+03  0.00000000000E+00 0. -1.
         21   -1    0    0  504  502 -0.00000000000E+00 -0.00000000000E+00 -0.21665505091E+02  0.21665505091E+02  0.00000000000E+00 0. -1.
         21    1    1    2  503  502  0.30931571263E+02  0.10359384625E+02  0.48137367663E+03  0.48247766322E+03  0.00000000000E+00 0. -1.
         21    1    1    2  504  501 -0.30931571263E+02 -0.10359384625E+02 -0.85140096300E+01  0.33713013965E+02  0.00000000000E+00 0. -1.
</event>
<event>
 4    1  0.3080871E+006  0.2115512E+02  0.7546771E-02  0.1517062E+00
         21   -1    0    0  502  501  0.00000000000E+00  0.00000000000E+00  0.59605053299E+01  0.59605053299E+01  0.00000000000E+00 0. -1.
         21   -1    0    0  503  502 -0.00000000000E+00 -0.00000000000E+00 -0.19722316916E+03  0.19722316916E+03  0.00000000000E+00 0.  1.
         21    1    1    2  503  504 -0.17779063886E+02  0.11464898800E+02 -0.17557925736E+03  0.17684912958E+03  0.00000000000E+00 0.  1.
         21    1    1    2  504  501  0.17779063886E+02 -0.11464898800E+02 -0.15683406465E+02  0.26334544908E+02  0.00000000000E+00 0. -1.
</event>
<event>
 4    1  0.3080871E+006  0.3051721E+02  0.7546771E-02  0.1415154E+00
         21   -1    0    0  504  501  0.00000000000E+00  0.00000000000E+00  0.35825957931E+03  0.35825957931E+03  0.00000000000E+00 0.  1.
         21   -1    0    0  503  502 -0.00000000000E+00 -0.00000000000E+00 -0.85409158294E+02  0.85409158294E+02  0.00000000000E+00 0.  1.
         21    1    1    2  503  501 -0.39741845931E+01 -0.30257325041E+02 -0.82007199623E+02  0.87501318000E+02  0.00000000000E+00 0.  1.
         21    1    1    2  504  502  0.39741845931E+01  0.30257325041E+02  0.35485762064E+03  0.35616741960E+03  0.00000000000E+00 0.  1.
</event>
<event>
 4    1  0.3080871E+006  0.2682733E+02  0.7546771E-02  0.1449350E+00
         21   -1    0    0  503  501  0.00000000000E+00  0.00000000000E+00  0.34143652124E+03  0.34143652124E+03  0.00000000000E+00 0. -1.
         21   -1    0    0  501  502 -0.00000000000E+00 -0.00000000000E+00 -0.31885969487E+01  0.31885969487E+01  0.00000000000E+00 0. -1.
         21    1    1    2  503  504  0.13161662044E+02 -0.23376832186E+02  0.26944084583E+03  0.27077310619E+03  0.00000000000E+00 0. -1.
         21    1    1    2  504  502 -0.13161662044E+02  0.23376832186E+02  0.68807078460E+02  0.73852012004E+02  0.00000000000E+00 0. -1.
</event>
<event>
 4    1  0.3080871E+006  0.2235540E+02  0.7546771E-02  0.1500755E+00
         21   -1    0    0  504  501  0.00000000000E+00  0.00000000000E+00  0.14679372107E+03  0.14679372107E+03  0.00000000000E+00 0.  1.
         21   -1    0    0  503  502 -0.00000000000E+00 -0.00000000000E+00 -0.61616493071E+01  0.61616493071E+01  0.00000000000E+00 0.  1.
         21    1    1    2  503  501 -0.21702679057E+02 -0.53626000003E+01  0.19157988938E+02  0.29441336538E+02  0.00000000000E+00 0.  1.
         21    1    1    2  504  502  0.21702679057E+02  0.53626000003E+01  0.12147408282E+03  0.12351403383E+03  0.00000000000E+00 0.  1.
</event>
<event>
 4    1  0.3080871E+006  0.2259891E+02  0.7546771E-02  0.1497597E+00
         21   -1    0    0  504  501  0.00000000000E+00  0.00000000000E+00  0.22929402437E+02  0.22929402437E+02  0.00000000000E+00 0.  1.
         21   -1    0    0  503  502 -0.00000000000E+00 -0.00000000000E+00 -0.67178041798E+03  0.67178041798E+03  0.00000000000E+00 0. -1.
         21    1    1    2  503  501  0.21236605635E+02 -0.77276872194E+01 -0.66597352769E+03  0.66635684895E+03  0.00000000000E+00 0. -1.
         21    1    1    2  504  502 -0.21236605635E+02  0.77276872194E+01  0.17122512144E+02  0.28352971463E+02  0.00000000000E+00 0.  1.
</event>
<event>
 4    1  0.3080871E+006  0.2258459E+02  0.7546771E-02  0.1497781E+00
         21   -1    0    0  504  501  0.00000000000E+00  0.00000000000E+00  0.55698610329E+01  0.55698610329E+01  0.00000000000E+00 0. -1.
         21   -1    0    0  503  502 -0.00000000000E+00 -0.00000000000E+00 -0.97259874042E+02  0.97259874042E+02  0.00000000000E+00 0. -1.
         21    1    1    2  503  501  0.36588270637E+01 -0.22286248489E+02 -0.58274567756E+02  0.62497913040E+02  0.00000000000E+00 0. -1.
         21    1    1    2  504  502 -0.36588270637E+01  0.22286248489E+02 -0.33415445254E+02  0.40331822036E+02  0.00000000000E+00 0. -1.
</event>
<event>
 4    1  0.3080871E+006  0.2443289E+02  0.7546771E-02  0.1475249E+00
         21   -1    0    0  503  501  0.00000000000E+00  0.00000000000E+00  0.22868801964E+03  0.22868801964E+03  0.00000000000E+00 0. -1.
         21   -1    0    0  504  502 -0.00000000000E+00 -0.00000000000E+00 -0.32665932769E+01  0.32665932769E+01  0.00000000000E+00 0.  1.
         21    1    1    2  503  502  0.20276813642E+01  0.24348603858E+02  0.16469153219E+03  0.16649404427E+03  0.00000000000E+00 0. -1.
         21    1    1    2  504  501 -0.20276813642E+01 -0.24348603858E+02  0.60729894165E+02  0.65460568642E+02  0.00000000000E+00 0.  1.
</event>
<event>
 4    1  0.3080871E+006  0.2086014E+02  0.7546771E-02  0.1521271E+00
         21   -1    0    0  503  501  0.00000000000E+00  0.00000000000E+00  0.32019217361E+02  0.32019217361E+02  0.00000000000E+00 0.  1.
         21   -1    0    0  504  502 -0.00000000000E+00 -0.00000000000E+00 -0.29152796034E+02  0.29152796034E+02  0.00000000000E+00 0. -1.
         21    1    1    2  503  502  0.16249977442E+02  0.13079890890E+02 -0.20914069681E+02  0.29538849388E+02  0.00000000000E+00 0. -1.
         21    1    1    2  504  501 -0.16249977442E+02 -0.13079890890E+02  0.23780491007E+02  0.31633164007E+02  0.00000000000E+00 0.  1.
</event>
<event>
 4    1  0.3080871E+006  0.2542358E+02  0.7546771E-02  0.1464120E+00
         21   -1    0    0  503  501  0.00000000000E+00  0.00000000000E+00  0.11184901514E+03  0.11184901514E+03  0.00000000000E+00 0. -1.
         21   -1    0    0  504  502 -0.00000000000E+00 -0.00000000000E+00 -0.17752585573E+02  0.17752585573E+02  0.00000000000E+00 0.  1.
         21    1    1    2  503  502 -0.16346791688E+02 -0.19471534906E+02 -0.61705096068E+01  0.26161679206E+02  0.00000000000E+00 0.  1.
         21    1    1    2  504  501  0.16346791688E+02  0.19471534906E+02  0.10026693917E+03  0.10343992151E+03  0.00000000000E+00 0. -1.
</event>
<event>
 4    1  0.3080871E+006  0.2245954E+02  0.7546771E-02  0.1499399E+00
         21   -1    0    0  502  501  0.00000000000E+00  0.00000000000E+00  0.88269487585E+02  0.88269487585E+02  0.00000000000E+00 0. -1.
         21   -1    0    0  504  502 -0.00000000000E+00 -0.00000000000E+00 -0.87621717205E+01  0.87621717205E+01  0.00000000000E+00 0. -1.
         21    1    1    2  503  501 -0.77714075780E+01  0.21072164133E+02  0.68365752742E+02  0.71960454591E+02  0.00000000000E+00 0. -1.
         21    1    1    2  504  503  0.77714075780E+01 -0.21072164133E+02  0.11141563123E+02  0.25071204714E+02  0.00000000000E+00 0. -1.
</event>
<event>
 4    1  0.3080871E+006  0.2310277E+02  0.7546771E-02  0.1491212E+00
         21   -1    0    0  503  501  0.00000000000E+00  0.00000000000E+00  0.21860917358E+02  0.21860917358E+02  0.00000000000E+00 0.  1.
         21   -1    0    0  504  502 -0.00000000000E+00 -0.00000000000E+00 -0.24456068887E+02  0.24456068887E+02  0.00000000000E+00 0.  1.
         21    1    1    2  503  502  0.11336328737E+02 -0.20130215893E+02 -0.22446637538E+01  0.23211558683E+02  0.00000000000E+00 0.  1.
         21    1    1    2  504  501 -0.11336328737E+02  0.20130215893E+02 -0.35048777564E+00  0.23105427562E+02  0.00000000000E+00 0.  1.
</event>
<event>
 4    1  0.3080871E+006  0.2485467E+02  0.7546771E-02  0.1470436E+00
         21   -1    0    0  502  501  0.00000000000E+00  0.00000000000E+00  0.43422161375E+02  0.43422161375E+02  0.00000000000E+00 0. -1.
         21   -1    0    0  504  502 -0.00000000000E+00 -0.00000000000E+00 -0.68664669493E+02  0.68664669493E+02  0.00000000000E+00 0.  1.
         21    1    1    2  503  501  0.16243004699E+02 -0.18812747410E+02  0.37279697929E+02  0.44805474492E+02  0.00000000000E+00 0. -1.
         21    1    1    2  504  503 -0.16243004699E+02  0.18812747410E+02 -0.62522206047E+02  0.67281356376E+02  0.00000000000E+00 0.  1.
</event>
<event>
 4    1  0.3080871E+006  0.2261202E+02  0.7546771E-02  0.1497428E+00
         21   -1    0    0  504  501  0.00000000000E+00  0.00000000000E+00  0.21652873629E+03  0.21652873629E+03  0.00000000000E+00 0.  1.
         21   -1    0    0  503  502 -0.00000000000E+00 -0.00000000000E+00 -0.10622119955E+03  0.10622119955E+03  0.00000000000E+00 0. -1.
         21    1    1    2  503  501  0.16275538196E+02 -0.15697468805E+02 -0.10441738296E+03  0.10683769716E+03  0.00000000000E+00 0. -1.
         21    1    1    2  504  502 -0.16275538196E+02  0.15697468805E+02  0.21472491970E+03  0.21591223867E+03  0.00000000000E+00 0.  1.
</event>
<event>
 4    1  0.3080871E+006  0.3121044E+02  0.7546771E-02  0.1409361E+00
         21   -1    0    0  503  501  0.00000000000E+00  0.00000000000E+00  0.11454719390E+03  0.11454719390E+03  0.00000000000E+00 0.  1.
         21   -1    0    0  504  502 -0.00000000000E+00 -0.00000000000E+00 -0.89792997931E+01  0.89792997931E+01  0.00000000000E+00 0. -1.
         21    1    1    2  503  502  0.31184078407E+02  0.12824971946E+01  0.38571670653E+02  0.49617187769E+02  0.00000000000E+00 0.  1.
         21    1    1    2  504  501 -0.31184078407E+02 -0.12824971946E+01  0.66996223457E+02  0.73909305927E+02  0.00000000000E+00 0. -1.
</event>
<event>
 4    1  0.3080871E+006  0.2238031E+02  0.7546771E-02  0.1500430E+00
         21   -1    0    0  504  501  0.00000000000E+00  0.00000000000E+00  0.25259907500E+01  0.25259907500E+01  0.00000000000E+00 0.  1.
         21   -1    0    0  503  502 -0.00000000000E+00 -0.00000000000E+00 -0.20118550103E+03  0.20118550103E+03  0.00000000000E+00 0.  1.
         21    1    1    2  503  501  0.21860160813E+02 -0.47970681502E+01 -0.87110201119E+02  0.89939233000E+02  0.00000000000E+00 0.  1.
         21    1    1    2  504  502 -0.21860160813E+02  0.47970681502E+01 -0.11154930916E+03  0.11377225878E+03  0.00000000000E+00 0.  1.
</event>
<event>
 4    1  0.3080871E+006  0.2121452E+02  0.7546771E-02  0.1516224E+00
         21   -1    0    0  504  501  0.00000000000E+00  0.00000000000E+00  0.99898197966E+02  0.99898197966E+02  0.00000000000E+00 0.  1.
         21   -1    0    0  503  502 -0.00000000000E+00 -0.00000000000E+00 -0.11372473473E+04  0.11372473473E+04  0.00000000000E+00 0. -1.
         21    1    1    2  503  501  0.20998363394E+02 -0.30206964396E+01  0.98671760528E+02  0.10092656835E+03  0.00000000000E+00 0.  1.
         21    1    1    2  504  502 -0.20998363394E+02  0.30206964396E+01 -0.11360209098E+04  0.11362189769E+04  0.00000000000E+00 0. -1.
</event>
<event>
 4    1  0.3080871E+006  0.2082912E+02  0.7546771E-02  0.1521719E+00
         21   -1    0    0  502  501  0.00000000000E+00  0.00000000000E+00  0.16669861902E+03  0.16669861902E+03  0.00000000000E+00 0.  1.
         21   -1    0    0  504  502 -0.00000000000E+00 -0.00000000000E+00 -0.17299492829E+02  0.17299492829E+02  0.00000000000E+00 0. -1.
         21    1    1    2  503  501  0.18351047393E+02  0.98535020297E+01  0.15949631495E+03  0.16085063546E+03  0.00000000000E+00 0.  1.
         21    1    1    2  504  503 -0.18351047393E+02 -0.98535020297E+01 -0.10097188759E+02  0.23147476396E+02  0.00000000000E+00 0. -1.
</event>
<event>
 4    1  0.3080871E+006  0.2500118E+02  0.7546771E-02  0.1468790E+00
         21   -1    0    0  503  501  0.00000000000E+00  0.00000000000E+00  0.50507597000E+03  0.50507597000E+03  0.00000000000E+00 0.  1.
         21   -1    0    0  504  502 -0.00000000000E+00 -0.00000000000E+00 -0.28343601052E+01  0.28343601052E+01  0.00000000000E+00 0.  1.
         21    1    1    2  503  502  0.20088506150E+02 -0.14883248843E+02  0.44173512510E+03  0.44244206392E+03  0.00000000000E+00 0.  1.
         21    1    1    2  504  501 -0.20088506150E+02  0.14883248843E+02  0.60506484789E+02  0.65468266183E+02  0.00000000000E+00 0.  1.
</event>
<event>
 4    1  0.3080871E+006  0.3012684E+02  0.7546771E-02  0.1418497E+00
         21   -1    0    0  503  501  0.00000000000E+00  0.00000000000E+00  0.41900666209E+02  0.41900666209E+02  0.00000000000E+00 0. -1.
         21   -1    0    0  504  502 -0.00000000000E+00 -0.00000000000E+00 -0.76535938632E+02  0.76535938632E+02  0.00000000000E+00 0.  1.
         21    1    1    2  503  502 -0.21199230813E+02  0.21406057585E+02  0.32825180484E+02  0.44554676098E+02  0.00000000000E+00 0. -1.
         21    1    1    2  504  501  0.21199230813E+02 -0.21406057585E+02 -0.67460452907E+02  0.73881928743E+02  0.00000000000E+00 0.  1.
</event>
<event>
 4    1  0.3080871E+006  0.3063626E+02  0.7546771E-02  0.1414146E+00
         21   -1    0    0  504  501  0.00000000000E+00  0.00000000000E+00  0.12623931889E+03  0.12623931889E+03  0.00000000000E+00 0.  1.
         21   -1    0    0  501  502 -0.00000000000E+00 -0.00000000000E+00 -0.94680338608E+01  0.94680338608E+01  0.00000000000E+00 0.  1.
         21    1    1    2  503  502 -0.23487182557E+02  0.19670610935E+02  0.26942705027E+02  0.40798162130E+02  0.00000000000E+00 0.  1.
         21    1    1    2  504  503  0.23487182557E+02 -0.19670610935E+02  0.89828579998E+02  0.94909190617E+02  0.00000000000E+00 0.  1.
</event>
<event>
 4    1  0.3080871E+006  0.5792037E+02  0.7546771E-02  0.1267067E+00
         21   -1    0    0  503  501  0.00000000000E+00  0.00000000000E+00  0.50302428952E+02  0.50302428952E+02  0.00000000000E+00 0. -1.
         21   -1    0    0  501  502 -0.00000000000E+00 -0.00000000000E+00 -0.76241824785E+02  0.76241824785E+02  0.00000000000E+00 0.  1.
         21    1    1    2  503  504 -0.40568762271E+02 -0.41339381099E+02  0.94233807522E+01  0.58681930836E+02  0.00000000000E+00 0.  1.
         21    1    1    2  504  502  0.40568762271E+02  0.41339381099E+02 -0.35362776585E+02  0.67862322902E+02  0.00000000000E+00 0. -1.
</event>
<event>
 4    1  0.3080871E+006  0.2231692E+02  0.7546771E-02  0.1501258E+00
         21   -1    0    0  502  501  0.00000000000E+00  0.00000000000E+00  0.17645444256E+03  0.17645444256E+03  0.00000000000E+00 0. -1.
         21   -1    0    0  504  502 -0.00000000000E+00 -0.00000000000E+00 -0.69720647602E+01  0.69720647602E+01  0.00000000000E+00 0.  1.
         21    1    1    2  503  501  0.55729403904E+01  0.21609889888E+02  0.15549534799E+03  0.15708866367E+03  0.00000000000E+00 0. -1.
         21    1    1    2  504  503 -0.55729403904E+01 -0.21609889888E+02  0.13987029812E+02  0.26337843657E+02  0.00000000000E+00 0.  1.
</event>
<event>
 4    1  0.3080871E+006  0.2172155E+02  0.7546771E-02  0.1509207E+00
         21   -1    0    0  504  501  0.00000000000E+00  0.00000000000E+00  0.26851689522E+02  0.26851689522E+02  0.00000000000E+00 0. -1.
         21   -1    0    0  503  502 -0.00000000000E+00 -0.00000000000E+00 -0.18112031658E+02  0.18112031658E+02  0.00000000000E+00 0. -1.
         21    1    1    2  503  501  0.10427133584E+02  0.19055194204E+02  0.48615198207E+00  0.21726985173E+02  0.00000000000E+00 0. -1.
         21    1    1    2  504  502 -0.10427133584E+02 -0.19055194204E+02  0.82535058820E+01  0.23236736008E+02  0.00000000000E+00 0. -1.
</event>
<event>
 4    1  0.3080871E+006  0.2995980E+02  0.7546771E-02  0.1419946E+00
         21   -1    0    0  502  501  0.00000000000E+00  0.00000000000E+00  0.58085153043E+02  0.58085153043E+02  0.00000000000E+00 0. -1.
         21   -1    0    0  503  502 -0.00000000000E+00 -0.00000000000E+00 -0.63113142966E+02  0.63113142966E+02  0.00000000000E+00 0.  1.
         21    1    1    2  503  504  0.29523642398E+02 -0.50935275318E+01 -0.55174414519E+02  0.62783799667E+02  0.00000000000E+00 0.  1.
         21    1    1    2  504  501 -0.29523642398E+02  0.50935275318E+01  0.50146424596E+02  0.58414496342E+02  0.00000000000E+00 0. -1.
</event>
<event>
 4    1  0.3080871E+006  0.2210871E+02  0.7546771E-02  0.1504004E+00
         21   -1    0    0  502  501  0.00000000000E+00  0.00000000000E+00  0.15386954896E+02  0.15386954896E+02  0.00000000000E+00 0.  1.
         21   -1    0    0  504  502 -0.00000000000E+00 -0.00000000000E+00 -0.10918134496E+03  0.10918134496E+03  0.00000000000E+00 0.  1.
         21    1    1    2  503  501  0.11948861534E+02 -0.18601609564E+02  0.55490559505E+01  0.22794455297E+02  0.00000000000E+00 0.  1.
         21    1    1    2  504  503 -0.11948861534E+02  0.18601609564E+02 -0.99343446014E+02  0.10177384456E+03  0.00000000000E+00 0.  1.
</event>
<event>
 4    1  0.3080871E+006  0.2404277E+02  0.7546771E-02  0.1479803E+00
         21   -1    0    0  502  501  0.00000000000E+00  0.00000000000E+00  0.34376792787E+01  0.34376792787E+01  0.00000000000E+00 0. -1.
         21   -1    0    0  504  502 -0.00000000000E+00 -0.00000000000E+00 -0.68693472933E+03  0.68693472933E+03  0.00000000000E+00 0. -1.
         21    1    1    2  503  501  0.17464767839E+02  0.16523817207E+02 -0.41771354532E+02  0.48196480268E+02  0.00000000000E+00 0. -1.
         21    1    1    2  504  503 -0.17464767839E+02 -0.16523817207E+02 -0.64172569552E+03  0.64217592834E+03  0.00000000000E+00 0. -1.
</event>
<event>
 4    1  0.3080871E+006  0.3941687E+02  0.7546771E-02  0.1351937E+00
         21   -1    0    0  504  501  0.00000000000E+00  0.00000000000E+00  0.97300168342E+01  0.97300168342E+01  0.00000000000E+00 0.  1.
         21   -1    0    0  503  502 -0.00000000000E+00 -0.00000000000E+00 -0.19781096126E+03  0.19781096126E+03  0.00000000000E+00 0.  1.
         21    1    1    2  503  501  0.38948207273E+02  0.60602720907E+01 -0.48480109005E+02  0.62482083166E+02  0.00000000000E+00 0.  1.
         21    1    1    2  504  502 -0.38948207273E+02 -0.60602720907E+01 -0.13960083542E+03  0.14505889493E+03  0.00000000000E+00 0.  1.
</event>
<event>
 4    1  0.3080871E+006  0.3067695E+02  0.7546771E-02  0.1413803E+00
         21   -1    0    0  502  501  0.00000000000E+00  0.00000000000E+00  0.64366901858E+02  0.64366901858E+02  0.00000000000E+00 0.  1.
         21   -1    0    0  504  502 -0.00000000000E+00 -0.00000000000E+00 -0.23625376252E+02  0.23625376252E+02  0.00000000000E+00 0.  1.
         21    1    1    2  503  501 -0.49954060275E+01  0.30267493908E+02  0.47532932346E+02  0.56572563370E+02  0.00000000000E+00 0.  1.
         21    1    1    2  504  503  0.49954060275E+01 -0.30267493908E+02 -0.67914067403E+01  0.31419714740E+02  0.00000000000E+00 0.  1.
</event>
<event>
 4    1  0.3080871E+006  0.4315260E+02  0.7546771E-02  0.1330940E+00
         21   -1    0    0  504  501  0.00000000000E+00  0.00000000000E+00  0.26199499549E+02  0.26199499549E+02  0.00000000000E+00 0. -1.
         21   -1    0    0  503  502 -0.00000000000E+00 -0.00000000000E+00 -0.74427004549E+02  0.74427004549E+02  0.00000000000E+00 0. -1.
         21    1    1    2  503  501  0.12861516292E+02  0.41191362985E+02 -0.13437323738E+02  0.45196334532E+02  0.00000000000E+00 0. -1.
         21    1    1    2  504  502 -0.12861516292E+02 -0.41191362985E+02 -0.34790181262E+02  0.55430169566E+02  0.00000000000E+00 0. -1.
</event>
<event>
 4    1  0.3080871E+006  0.3386523E+02  0.7546771E-02  0.1388721E+00
         21   -1    0    0  504  501  0.00000000000E+00  0.00000000000E+00  0.12461656797E+02  0.12461656797E+02  0.00000000000E+00 0.  1.
         21   -1    0    0  503  502 -0.00000000000E+00 -0.00000000000E+00 -0.20483184496E+03  0.20483184496E+03  0.00000000000E+00 0. -1.
         21    1    1    2  503  501 -0.33293614569E+02  0.61958695670E+01 -0.15559119154E+02  0.37268482121E+02  0.00000000000E+00 0.  1.
         21    1    1    2  504  502  0.33293614569E+02 -0.61958695670E+01 -0.17681106901E+03  0.18002501964E+03  0.00000000000E+00 0. -1.
</event>
<event>
 4    1  0.3080871E+006  0.5696771E+02  0.7546771E-02  0.1270498E+00
         21   -1    0    0  504  501  0.00000000000E+00  0.00000000000E+00  0.92079335143E+03  0.92079335143E+03  0.00000000000E+00 0.  1.
         21   -1    0    0  503  502 -0.00000000000E+00 -0.00000000000E+00 -0.72591794198E+01  0.72591794198E+01  0.00000000000E+00 0.  1.
         21    1    1    2  503  501  0.21942752168E+02 -0.52572198776E+02  0.78960014359E+03  0.79165251671E+03  0.00000000000E+00 0.  1.
         21    1    1    2  504  502 -0.21942752168E+02  0.52572198776E+02  0.12393402843E+03  0.13640001414E+03  0.00000000000E+00 0.  1.
</event>
<event>
 4    1  0.3080871E+006  0.2525704E+02  0.7546771E-02  0.1465948E+00
         21   -1    0    0  502  501  0.00000000000E+00  0.00000000000E+00  0.11244129036E+01  0.11244129036E+01  0.00000000000E+00 0.  1.
         21   -1    0    0  504  502 -0.00000000000E+00 -0.00000000000E+00 -0.64494226349E+03  0.64494226349E+03  0.00000000000E+00 0.  1.
         21    1    1    2  503  501 -0.22409980959E+02 -0.11649496736E+02 -0.20985165538E+03  0.21136611669E+03  0.00000000000E+00 0.  1.
         21    1    1    2  504  503  0.22409980959E+02  0.11649496736E+02 -0.43396619520E+03  0.43470055970E+03  0.00000000000E+00 0.  1.
</event>
<event>
 4    1  0.3080871E+006  0.2513271E+02  0.7546771E-02  0.1467324E+00
         21   -1    0    0  504  501  0.00000000000E+00  0.00000000000E+00  0.10376386653E+03  0.10376386653E+03  0.00000000000E+00 0.  1.
         21   -1    0    0  503  502 -0.00000000000E+00 -0.00000000000E+00 -0.12865241080E+02  0.12865241080E+02  0.00000000000E+00 0. -1.
         21    1    1    2  503  501  0.99966700918E+01 -0.23059052924E+02  0.31227188552E+01  0.25325969038E+02  0.00000000000E+00 0. -1.
         21    1    1    2  504  502 -0.99966700918E+01  0.23059052924E+02  0.87775906590E+02  0.91303138568E+02  0.00000000000E+00 0.  1.
</event>
<event>
 4    1  0.3080871E+006  0.2072664E+02  0.7546771E-02  0.1523204E+00
         21   -1    0    0  504  501  0.00000000000E+00  0.00000000000E+00  0.18163113105E+02  0.18163113105E+02  0.00000000000E+00 0. -1.
         21   -1    0    0  503  502 -0.00000000000E+00 -0.00000000000E+00 -0.84204071436E+02  0.84204071436E+02  0.00000000000E+00 0. -1.
         21    1    1    2  503  501  0.19033042143E+02 -0.82059052500E+01  0.10383424847E+02  0.23182085449E+02  0.00000000000E+00 0. -1.
         21    1    1    2  504  502 -0.19033042143E+02  0.82059052500E+01 -0.76424383178E+02  0.79185099093E+02  0.00000000000E+00 0. -1.
</event>
<event>
 4    1  0.3080871E+006  0.2045802E+02  0.7546771E-02  0.1527145E+00
         21   -1    0    0  504  501  0.00000000000E+00  0.00000000000E+00  0.16056683350E+02  0.16056683350E+02  0.00000000000E+00 0. -1.
         21   -1    0    0  503  502 -0.00000000000E+00 -0.00000000000E+00 -0.27279817893E+02  0.27279817893E+02  0.00000000000E+00 0. -1.
         21    1    1    2  503  501  0.58777654340E+01 -0.19595468454E+02 -0.10182588955E+02  0.22852037726E+02  0.00000000000E+00 0. -1.
         21    1    1    2  504  502 -0.58777654340E+01  0.19595468454E+02 -0.10405455879E+01  0.20484463516E+02  0.00000000000E+00 0. -1.
</event>
<event>
 4    1  0.3080871E+006  0.2275200E+02  0.7546771E-02  0.1495636E+00
         21   -1    0    0  503  501  0.00000000000E+00  0.00000000000E+00  0.97683443080E+00  0.97683443080E+00  0.00000000000E+00 0.  1.
         21   -1    0    0  501  502 -0.00000000000E+00 -0.00000000000E+00 -0.53624844455E+03  0.53624844455E+03  0.00000000000E+00 0.  1.
         21    1    1    2  503  504  0.19371411698E+02 -0.11933229526E+02 -0.23847768759E+03  0.23956055819E+03  0.00000000000E+00 0.  1.
         21    1    1    2  504  502 -0.19371411698E+02  0.11933229526E+02 -0.29679392252E+03  0.29766472079E+03  0.00000000000E+00 0.  1.
</event>
<event>
 4    1  0.3080871E+006  0.3347827E+02  0.7546771E-02  0.1391589E+00
         21   -1    0    0  504  501  0.00000000000E+00  0.00000000000E+00  0.58757758275E+02  0.58757758275E+02  0.00000000000E+00 0. -1.
         21   -1    0    0  501  502 -0.00000000000E+00 -0.00000000000E+00 -0.24579614224E+02  0.24579614224E+02  0.00000000000E+00 0. -1.
         21    1    1    2  503  502 -0.23757384743E+02  0.23587729355E+02 -0.26302686291E+01  0.33581432652E+02  0.00000000000E+00 0. -1.
         21    1    1    2  504  503  0.23757384743E+02 -0.23587729355E+02  0.36808412681E+02  0.49755939847E+02  0.00000000000E+00 0. -1.
</event>
<event>
 4    1  0.3080871E+006  0.2141885E+02  0.7546771E-02  0.1513368E+00
         21   -1    0    0  504  501  0.00000000000E+00  0.00000000000E+00  0.28163172644E+02  0.28163172644E+02  0.00000000000E+00 0.  1.
         21   -1    0    0  503  502 -0.00000000000E+00 -0.00000000000E+00 -0.71297993950E+02  0.71297993950E+02  0.00000000000E+00 0. -1.
         21    1    1    2  503  501  0.10844410577E+02 -0.18470674387E+02 -0.65249092100E+02  0.68674675630E+02  0.00000000000E+00 0. -1.
         21    1    1    2  504  502 -0.10844410577E+02  0.18470674387E+02  0.22114270794E+02  0.30786490963E+02  0.00000000000E+00 0.  1.
</event>
<event>
 4    1  0.3080871E+006  0.2201257E+02  0.7546771E-02  0.1505284E+00
         21   -1    0    0  502  501  0.00000000000E+00  0.00000000000E+00  0.62160643373E+02  0.62160643373E+02  0.00000000000E+00 0. -1.
         21   -1    0    0  504  502 -0.00000000000E+00 -0.00000000000E+00 -0.36898257905E+02  0.36898257905E+02  0.00000000000E+00 0.  1.
         21    1    1    2  503  501  0.20861036640E+02 -0.70263953301E+01  0.56618773741E+02  0.60747334270E+02  0.00000000000E+00 0. -1.
         21    1    1    2  504  503 -0.20861036640E+02  0.70263953301E+01 -0.31356388273E+02  0.38311567007E+02  0.00000000000E+00 0.  1.
</event>
<event>
 4    1  0.3080871E+006  0.2693449E+02  0.7546771E-02  0.1448267E+00
         21   -1    0    0  504  501  0.00000000000E+00  0.00000000000E+00  0.46339164176E+03  0.46339164176E+03  0.00000000000E+00 0. -1.
         21   -1    0    0  501  502 -0.00000000000E+00 -0.00000000000E+00 -0.17131789810E+01  0.17131789810E+01  0.00000000000E+00 0. -1.
         21    1    1    2  503  502 -0.26767413356E+02  0.29954198457E+01  0.16257518290E+03  0.16479125296E+03  0.00000000000E+00 0. -1.
         21    1    1    2  504  503  0.26767413356E+02 -0.29954198457E+01  0.29910327988E+03  0.30031356778E+03  0.00000000000E+00 0. -1.
</event>
<event>
 4    1  0.3080871E+006  0.2375750E+02  0.7546771E-02  0.1483199E+00
         21   -1    0    0  504  501  0.00000000000E+00  0.00000000000E+00  0.60703773042E+01  0.60703773042E+01  0.00000000000E+00 0.  1.
         21   -1    0    0  503  502 -0.00000000000E+00 -0.00000000000E+00 -0.10124736235E+03  0.10124736235E+03  0.00000000000E+00 0.  1.
         21    1    1    2  503  501  0.12123429523E+02 -0.20431380294E+02 -0.32254541234E+02  0.40059633976E+02  0.00000000000E+00 0.  1.
         21    1    1    2  504  502 -0.12123429523E+02  0.20431380294E+02 -0.62922443812E+02  0.67258105678E+02  0.00000000000E+00 0.  1.
</event>
<event>
 4    1  0.3080871E+006  0.2051442E+02  0.7546771E-02  0.1526312E+00
         21   -1    0    0  503  501  0.00000000000E+00  0.00000000000E+00  0.10650795266E+03  0.10650795266E+03  0.00000000000E+00 0. -1.
         21   -1    0    0  504  502 -0.00000000000E+00 -0.00000000000E+00 -0.74567486996E+01  0.74567486996E+01  0.00000000000E+00 0. -1.
         21    1    1    2  503  502  0.11777243281E+02  0.16796966870E+02  0.88595236198E+02  0.90939306310E+02  0.00000000000E+00 0. -1.
         21    1    1    2  504  501 -0.11777243281E+02 -0.16796966870E+02  0.10455967763E+02  0.23025395049E+02  0.00000000000E+00 0. -1.
</event>
<event>
 4    1  0.3080871E+006  0.2036488E+02  0.7546771E-02  0.1528529E+00
         21   -1    0    0  502  501  0.00000000000E+00  0.00000000000E+00  0.21263984413E+03  0.21263984413E+03  0.00000000000E+00 0.  1.
         21   -1    0    0  503  502 -0.00000000000E+00 -0.00000000000E+00 -0.27232648209E+02  0.27232648209E+02  0.00000000000E+00 0. -1.
         21    1    1    2  503  504 -0.18240549984E+02  0.90559843871E+01 -0.22857997834E+02  0.30613993237E+02  0.00000000000E+00 0. -1.
         21    1    1    2  504  501  0.18240549984E+02 -0.90559843871E+01  0.20826519376E+03  0.20925849911E+03  0.00000000000E+00 0.  1.
</event>
<event>
 4    1  0.3080871E+006  0.2063323E+02  0.7546771E-02  0.1524566E+00
         21   -1    0    0  504  501  0.00000000000E+00  0.00000000000E+00  0.21921273568E+02  0.21921273568E+02  0.00000000000E+00 0. -1.
         21   -1    0    0  503  502 -0.00000000000E+00 -0.00000000000E+00 -0.21022622853E+02  0.21022622853E+02  0.00000000000E+00 0. -1.
         21    1    1    2  503  501 -0.71275509199E+01 -0.19363062165E+02 -0.54775533150E+01  0.21347921418E+02  0.00000000000E+00 0. -1.
         21    1    1    2  504  502  0.71275509199E+01  0.19363062165E+02  0.63762040304E+01  0.21595975004E+02  0.00000000000E+00 0. -1.
</event>
<event>
 4    1  0.3080871E+006  0.2141867E+02  0.7546771E-02  0.1513371E+00
         21   -1    0    0  502  501  0.00000000000E+00  0.00000000000E+00  0.10174677758E+02  0.10174677758E+02  0.00000000000E+00 0.  1.
         21   -1    0    0  503  502 -0.00000000000E+00 -0.00000000000E+00 -0.15178852768E+03  0.15178852768E+03  0.00000000000E+00 0.  1.
         21    1    1    2  503  504 -0.20758678865E+02 -0.52760412074E+01 -0.13870375202E+03  0.14034774734E+03  0.00000000000E+00 0.  1.
         21    1    1    2  504  501  0.20758678865E+02  0.52760412074E+01 -0.29100979050E+01  0.21615458100E+02  0.00000000000E+00 0.  1.
</event>
<event>
 4    1  0.3080871E+006  0.2543514E+02  0.7546771E-02  0.1463994E+00
         21   -1    0    0  504  501  0.00000000000E+00  0.00000000000E+00  0.69495251103E+00  0.69495251103E+00  0.00000000000E+00 0. -1.
         21   -1    0    0  503  502 -0.00000000000E+00 -0.00000000000E+00 -0.14750436714E+04  0.14750436714E+04  0.00000000000E+00 0. -1.
         21    1    1    2  503  501  0.10671775999E+02  0.23088082387E+02 -0.28902255132E+03  0.29013958972E+03  0.00000000000E+00 0. -1.
         21    1    1    2  504  502 -0.10671775999E+02 -0.23088082387E+02 -0.11853261675E+04  0.11855990342E+04  0.00000000000E+00 0. -1.
</event>
<event>
 4    1  0.3080871E+006  0.2580533E+02  0.7546771E-02  0.1459992E+00
         21   -1    0    0  504  501  0.00000000000E+00  0.00000000000E+00  0.22276267602E+02  0.22276267602E+02  0.00000000000E+00 0.  1.
         21   -1    0    0  503  502 -0.00000000000E+00 -0.00000000000E+00 -0.89177606691E+02  0.89177606691E+02  0.00000000000E+00 0. -1.
         21    1    1    2  503  501  0.14875722708E+02 -0.21086207098E+02 -0.78887336444E+02  0.83000765702E+02  0.00000000000E+00 0. -1.
         21    1    1    2  504  502 -0.14875722708E+02  0.21086207098E+02  0.11985997355E+02  0.28453108591E+02  0.00000000000E+00 0.  1.
</event>
<event>
 4    1  0.3080871E+006  0.3723367E+02  0.7546771E-02  0.1365506E+00
         21   -1    0    0  504  501  0.00000000000E+00  0.00000000000E+00  0.29165998319E+03  0.29165998319E+03  0.00000000000E+00 0. -1.
         21   -1    0    0  501  502 -0.00000000000E+00 -0.00000000000E+00 -0.54826103226E+01  0.54826103226E+01  0.00000000000E+00 0. -1.
         21    1    1    2  503  502  0.36238712386E+02  0.85499837478E+01  0.88901285115E+02  0.96383530712E+02  0.00000000000E+00 0. -1.
         21    1    1    2  504  503 -0.36238712386E+02 -0.85499837478E+01  0.19727608775E+03  0.20075906280E+03  0.00000000000E+00 0. -1.
</event>
<event>
 4    1  0.3080871E+006  0.2916961E+02  0.7546771E-02  0.1426952E+00
         21   -1    0    0  502  501  0.00000000000E+00  0.00000000000E+00  0.93874391176E+01  0.93874391176E+01  0.00000000000E+00 0. -1.
         21   -1    0    0  503  502 -0.00000000000E+00 -0.00000000000E+00 -0.11645027861E+03  0.11645027861E+03  0.00000000000E+00 0. -1.
         21    1    1    2  503  504 -0.58419077409E+01  0.28578631676E+02 -0.83153608208E+02  0.88121442524E+02  0.00000000000E+00 0. -1.
         21    1    1    2  504  501  0.58419077409E+01 -0.28578631676E+02 -0.23909231280E+02  0.37716275199E+02  0.00000000000E+00 0. -1.
</event>
<event>
 4    1  0.3080871E+006  0.3195066E+02  0.7546771E-02  0.1403370E+00
         21   -1    0    0  503  501  0.00000000000E+00  0.00000000000E+00  0.21706759420E+01  0.21706759420E+01  0.00000000000E+00 0. -1.
         21   -1    0    0  504  502 -0.00000000000E+00 -0.00000000000E+00 -0.51757513854E+03  0.51757513854E+03  0.00000000000E+00 0. -1.
         21    1    1    2  503  502 -0.21496027067E+02 -0.23638223384E+02 -0.17915303949E+03  0.18197982400E+03  0.00000000000E+00 0. -1.
         21    1    1    2  504  501  0.21496027067E+02  0.23638223384E+02 -0.33625142310E+03  0.33776599048E+03  0.00000000000E+00 0. -1.
</event>
<event>
 4    1  0.3080871E+006  0.2318645E+02  0.7546771E-02  0.1490170E+00
         21   -1    0    0  504  501  0.00000000000E+00  0.00000000000E+00  0.13098004686E+03  0.13098004686E+03  0.00000000000E+00 0. -1.
         21   -1    0    0  501  502 -0.00000000000E+00 -0.00000000000E+00 -0.57952562035E+01  0.57952562035E+01  0.00000000000E+00 0. -1.
         21    1    1    2  503  502 -0.19521325127E+02 -0.12511169023E+02  0.25653997243E+02  0.34579460082E+02  0.00000000000E+00 0. -1.
         21    1    1    2  504  503  0.19521325127E+02  0.12511169023E+02  0.99530793412E+02  0.10219584298E+03  0.00000000000E+00 0. -1.
</event>
<event>
 4    1  0.3080871E+006  0.2661378E+02  0.7546771E-02  0.1451527E+00
         21   -1    0    0  504  501  0.00000000000E+00  0.00000000000E+00  0.27561718941E+02  0.27561718941E+02  0.00000000000E+00 0.  1.
         21   -1    0    0  501  502 -0.00000000000E+00 -0.00000000000E+00 -0.14012502390E+03  0.14012502390E+03  0.00000000000E+00 0. -1.
         21    1    1    2  503  502  0.20116262863E+02 -0.17424957499E+02 -0.13204765083E+03  0.13470291483E+03  0.00000000000E+00 0. -1.
         21    1    1    2  504  503 -0.20116262863E+02  0.17424957499E+02  0.19484345876E+02  0.32983828002E+02  0.00000000000E+00 0.  1.
</event>
<event>
 4    1  0.3080871E+006  0.2046488E+02  0.7546771E-02  0.1527044E+00
         21   -1    0    0  504  501  0.00000000000E+00  0.00000000000E+00  0.11909125922E+03  0.11909125922E+03  0.00000000000E+00 0. -1.
         21   -1    0    0  503  502 -0.00000000000E+00 -0.00000000000E+00 -0.56716859770E+01  0.56716859770E+01  0.00000000000E+00 0. -1.
         21    1    1    2  503  501 -0.13879201110E+02  0.15039254993E+02  0.18257774985E+02  0.27425494738E+02  0.00000000000E+00 0. -1.
         21    1    1    2  504  502  0.13879201110E+02 -0.15039254993E+02  0.95161798257E+02  0.97337450458E+02  0.00000000000E+00 0. -1.
</event>
<event>
 4    1  0.3080871E+006  0.2332598E+02  0.7546771E-02  0.1488445E+00
         21   -1    0    0  504  501  0.00000000000E+00  0.00000000000E+00  0.33390717667E+01  0.33390717667E+01  0.00000000000E+00 0. -1.
         21   -1    0    0  503  502 -0.00000000000E+00 -0.00000000000E+00 -0.20237479911E+03  0.20237479911E+03  0.00000000000E+00 0.  1.
         21    1    1    2  503  501  0.18479058664E+02  0.14234665393E+02 -0.54119434122E+02  0.58932287056E+02  0.00000000000E+00 0. -1.
         21    1    1    2  504  502 -0.18479058664E+02 -0.14234665393E+02 -0.14491629322E+03  0.14678158382E+03  0.00000000000E+00 0.  1.
</event>
<event>
 4    1  0.3080871E+006  0.2874085E+02  0.7546771E-02  0.1430863E+00
         21   -1    0    0  504  501  0.00000000000E+00  0.00000000000E+00  0.43574034066E+01  0.43574034066E+01  0.00000000000E+00 0. -1.
         21   -1    0    0  503  502 -0.00000000000E+00 -0.00000000000E+00 -0.28011455458E+03  0.28011455458E+03  0.00000000000E+00 0. -1.
         21    1    1    2  503  501 -0.18599228323E+01 -0.28680603762E+02 -0.21874550187E+03  0.22062554461E+03  0.00000000000E+00 0. -1.
         21    1    1    2  504  502  0.18599228323E+01  0.28680603762E+02 -0.57011649308E+02  0.63846413383E+02  0.00000000000E+00 0. -1.
</event>
<event>
 4    1  0.3080871E+006  0.2644402E+02  0.7546771E-02  0.1453274E+00
         21   -1    0    0  503  501  0.00000000000E+00  0.00000000000E+00  0.13780612946E+03  0.13780612946E+03  0.00000000000E+00 0.  1.
         21   -1    0    0  501  502 -0.00000000000E+00 -0.00000000000E+00 -0.83139070259E+01  0.83139070259E+01  0.00000000000E+00 0.  1.
         21    1    1    2  503  504  0.19973024386E+02 -0.17331031208E+02  0.11035140272E+03  0.11347562923E+03  0.00000000000E+00 0.  1.
         21    1    1    2  504  502 -0.19973024386E+02  0.17331031208E+02  0.19140819706E+02  0.32644407252E+02  0.00000000000E+00 0.  1.
</event>
<event>
 4    1  0.3080871E+006  0.3210357E+02  0.7546771E-02  0.1402156E+00
         21   -1    0    0  503  501  0.00000000000E+00  0.00000000000E+00  0.84086568798E+01  0.84086568798E+01  0.00000000000E+00 0. -1.
         21   -1    0    0  504  502 -0.00000000000E+00 -0.00000000000E+00 -0.12981469339E+03  0.12981469339E+03  0.00000000000E+00 0. -1.
         21    1    1    2  503  502 -0.28286129726E+02  0.15183354627E+02 -0.44374980159E+02  0.54770231483E+02  0.00000000000E+00 0. -1.
         21    1    1    2  504  501  0.28286129726E+02 -0.15183354627E+02 -0.77031056346E+02  0.83453118782E+02  0.00000000000E+00 0. -1.
</event>
<event>
 4    1  0.3080871E+006  0.2330686E+02  0.7546771E-02  0.1488680E+00
         21   -1    0    0  504  501  0.00000000000E+00  0.00000000000E+00  0.56991711231E+02  0.56991711231E+02  0.00000000000E+00 0. -1.
         21   -1    0    0  503  502 -0.00000000000E+00 -0.00000000000E+00 -0.60544898555E+02  0.60544898555E+02  0.00000000000E+00 0.  1.
         21    1    1    2  503  501  0.23266437401E+02  0.13721176207E+01  0.52167886689E+02  0.57137537729E+02  0.00000000000E+00 0. -1.
         21    1    1    2  504  502 -0.23266437401E+02 -0.13721176207E+01 -0.55721074013E+02  0.60399072056E+02  0.00000000000E+00 0.  1.
</event>
<event>
 4    1  0.3080871E+006  0.2264564E+02  0.7546771E-02  0.1496997E+00
         21   -1    0    0  502  501  0.00000000000E+00  0.00000000000E+00  0.13425643552E+03  0.13425643552E+03  0.00000000000E+00 0.  1.
         21   -1    0    0  504  502 -0.00000000000E+00 -0.00000000000E+00 -0.95413043278E+02  0.95413043278E+02  0.00000000000E+00 0.  1.
         21    1    1    2  503  501  0.22134959805E+02  0.47820880660E+01  0.13193432538E+03  0.13386370316E+03  0.00000000000E+00 0.  1.
         21    1    1    2  504  503 -0.22134959805E+02 -0.47820880660E+01 -0.93090933138E+02  0.95805775631E+02  0.00000000000E+00 0.  1.
</event>
<event>
 4    1  0.3080871E+006  0.2415620E+02  0.7546771E-02  0.1478468E+00
         21   -1    0    0  503  501  0.00000000000E+00  0.00000000000E+00  0.17978743882E+03  0.17978743882E+03  0.00000000000E+00 0. -1.
         21   -1    0    0  501  502 -0.00000000000E+00 -0.00000000000E+00 -0.10742820914E+02  0.10742820914E+02  0.00000000000E+00 0. -1.
         21    1    1    2  503  504  0.24060813841E+02 -0.21446143805E+01  0.16410604110E+03  0.16587439483E+03  0.00000000000E+00 0. -1.
         21    1    1    2  504  502 -0.24060813841E+02  0.21446143805E+01  0.49385768082E+01  0.24655864909E+02  0.00000000000E+00 0. -1.
</event>
<event>
 4    1  0.3080871E+006  0.2466951E+02  0.7546771E-02  0.1472535E+00
         21   -1    0    0  504  501  0.00000000000E+00  0.00000000000E+00  0.13072519218E+03  0.13072519218E+03  0.00000000000E+00 0. -1.
         21   -1    0    0  503  502 -0.00000000000E+00 -0.00000000000E+00 -0.55507589041E+01  0.55507589041E+01  0.00000000000E+00 0. -1.
         21    1    1    2  503  501 -0.16654543130E+02 -0.18199195805E+02  0.89952478556E+02  0.93273967071E+02  0.00000000000E+00 0. -1.
         21    1    1    2  504  502  0.16654543130E+02  0.18199195805E+02  0.35221954724E+02  0.43001984017E+02  0.00000000000E+00 0. -1.
</event>
<event>
 4    1  0.3080871E+006  0.2215932E+02  0.7546771E-02  0.1503333E+00
         21   -1    0    0  503  501  0.00000000000E+00  0.00000000000E+00  0.10984871720E+02  0.10984871720E+02  0.00000000000E+00 0.  1.
         21   -1    0    0  504  502 -0.00000000000E+00 -0.00000000000E+00 -0.46667970308E+02  0.46667970308E+02  0.00000000000E+00 0.  1.
         21    1    1    2  503  502 -0.18240188471E+02 -0.12582968599E+02 -0.11923591069E+02  0.25163616556E+02  0.00000000000E+00 0.  1.
         21    1    1    2  504  501  0.18240188471E+02  0.12582968599E+02 -0.23759507518E+02  0.32489225472E+02  0.00000000000E+00 0.  1.
</event>
<event>
 4    1  0.3080871E+006  0.2267654E+02  0.7546771E-02  0.1496600E+00
         21   -1    0    0  504  501  0.00000000000E+00  0.00000000000E+00  0.67685387205E+03  0.67685387205E+03  0.00000000000E+00 0. -1.
         21   -1    0    0  503  502 -0.00000000000E+00 -0.00000000000E+00 -0.82361909597E+00  0.82361909597E+00  0.00000000000E+00 0. -1.
         21    1    1    2  503  501  0.12315741346E+02  0.19040692583E+02  0.24364231029E+03  0.24469532244E+03  0.00000000000E+00 0. -1.
         21    1    1    2  504  502 -0.12315741346E+02 -0.19040692583E+02  0.43238794266E+03  0.43298216871E+03  0.00000000000E+00 0. -1.
</event>
<event>
 4    1  0.3080871E+006  0.4964711E+02  0.7546771E-02  0.1299710E+00
         21   -1    0    0  502  501  0.00000000000E+00  0.00000000000E+00  0.32464689503E+03  0.32464689503E+03  0.00000000000E+00 0. -1.
         21   -1    0    0  503  502 -0.00000000000E+00 -0.00000000000E+00 -0.30181076186E+02  0.30181076186E+02  0.00000000000E+00 0. -1.
         21    1    1    2  503  504 -0.45980735651E+02  0.18724509160E+02 -0.62522147438E+01  0.50039239437E+02  0.00000000000E+00 0. -1.
         21    1    1    2  504  501  0.45980735651E+02 -0.18724509160E+02  0.30071803359E+03  0.30478873178E+03  0.00000000000E+00 0. -1.
</event>
<event>
 4    1  0.3080871E+006  0.2090005E+02  0.7546771E-02  0.1520697E+00
         21   -1    0    0  502  501  0.00000000000E+00  0.00000000000E+00  0.71299336198E+01  0.71299336198E+01  0.00000000000E+00 0.  1.
         21   -1    0    0  503  502 -0.00000000000E+00 -0.00000000000E+00 -0.13350806336E+03  0.13350806336E+03  0.00000000000E+00 0. -1.
         21    1    1    2  503  504 -0.37217487019E+01 -0.20566009770E+02 -0.11491619206E+03  0.11680129867E+03  0.00000000000E+00 0. -1.
         21    1    1    2  504  501  0.37217487019E+01  0.20566009770E+02 -0.11461937675E+02  0.23836698314E+02  0.00000000000E+00 0.  1.
</event>
<event>
 4    1  0.3080871E+006  0.2336894E+02  0.7546771E-02  0.1487917E+00
         21   -1    0    0  503  501  0.00000000000E+00  0.00000000000E+00  0.67807606045E+01  0.67807606045E+01  0.00000000000E+00 0. -1.
         21   -1    0    0  504  502 -0.00000000000E+00 -0.00000000000E+00 -0.81160879197E+02  0.81160879197E+02  0.00000000000E+00 0. -1.
         21    1    1    2  503  502 -0.17596080239E+02 -0.15378081217E+02 -0.41042792810E+02  0.47229421586E+02  0.00000000000E+00 0. -1.
         21    1    1    2  504  501  0.17596080239E+02  0.15378081217E+02 -0.33337325782E+02  0.40712218215E+02  0.00000000000E+00 0. -1.
</event>
<event>
 4    1  0.3080871E+006  0.2244803E+02  0.7546771E-02  0.1499548E+00
         21   -1    0    0  502  501  0.00000000000E+00  0.00000000000E+00  0.51758965756E+02  0.51758965756E+02  0.00000000000E+00 0. -1.
         21   -1    0    0  503  502 -0.00000000000E+00 -0.00000000000E+00 -0.14601750575E+03  0.14601750575E+03  0.00000000000E+00 0.  1.
         21    1    1    2  503  504  0.81902153241E+01 -0.20900584460E+02 -0.14266393245E+03  0.14441922199E+03  0.00000000000E+00 0.  1.
         21    1    1    2  504  501 -0.81902153241E+01  0.20900584460E+02  0.48405392453E+02  0.53357249520E+02  0.00000000000E+00 0. -1.
</event>
<event>
 4    1  0.3080871E+006  0.2616959E+02  0.7546771E-02  0.1456133E+00
         21   -1    0    0  503  501  0.00000000000E+00  0.00000000000E+00  0.17379438351E+03  0.17379438351E+03  0.00000000000E+00 0.  1.
         21   -1    0    0  501  502 -0.00000000000E+00 -0.00000000000E+00 -0.89214169575E+01  0.89214169575E+01  0.00000000000E+00 0.  1.
         21    1    1    2  503  504 -0.23261541784E+02 -0.11989495836E+02  0.15069882618E+03  0.15295418775E+03  0.00000000000E+00 0.  1.
         21    1    1    2  504  502  0.23261541784E+02  0.11989495836E+02  0.14174140373E+02  0.29761612723E+02  0.00000000000E+00 0.  1.
</event>
<event>
 4    1  0.3080871E+006  0.2007610E+02  0.7546771E-02  0.1532876E+00
         21   -1    0    0  504  501  0.00000000000E+00  0.00000000000E+00  0.69690256064E+02  0.69690256064E+02  0.00000000000E+00 0. -1.
         21   -1    0    0  503  502 -0.00000000000E+00 -0.00000000000E+00 -0.75111546849E+02  0.75111546849E+02  0.00000000000E+00 0. -1.
         21    1    1    2  503  501  0.18543585788E+02  0.76931980992E+01  0.66847063811E+02  0.69796703440E+02  0.00000000000E+00 0. -1.
         21    1    1    2  504  502 -0.18543585788E+02 -0.76931980992E+01 -0.72268354596E+02  0.75005099473E+02  0.00000000000E+00 0. -1.
</event>
<event>
 4    1  0.3080871E+006  0.3742965E+02  0.7546771E-02  0.1364244E+00
         21   -1    0    0  502  501  0.00000000000E+00  0.00000000000E+00  0.14864792394E+03  0.14864792394E+03  0.00000000000E+00 0.  1.
         21   -1    0    0  504  502 -0.00000000000E+00 -0.00000000000E+00 -0.94784897234E+01  0.94784897234E+01  0.00000000000E+00 0. -1.
         21    1    1    2  503  501  0.16474252180E+02  0.33609191948E+02  0.63634935089E+02  0.73826714217E+02  0.00000000000E+00 0. -1.
         21    1    1    2  504  503 -0.16474252180E+02 -0.33609191948E+02  0.75534499125E+02  0.84299699444E+02  0.00000000000E+00 0.  1.
</event>
<event>
 4    1  0.3080871E+006  0.2580193E+02  0.7546771E-02  0.1460029E+00
         21   -1    0    0  504  501  0.00000000000E+00  0.00000000000E+00  0.89625347510E+01  0.89625347510E+01  0.00000000000E+00 0.  1.
         21   -1    0    0  501  502 -0.00000000000E+00 -0.00000000000E+00 -0.51003403547E+03  0.51003403547E+03  0.00000000000E+00 0. -1.
         21    1    1    2  503  502 -0.60996901913E+01 -0.25070567596E+02 -0.49039445446E+03  0.49107276502E+03  0.00000000000E+00 0. -1.
         21    1    1    2  504  503  0.60996901913E+01  0.25070567596E+02 -0.10677046258E+02  0.27923805200E+02  0.00000000000E+00 0.  1.
</event>
<event>
 4    1  0.3080871E+006  0.2575375E+02  0.7546771E-02  0.1460545E+00
         21   -1    0    0  503  501  0.00000000000E+00  0.00000000000E+00  0.55362616393E+02  0.55362616393E+02  0.00000000000E+00 0. -1.
         21   -1    0    0  504  502 -0.00000000000E+00 -0.00000000000E+00 -0.17664019787E+02  0.17664019787E+02  0.00000000000E+00 0. -1.
         21    1    1    2  503  502  0.75725399557E+01  0.24615280954E+02 -0.18629164517E+01  0.25821035524E+02  0.00000000000E+00 0. -1.
         21    1    1    2  504  501 -0.75725399557E+01 -0.24615280954E+02  0.39561513058E+02  0.47205600656E+02  0.00000000000E+00 0. -1.
</event>
<event>
 4    1  0.3080871E+006  0.2672950E+02  0.7546771E-02  0.1450344E+00
         21   -1    0    0  504  501  0.00000000000E+00  0.00000000000E+00  0.30566361427E+03  0.30566361427E+03  0.00000000000E+00 0.  1.
         21   -1    0    0  503  502 -0.00000000000E+00 -0.00000000000E+00 -0.16126088654E+02  0.16126088654E+02  0.00000000000E+00 0. -1.
         21    1    1    2  503  501  0.20482409508E+02  0.17173728482E+02 -0.40092317765E+01  0.27028503263E+02  0.00000000000E+00 0. -1.
         21    1    1    2  504  502 -0.20482409508E+02 -0.17173728482E+02  0.29354675739E+03  0.29476119966E+03  0.00000000000E+00 0.  1.
</event>
<event>
 4    1  0.3080871E+006  0.3256595E+02  0.7546771E-02  0.1398533E+00
         21   -1    0    0  503  501  0.00000000000E+00  0.00000000000E+00  0.60342555327E+01  0.60342555327E+01  0.00000000000E+00 0.  1.
         21   -1    0    0  501  502 -0.00000000000E+00 -0.00000000000E+00 -0.24530323898E+03  0.24530323898E+03  0.00000000000E+00 0.  1.
         21    1    1    2  503  504 -0.22554687727E+02 -0.23490995293E+02 -0.52719446605E+02  0.61966772134E+02  0.00000000000E+00 0.  1.
         21    1    1    2  504  502  0.22554687727E+02  0.23490995293E+02 -0.18654953685E+03  0.18937072238E+03  0.00000000000E+00 0.  1.
</event>
<event>
 4    1  0.3080871E+006  0.4426231E+02  0.7546771E-02  0.1325170E+00
         21   -1    0    0  503  501  0.00000000000E+00  0.00000000000E+00  0.17282211058E+03  0.17282211058E+03  0.00000000000E+00 0. -1.
         21   -1    0    0  504  502 -0.00000000000E+00 -0.00000000000E+00 -0.43846864063E+02  0.43846864063E+02  0.00000000000E+00 0. -1.
         21    1    1    2  503  502 -0.35303476541E+02 -0.26698631710E+02 -0.28797016141E+02  0.52805497154E+02  0.00000000000E+00 0. -1.
         21    1    1    2  504  501  0.35303476541E+02  0.26698631710E+02  0.15777226266E+03  0.16386347749E+03  0.00000000000E+00 0. -1.
</event>
<event>
 4    1  0.3080871E+006  0.2351651E+02  0.7546771E-02  0.1486112E+00
         21   -1    0    0  504  501  0.00000000000E+00  0.00000000000E+00  0.83029911896E+02  0.83029911896E+02  0.00000000000E+00 0.  1.
         21   -1    0    0  503  502 -0.00000000000E+00 -0.00000000000E+00 -0.12285484153E+02  0.12285484153E+02  0.00000000000E+00 0. -1.
         21    1    1    2  503  501  0.14164336096E+02 -0.18772256510E+02  0.31247838521E+01  0.23723201842E+02  0.00000000000E+00 0. -1.
         21    1    1    2  504  502 -0.14164336096E+02  0.18772256510E+02  0.67619643890E+02  0.71592194207E+02  0.00000000000E+00 0.  1.
</event>
<event>
 4    1  0.3080871E+006  0.2957943E+02  0.7546771E-02  0.1423287E+00
         21   -1    0    0  503  501  0.00000000000E+00  0.00000000000E+00  0.24838752409E+02  0.24838752409E+02  0.00000000000E+00 0. -1.
         21   -1    0    0  504  502 -0.00000000000E+00 -0.00000000000E+00 -0.35781848748E+02  0.35781848748E+02  0.00000000000E+00 0. -1.
         21    1    1    2  503  502 -0.29412959185E+02  0.31338142149E+01 -0.92530154976E+01  0.30992922666E+02  0.00000000000E+00 0. -1.
         21    1    1    2  504  501  0.29412959185E+02 -0.31338142149E+01 -0.16900808414E+01  0.29627678492E+02  0.00000000000E+00 0. -1.
</event>
<event>
 4    1  0.3080871E+006  0.3135962E+02  0.7546771E-02  0.1408138E+00
         21   -1    0    0  503  501  0.00000000000E+00  0.00000000000E+00  0.10417532924E+02  0.10417532924E+02  0.00000000000E+00 0.  1.
         21   -1    0    0  504  502 -0.00000000000E+00 -0.00000000000E+00 -0.14056415201E+03  0.14056415201E+03  0.00000000000E+00 0. -1.
         21    1    1    2  503  502 -0.76898231695E+01  0.30402175549E+02 -0.10833511608E+03  0.11278263623E+03  0.00000000000E+00 0. -1.
         21    1    1    2  504  501  0.76898231695E+01 -0.30402175549E+02 -0.21811503000E+02  0.38199048700E+02  0.00000000000E+00 0.  1.
</event>
<event>
 4    1  0.3080871E+006  0.2264625E+02  0.7546771E-02  0.1496989E+00
         21   -1    0    0  504  501  0.00000000000E+00  0.00000000000E+00  0.81405031948E+02  0.81405031948E+02  0.00000000000E+00 0.  1.
         21   -1    0    0  503  502 -0.00000000000E+00 -0.00000000000E+00 -0.52100632484E+02  0.52100632484E+02  0.00000000000E+00 0.  1.
         21    1    1    2  503  501  0.22626901649E+02 -0.93598821547E+00 -0.47934762901E+02  0.53015037928E+02  0.00000000000E+00 0.  1.
         21    1    1    2  504  502 -0.22626901649E+02  0.93598821547E+00  0.77239162365E+02  0.80490626504E+02  0.00000000000E+00 0.  1.
</event>
<event>
 4    1  0.3080871E+006  0.2427548E+02  0.7546771E-02  0.1477074E+00
         21   -1    0    0  504  501  0.00000000000E+00  0.00000000000E+00  0.27741803574E+01  0.27741803574E+01  0.00000000000E+00 0.  1.
         21   -1    0    0  503  502 -0.00000000000E+00 -0.00000000000E+00 -0.82190280791E+03  0.82190280791E+03  0.00000000000E+00 0.  1.
         21    1    1    2  503  501 -0.16930922640E+02 -0.17396637125E+02 -0.76464200321E+03  0.76502724931E+03  0.00000000000E+00 0.  1.
         21    1    1    2  504  502  0.16930922640E+02  0.17396637125E+02 -0.54486624351E+02  0.59649738958E+02  0.00000000000E+00 0.  1.
</event>
<event>
 4    1  0.3080871E+006  0.2201951E+02  0.7546771E-02  0.1505191E+00
         21   -1    0    0  503  501  0.00000000000E+00  0.00000000000E+00  0.10300586415E+02  0.10300586415E+02  0.00000000000E+00 0.  1.
         21   -1    0    0  504  502 -0.00000000000E+00 -0.00000000000E+00 -0.73783297036E+02  0.73783297036E+02  0.00000000000E+00 0. -1.
         21    1    1    2  503  502  0.21758958359E+02 -0.33773474617E+01 -0.57037799559E+02  0.61140570191E+02  0.00000000000E+00 0. -1.
         21    1    1    2  504  501 -0.21758958359E+02  0.33773474617E+01 -0.64449110619E+01  0.22943313259E+02  0.00000000000E+00 0.  1.
</event>
<event>
 4    1  0.3080871E+006  0.3148289E+02  0.7546771E-02  0.1407133E+00
         21   -1    0    0  502  501  0.00000000000E+00  0.00000000000E+00  0.53865489680E+01  0.53865489680E+01  0.00000000000E+00 0. -1.
         21   -1    0    0  504  502 -0.00000000000E+00 -0.00000000000E+00 -0.18707598996E+03  0.18707598996E+03  0.00000000000E+00 0. -1.
         21    1    1    2  503  501  0.21022303046E+02  0.23435765220E+02 -0.78522789466E+02  0.84599058992E+02  0.00000000000E+00 0. -1.
         21    1    1    2  504  503 -0.21022303046E+02 -0.23435765220E+02 -0.10316665152E+03  0.10786347993E+03  0.00000000000E+00 0. -1.
</event>
<event>
 4    1  0.3080871E+006  0.3504276E+02  0.7546771E-02  0.1380263E+00
         21   -1    0    0  502  501  0.00000000000E+00  0.00000000000E+00  0.13769890442E+03  0.13769890442E+03  0.00000000000E+00 0. -1.
         21   -1    0    0  503  502 -0.00000000000E+00 -0.00000000000E+00 -0.28674050936E+02  0.28674050936E+02  0.00000000000E+00 0. -1.
         21    1    1    2  503  504  0.27877590367E+01  0.34931697321E+02 -0.14536761527E+02  0.37938272416E+02  0.00000000000E+00 0. -1.
         21    1    1    2  504  501 -0.27877590367E+01 -0.34931697321E+02  0.12356161501E+03  0.12843468294E+03  0.00000000000E+00 0. -1.
</event>
<event>
 4    1  0.3080871E+006  0.2265923E+02  0.7546771E-02  0.1496822E+00
         21   -1    0    0  503  501  0.00000000000E+00  0.00000000000E+00  0.94684199830E+01  0.94684199830E+01  0.00000000000E+00 0. -1.
         21   -1    0    0  501  502 -0.00000000000E+00 -0.00000000000E+00 -0.14975156469E+03  0.14975156469E+03  0.00000000000E+00 0.  1.
         21    1    1    2  503  504  0.22531524627E+02  0.24023378536E+01 -0.65586924114E+01  0.23589346649E+02  0.00000000000E+00 0. -1.
         21    1    1    2  504  502 -0.22531524627E+02 -0.24023378536E+01 -0.13372445229E+03  0.13563063802E+03  0.00000000000E+00 0.  1.
</event>
<event>
 4    1  0.3080871E+006  0.3033100E+02  0.7546771E-02  0.1416741E+00
         21   -1    0    0  504  501  0.00000000000E+00  0.00000000000E+00  0.27517802975E+02  0.27517802975E+02  0.00000000000E+00 0. -1.
         21   -1    0    0  503  502 -0.00000000000E+00 -0.00000000000E+00 -0.42504074136E+02  0.42504074136E+02  0.00000000000E+00 0. -1.
         21    1    1    2  503  501  0.13314840978E+02  0.27252243031E+02  0.86819470385E+01  0.31549103709E+02  0.00000000000E+00 0. -1.
         21    1    1    2  504  502 -0.13314840978E+02 -0.27252243031E+02 -0.23668218200E+02  0.38472773402E+02  0.00000000000E+00 0. -1.
</event>
<event>
 4    1  0.3080871E+006  0.2238665E+02  0.7546771E-02  0.1500347E+00
         21   -1    0    0  503  501  0.00000000000E+00  0.00000000000E+00  0.32802037745E+02  0.32802037745E+02  0.00000000000E+00 0. -1.
         21   -1    0    0  504  502 -0.00000000000E+00 -0.00000000000E+00 -0.24908689749E+02  0.24908689749E+02  0.00000000000E+00 0.  1.
         21    1    1    2  503  502  0.20372265835E+02  0.92807888893E+01  0.21888682610E+02  0.31309370547E+02  0.00000000000E+00 0. -1.
         21    1    1    2  504  501 -0.20372265835E+02 -0.92807888893E+01 -0.13995334613E+02  0.26401356946E+02  0.00000000000E+00 0.  1.
</event>
<event>
 4    1  0.3080871E+006  0.2195006E+02  0.7546771E-02  0.1506121E+00
         21   -1    0    0  502  501  0.00000000000E+00  0.00000000000E+00  0.33558291032E+02  0.33558291032E+02  0.00000000000E+00 0. -1.
         21   -1    0    0  504  502 -0.00000000000E+00 -0.00000000000E+00 -0.78631010471E+02  0.78631010471E+02  0.00000000000E+00 0.  1.
         21    1    1    2  503  501 -0.21940511219E+02  0.64740198386E+00  0.28179213203E+02  0.35719367557E+02  0.00000000000E+00 0. -1.
         21    1    1    2  504  503  0.21940511219E+02 -0.64740198386E+00 -0.73251932643E+02  0.76469933946E+02  0.00000000000E+00 0.  1.
</event>
<event>
 4    1  0.3080871E+006  0.2006965E+02  0.7546771E-02  0.1532974E+00
         21   -1    0    0  503  501  0.00000000000E+00  0.00000000000E+00  0.22542117499E+02  0.22542117499E+02  0.00000000000E+00 0.  1.
         21   -1    0    0  501  502 -0.00000000000E+00 -0.00000000000E+00 -0.21573319894E+02  0.21573319894E+02  0.00000000000E+00 0. -1.
         21    1    1    2  503  504  0.18589957143E+02  0.75633470319E+01  0.96253989631E+01  0.22258459743E+02  0.00000000000E+00 0.  1.
         21    1    1    2  504  502 -0.18589957143E+02 -0.75633470319E+01 -0.86566013586E+01  0.21856977650E+02  0.00000000000E+00 0. -1.
</event>
<event>
 4    1  0.3080871E+006  0.2135445E+02  0.7546771E-02  0.1514264E+00
         21   -1    0    0  503  501  0.00000000000E+00  0.00000000000E+00  0.24186609858E+03  0.24186609858E+03  0.00000000000E+00 0.  1.
         21   -1    0    0  501  502 -0.00000000000E+00 -0.00000000000E+00 -0.20105872702E+01  0.20105872702E+01  0.00000000000E+00 0.  1.
         21    1    1    2  503  504  0.20391607560E+02  0.63399286045E+01  0.15035573908E+03  0.15186461282E+03  0.00000000000E+00 0.  1.
         21    1    1    2  504  502 -0.20391607560E+02 -0.63399286045E+01  0.89499772231E+02  0.92012073029E+02  0.00000000000E+00 0.  1.
</event>
<event>
 4    1  0.3080871E+006  0.3228231E+02  0.7546771E-02  0.1400747E+00
         21   -1    0    0  502  501  0.00000000000E+00  0.00000000000E+00  0.24493339747E+03  0.24493339747E+03  0.00000000000E+00 0.  1.
         21   -1    0    0  504  502 -0.00000000000E+00 -0.00000000000E+00 -0.32490502520E+02  0.32490502520E+02  0.00000000000E+00 0.  1.
         21    1    1    2  503  501 -0.30767498462E+02 -0.97728590055E+01  0.23553224821E+03  0.23773427957E+03  0.00000000000E+00 0.  1.
         21    1    1    2  504  503  0.30767498462E+02  0.97728590055E+01 -0.23089353264E+02  0.39689620418E+02  0.00000000000E+00 0.  1.
</event>
<event>
 4    1  0.3080871E+006  0.2048961E+02  0.7546771E-02  0.1526678E+00
         21   -1    0    0  504  501  0.00000000000E+00  0.00000000000E+00  0.11679742366E+02  0.11679742366E+02  0.00000000000E+00 0.  1.
         21   -1    0    0  501  502 -0.00000000000E+00 -0.00000000000E+00 -0.45116638553E+03  0.45116638553E+03  0.00000000000E+00 0.  1.
         21    1    1    2  503  502 -0.67067381080E+01  0.19360878255E+02 -0.44175628065E+03  0.44223120134E+03  0.00000000000E+00 0.  1.
         21    1    1    2  504  503  0.67067381080E+01 -0.19360878255E+02  0.22696374818E+01  0.20614926562E+02  0.00000000000E+00 0.  1.
</event>
<event>
 4    1  0.3080871E+006  0.5576270E+02  0.7546771E-02  0.1274951E+00
         21   -1    0    0  504  501  0.00000000000E+00  0.00000000000E+00  0.65027006692E+03  0.65027006692E+03  0.00000000000E+00 0. -1.
         21   -1    0    0  503  502 -0.00000000000E+00 -0.00000000000E+00 -0.31536841166E+02  0.31536841166E+02  0.00000000000E+00 0.  1.
         21    1    1    2  503  501  0.17967670427E+02  0.52788645348E+02 -0.46299596955E+01  0.55954577874E+02  0.00000000000E+00 0.  1.
         21    1    1    2  504  502 -0.17967670427E+02 -0.52788645348E+02  0.62336318545E+03  0.62585233021E+03  0.00000000000E+00 0. -1.
</event>
<event>
 4    1  0.3080871E+006  0.2003037E+02  0.7546771E-02  0.1533572E+00
         21   -1    0    0  503  501  0.00000000000E+00  0.00000000000E+00  0.15146548778E+02  0.15146548778E+02  0.00000000000E+00 0.  1.
         21   -1    0    0  501  502 -0.00000000000E+00 -0.00000000000E+00 -0.56472092411E+02  0.56472092411E+02  0.00000000000E+00 0. -1.
         21    1    1    2  503  504 -0.20022392511E+02  0.56528842353E+00  0.54298618102E+01  0.20753292562E+02  0.00000000000E+00 0.  1.
         21    1    1    2  504  502  0.20022392511E+02 -0.56528842353E+00 -0.46755405443E+02  0.50865348628E+02  0.00000000000E+00 0. -1.
</event>
<event>
 4    1  0.3080871E+006  0.2038749E+02  0.7546771E-02  0.1528192E+00
         21   -1    0    0  503  501  0.00000000000E+00  0.00000000000E+00  0.95652576746E+01  0.95652576746E+01  0.00000000000E+00 0.  1.
         21   -1    0    0  501  502 -0.00000000000E+00 -0.00000000000E+00 -0.45462960709E+02  0.45462960709E+02  0.00000000000E+00 0.  1.
         21    1    1    2  503  504  0.14834063954E+02 -0.13985715431E+02 -0.12165211988E+02  0.23741147239E+02  0.00000000000E+00 0.  1.
         21    1    1    2  504  502 -0.14834063954E+02  0.13985715431E+02 -0.23732491046E+02  0.31287071144E+02  0.00000000000E+00 0.  1.
</event>
<event>
 4    1  0.3080871E+006  0.2823285E+02  0.7546771E-02  0.1435602E+00
         21   -1    0    0  504  501  0.00000000000E+00  0.00000000000E+00  0.18917523644E+01  0.18917523644E+01  0.00000000000E+00 0. -1.
         21   -1    0    0  503  502 -0.00000000000E+00 -0.00000000000E+00 -0.66327647829E+03  0.66327647829E+03  0.00000000000E+00 0.  1.
         21    1    1    2  503  501 -0.28170250677E+02  0.18791022405E+01 -0.12983215009E+03  0.13286640375E+03  0.00000000000E+00 0. -1.
         21    1    1    2  504  502  0.28170250677E+02 -0.18791022405E+01 -0.53155257583E+03  0.53230182690E+03  0.00000000000E+00 0.  1.
</event>
<event>
 4    1  0.3080871E+006  0.3807809E+02  0.7546771E-02  0.1360132E+00
         21   -1    0    0  503  501  0.00000000000E+00  0.00000000000E+00  0.63276271421E+02  0.63276271421E+02  0.00000000000E+00 0. -1.
         21   -1    0    0  504  502 -0.00000000000E+00 -0.00000000000E+00 -0.23635705944E+02  0.23635705944E+02  0.00000000000E+00 0.  1.
         21    1    1    2  503  502  0.35862465488E+02 -0.12799381343E+02  0.27411506282E+02  0.46918346841E+02  0.00000000000E+00 0. -1.
         21    1    1    2  504  501 -0.35862465488E+02  0.12799381343E+02  0.12229059195E+02  0.39993630523E+02  0.00000000000E+00 0.  1.
</event>
<event>
 4    1  0.3080871E+006  0.2136100E+02  0.7546771E-02  0.1514173E+00
         21   -1    0    0  504  501  0.00000000000E+00  0.00000000000E+00  0.54881771361E+02  0.54881771361E+02  0.00000000000E+00 0. -1.
         21   -1    0    0  503  502 -0.00000000000E+00 -0.00000000000E+00 -0.83142215790E+01  0.83142215790E+01  0.00000000000E+00 0. -1.
         21    1    1    2  503  501 -0.19992689495E+02 -0.75222899982E+01  0.23405104586E+02  0.31687401294E+02  0.00000000000E+00 0. -1.
         21    1    1    2  504  502  0.19992689495E+02  0.75222899982E+01  0.23162445196E+02  0.31508591646E+02  0.00000000000E+00 0. -1.
</event>
<event>
 4    1  0.3080871E+006  0.2143216E+02  0.7546771E-02  0.1513183E+00
         21   -1    0    0  504  501  0.00000000000E+00  0.00000000000E+00  0.35880487841E+01  0.35880487841E+01  0.00000000000E+00 0.  1.
         21   -1    0    0  503  502 -0.00000000000E+00 -0.00000000000E+00 -0.16948022697E+03  0.16948022697E+03  0.00000000000E+00 0.  1.
         21    1    1    2  503  501 -0.19694433960E+02  0.84537896999E+01 -0.12574676962E+03  0.12756013233E+03  0.00000000000E+00 0.  1.
         21    1    1    2  504  502  0.19694433960E+02 -0.84537896999E+01 -0.40145408567E+02  0.45508143429E+02  0.00000000000E+00 0.  1.
</event>
<event>
 4    1  0.3080871E+006  0.2025095E+02  0.7546771E-02  0.1530233E+00
         21   -1    0    0  504  501  0.00000000000E+00  0.00000000000E+00  0.51700347046E+00  0.51700347046E+00  0.00000000000E+00 0.  1.
         21   -1    0    0  501  502 -0.00000000000E+00 -0.00000000000E+00 -0.15858564701E+04  0.15858564701E+04  0.00000000000E+00 0.  1.
         21    1    1    2  503  502  0.75653054761E+01  0.18784756525E+02 -0.13534319080E+04  0.13535834036E+04  0.00000000000E+00 0.  1.
         21    1    1    2  504  503 -0.75653054761E+01 -0.18784756525E+02 -0.23190755864E+03  0.23279006998E+03  0.00000000000E+00 0.  1.
</event>
<event>
 4    1  0.3080871E+006  0.2087601E+02  0.7546771E-02  0.1521042E+00
         21   -1    0    0  503  501  0.00000000000E+00  0.00000000000E+00  0.11202583988E+03  0.11202583988E+03  0.00000000000E+00 0. -1.
         21   -1    0    0  501  502 -0.00000000000E+00 -0.00000000000E+00 -0.71346097260E+02  0.71346097260E+02  0.00000000000E+00 0.  1.
         21    1    1    2  503  504  0.10832687838E+02  0.17845468691E+02  0.10949115187E+03  0.11146353761E+03  0.00000000000E+00 0. -1.
         21    1    1    2  504  502 -0.10832687838E+02 -0.17845468691E+02 -0.68811409256E+02  0.71908399526E+02  0.00000000000E+00 0.  1.
</event>
<event>
 4    1  0.3080871E+006  0.3155372E+02  0.7546771E-02  0.1406559E+00
         21   -1    0    0  503  501  0.00000000000E+00  0.00000000000E+00  0.33759976811E+01  0.33759976811E+01  0.00000000000E+00 0. -1.
         21   -1    0    0  504  502 -0.00000000000E+00 -0.00000000000E+00 -0.38457678659E+03  0.38457678659E+03  0.00000000000E+00 0. -1.
         21    1    1    2  503  502  0.31474001658E+02 -0.22415868391E+01 -0.28426108471E+03  0.28600699602E+03  0.00000000000E+00 0. -1.
         21    1    1    2  504  501 -0.31474001658E+02  0.22415868391E+01 -0.96939704191E+02  0.10194578824E+03  0.00000000000E+00 0. -1.
</event>
<event>
 4    1  0.3080871E+006  0.3585386E+02  0.7546771E-02  0.1374658E+00
         21   -1    0    0  503  501  0.00000000000E+00  0.00000000000E+00  0.77019493441E+02  0.77019493441E+02  0.00000000000E+00 0.  1.
         21   -1    0    0  504  502 -0.00000000000E+00 -0.00000000000E+00 -0.23570066653E+03  0.23570066653E+03  0.00000000000E+00 0.  1.
         21    1    1    2  503  502  0.25658605679E+02  0.25042672167E+02  0.71381724282E+02  0.79880223060E+02  0.00000000000E+00 0.  1.
         21    1    1    2  504  501 -0.25658605679E+02 -0.25042672167E+02 -0.23006289737E+03  0.23283993691E+03  0.00000000000E+00 0.  1.
</event>
<event>
 4    1  0.3080871E+006  0.3090082E+02  0.7546771E-02  0.1411926E+00
         21   -1    0    0  504  501  0.00000000000E+00  0.00000000000E+00  0.14156033766E+04  0.14156033766E+04  0.00000000000E+00 0. -1.
         21   -1    0    0  503  502 -0.00000000000E+00 -0.00000000000E+00 -0.28887204948E+01  0.28887204948E+01  0.00000000000E+00 0. -1.
         21    1    1    2  503  501  0.24322466164E+02  0.19059862010E+02  0.13273008309E+04  0.13276604823E+04  0.00000000000E+00 0. -1.
         21    1    1    2  504  502 -0.24322466164E+02 -0.19059862010E+02  0.85413825215E+02  0.90831614750E+02  0.00000000000E+00 0. -1.
</event>
<event>
 4    1  0.3080871E+006  0.2477958E+02  0.7546771E-02  0.1471284E+00
         21   -1    0    0  503  501  0.00000000000E+00  0.00000000000E+00  0.12329065217E+03  0.12329065217E+03  0.00000000000E+00 0.  1.
         21   -1    0    0  504  502 -0.00000000000E+00 -0.00000000000E+00 -0.65382451752E+02  0.65382451752E+02  0.00000000000E+00 0. -1.
         21    1    1    2  503  502 -0.28227491416E+01  0.24618277415E+02  0.11962658418E+03  0.12216606377E+03  0.00000000000E+00 0.  1.
         21    1    1    2  504  501  0.28227491416E+01 -0.24618277415E+02 -0.61718383759E+02  0.66507040149E+02  0.00000000000E+00 0. -1.
</event>
<event>
 4    1  0.3080871E+006  0.3330704E+02  0.7546771E-02  0.1392872E+00
         21   -1    0    0  504  501  0.00000000000E+00  0.00000000000E+00  0.46895979103E+02  0.46895979103E+02  0.00000000000E+00 0.  1.
         21   -1    0    0  503  502 -0.00000000000E+00 -0.00000000000E+00 -0.17000346838E+03  0.17000346838E+03  0.00000000000E+00 0.  1.
         21    1    1    2  503  501  0.33290567568E+02 -0.10473566387E+01 -0.16217565529E+03  0.16556056902E+03  0.00000000000E+00 0.  1.
         21    1    1    2  504  502 -0.33290567568E+02  0.10473566387E+01  0.39068166021E+02  0.51338878457E+02  0.00000000000E+00 0.  1.
</event>
<event>
 4    1  0.3080871E+006  0.2987034E+02  0.7546771E-02  0.1420727E+00
         21   -1    0    0  503  501  0.00000000000E+00  0.00000000000E+00  0.25857690712E+01  0.25857690712E+01  0.00000000000E+00 0. -1.
         21   -1    0    0  501  502 -0.00000000000E+00 -0.00000000000E+00 -0.38347728368E+03  0.38347728368E+03  0.00000000000E+00 0.  1.
         21    1    1    2  503  504 -0.76238601002E+00 -0.29860606839E+02 -0.12934591106E+03  0.13275014795E+03  0.00000000000E+00 0. -1.
         21    1    1    2  504  502  0.76238601002E+00  0.29860606839E+02 -0.25154560355E+03  0.25331290481E+03  0.00000000000E+00 0.  1.
</event>
<event>
 4    1  0.3080871E+006  0.2159083E+02  0.7546771E-02  0.1510994E+00
         21   -1    0    0  504  501  0.00000000000E+00  0.00000000000E+00  0.18198640345E+02  0.18198640345E+02  0.00000000000E+00 0.  1.
         21   -1    0    0  503  502 -0.00000000000E+00 -0.00000000000E+00 -0.69263030563E+02  0.69263030563E+02  0.00000000000E+00 0.  1.
         21    1    1    2  503  501  0.14698805610E+02 -0.15814833285E+02 -0.60247246054E+02  0.63999175740E+02  0.00000000000E+00 0.  1.
         21    1    1    2  504  502 -0.14698805610E+02  0.15814833285E+02  0.91828558357E+01  0.23462495168E+02  0.00000000000E+00 0.  1.
</event>
<event>
 4    1  0.3080871E+006  0.2075203E+02  0.7546771E-02  0.1522835E+00
         21   -1    0    0  504  501  0.00000000000E+00  0.00000000000E+00  0.11663536140E+03  0.11663536140E+03  0.00000000000E+00 0.  1.
         21   -1    0    0  501  502 -0.00000000000E+00 -0.00000000000E+00 -0.18872636254E+02  0.18872636254E+02  0.00000000000E+00 0.  1.
         21    1    1    2  503  502  0.11893627989E+02  0.17005541394E+02 -0.11884556281E+02  0.23914211316E+02  0.00000000000E+00 0.  1.
         21    1    1    2  504  503 -0.11893627989E+02 -0.17005541394E+02  0.10964728143E+03  0.11159378634E+03  0.00000000000E+00 0.  1.
</event>
<event>
 4    1  0.3080871E+006  0.2047123E+02  0.7546771E-02  0.1526950E+00
         21   -1    0    0  503  501  0.00000000000E+00  0.00000000000E+00  0.15364540037E+03  0.15364540037E+03  0.00000000000E+00 0. -1.
         21   -1    0    0  504  502 -0.00000000000E+00 -0.00000000000E+00 -0.32548571818E+01  0.32548571818E+01  0.00000000000E+00 0. -1.
         21    1    1    2  503  502  0.30004806038E+01  0.20250143473E+02  0.10677228898E+03  0.10871703127E+03  0.00000000000E+00 0. -1.
         21    1    1    2  504  501 -0.30004806038E+01 -0.20250143473E+02  0.43618254205E+02  0.48183226277E+02  0.00000000000E+00 0. -1.
</event>
<event>
 4    1  0.3080871E+006  0.2155814E+02  0.7546771E-02  0.1511443E+00
         21   -1    0    0  503  501  0.00000000000E+00  0.00000000000E+00  0.31758192639E+02  0.31758192639E+02  0.00000000000E+00 0.  1.
         21   -1    0    0  501  502 -0.00000000000E+00 -0.00000000000E+00 -0.73752408704E+02  0.73752408704E+02  0.00000000000E+00 0.  1.
         21    1    1    2  503  504  0.13002415654E+02  0.17195661820E+02  0.26235168605E+02  0.33956408379E+02  0.00000000000E+00 0.  1.
         21    1    1    2  504  502 -0.13002415654E+02 -0.17195661820E+02 -0.68229384670E+02  0.71554192964E+02  0.00000000000E+00 0.  1.
</event>
<event>
 4    1  0.3080871E+006  0.2181158E+02  0.7546771E-02  0.1507986E+00
         21   -1    0    0  504  501  0.00000000000E+00  0.00000000000E+00  0.10654569046E+02  0.10654569046E+02  0.00000000000E+00 0.  1.
         21   -1    0    0  501  502 -0.00000000000E+00 -0.00000000000E+00 -0.37260559114E+03  0.37260559114E+03  0.00000000000E+00 0. -1.
         21    1    1    2  503  502  0.18892299266E+02 -0.10900735368E+02 -0.36075716342E+03  0.36141593208E+03  0.00000000000E+00 0. -1.
         21    1    1    2  504  503 -0.18892299266E+02  0.10900735368E+02 -0.11938586779E+01  0.21844228109E+02  0.00000000000E+00 0.  1.
</event>
<event>
 4    1  0.3080871E+006  0.2339570E+02  0.7546771E-02  0.1487588E+00
         21   -1    0    0  502  501  0.00000000000E+00  0.00000000000E+00  0.35574186928E+03  0.35574186928E+03  0.00000000000E+00 0. -1.
         21   -1    0    0  504  502 -0.00000000000E+00 -0.00000000000E+00 -0.53426738141E+01  0.53426738141E+01  0.00000000000E+00 0.  1.
         21    1    1    2  503  501 -0.23317206586E+02  0.19148604576E+01  0.32754232763E+03  0.32837681892E+03  0.00000000000E+00 0. -1.
         21    1    1    2  504  503  0.23317206586E+02 -0.19148604576E+01  0.22856867839E+02  0.32707724179E+02  0.00000000000E+00 0.  1.
</event>
<event>
 4    1  0.3080871E+006  0.4430434E+02  0.7546771E-02  0.1324955E+00
         21   -1    0    0  502  501  0.00000000000E+00  0.00000000000E+00  0.55948861578E+02  0.55948861578E+02  0.00000000000E+00 0. -1.
         21   -1    0    0  504  502 -0.00000000000E+00 -0.00000000000E+00 -0.38670670965E+02  0.38670670965E+02  0.00000000000E+00 0. -1.
         21    1    1    2  503  501 -0.13234705121E+02  0.42281408118E+02  0.23048417512E+02  0.49941009620E+02  0.00000000000E+00 0. -1.
         21    1    1    2  504  503  0.13234705121E+02 -0.42281408118E+02 -0.57702268988E+01  0.44678522923E+02  0.00000000000E+00 0. -1.
</event>
<event>
 4    1  0.3080871E+006  0.2023904E+02  0.7546771E-02  0.1530412E+00
         21   -1    0    0  503  501  0.00000000000E+00  0.00000000000E+00  0.32210899020E+02  0.32210899020E+02  0.00000000000E+00 0. -1.
         21   -1    0    0  504  502 -0.00000000000E+00 -0.00000000000E+00 -0.57218846130E+02  0.57218846130E+02  0.00000000000E+00 0. -1.
         21    1    1    2  503  502 -0.20162653405E+02 -0.17567939628E+01  0.26930181242E+02  0.33687587908E+02  0.00000000000E+00 0. -1.
         21    1    1    2  504  501  0.20162653405E+02  0.17567939628E+01 -0.51938128351E+02  0.55742157242E+02  0.00000000000E+00 0. -1.
</event>
<event>
 4    1  0.3080871E+006  0.3947129E+02  0.7546771E-02  0.1351612E+00
         21   -1    0    0  504  501  0.00000000000E+00  0.00000000000E+00  0.25067053003E+03  0.25067053003E+03  0.00000000000E+00 0. -1.
         21   -1    0    0  501  502 -0.00000000000E+00 -0.00000000000E+00 -0.13923548869E+02  0.13923548869E+02  0.00000000000E+00 0. -1.
         21    1    1    2  503  502 -0.13803730388E+02 -0.36978904686E+02  0.19937444254E+02  0.44220855349E+02  0.00000000000E+00 0. -1.
         21    1    1    2  504  503  0.13803730388E+02  0.36978904686E+02  0.21680953691E+03  0.22037322356E+03  0.00000000000E+00 0. -1.
</event>
<event>
 4    1  0.3080871E+006  0.4935622E+02  0.7546771E-02  0.1300988E+00
         21   -1    0    0  504  501  0.00000000000E+00  0.00000000000E+00  0.34045530413E+03  0.34045530413E+03  0.00000000000E+00 0. -1.
         21   -1    0    0  503  502 -0.00000000000E+00 -0.00000000000E+00 -0.37580696087E+02  0.37580696087E+02  0.00000000000E+00 0. -1.
         21    1    1    2  503  501  0.15842635469E+02 -0.46744491867E+02  0.32151186592E+03  0.32527821406E+03  0.00000000000E+00 0. -1.
         21    1    1    2  504  502 -0.15842635469E+02  0.46744491867E+02 -0.18637257877E+02  0.52757786152E+02  0.00000000000E+00 0. -1.
</event>
<event>
 4    1  0.3080871E+006  0.3565145E+02  0.7546771E-02  0.1376040E+00
         21   -1    0    0  502  501  0.00000000000E+00  0.00000000000E+00  0.57231035062E+02  0.57231035062E+02  0.00000000000E+00 0.  1.
         21   -1    0    0  503  502 -0.00000000000E+00 -0.00000000000E+00 -0.27465918613E+03  0.27465918613E+03  0.00000000000E+00 0.  1.
         21    1    1    2  503  504 -0.15151573604E+02 -0.32271596932E+02 -0.26780870271E+03  0.27017129270E+03  0.00000000000E+00 0.  1.
         21    1    1    2  504  501  0.15151573604E+02  0.32271596932E+02  0.50380551640E+02  0.61718928496E+02  0.00000000000E+00 0.  1.
</event>
<event>
 4    1  0.3080871E+006  0.2307844E+02  0.7546771E-02  0.1491516E+00
         21   -1    0    0  503  501  0.00000000000E+00  0.00000000000E+00  0.97723644894E+02  0.97723644894E+02  0.00000000000E+00 0.  1.
         21   -1    0    0  504  502 -0.00000000000E+00 -0.00000000000E+00 -0.88702451114E+01  0.88702451114E+01  0.00000000000E+00 0.  1.
         21    1    1    2  503  502  0.95992800450E+00 -0.23058465206E+02  0.77520745221E+02  0.80883126912E+02  0.00000000000E+00 0.  1.
         21    1    1    2  504  501 -0.95992800450E+00  0.23058465206E+02  0.11332654562E+02  0.25710763094E+02  0.00000000000E+00 0.  1.
</event>
<event>
 4    1  0.3080871E+006  0.2469880E+02  0.7546771E-02  0.1472201E+00
         21   -1    0    0  502  501  0.00000000000E+00  0.00000000000E+00  0.23898345233E+02  0.23898345233E+02  0.00000000000E+00 0. -1.
         21   -1    0    0  504  502 -0.00000000000E+00 -0.00000000000E+00 -0.63804899208E+02  0.63804899208E+02  0.00000000000E+00 0. -1.
         21    1    1    2  503  501  0.21356197646E+02 -0.12407401517E+02  0.14012220793E+02  0.28396709701E+02  0.00000000000E+00 0. -1.
         21    1    1    2  504  503 -0.21356197646E+02  0.12407401517E+02 -0.53918774768E+02  0.59306534739E+02  0.00000000000E+00 0. -1.
</event>
<event>
 4    1  0.3080871E+006  0.2636698E+02  0.7546771E-02  0.1454073E+00
         21   -1    0    0  503  501  0.00000000000E+00  0.00000000000E+00  0.20166297403E+02  0.20166297403E+02  0.00000000000E+00 0.  1.
         21   -1    0    0  504  502 -0.00000000000E+00 -0.00000000000E+00 -0.63867842205E+02  0.63867842205E+02  0.00000000000E+00 0.  1.
         21    1    1    2  503  502 -0.25621388278E+02 -0.62259182410E+01 -0.50355120499E+02  0.56840617130E+02  0.00000000000E+00 0.  1.
         21    1    1    2  504  501  0.25621388278E+02  0.62259182410E+01  0.66535756962E+01  0.27193522478E+02  0.00000000000E+00 0.  1.
</event>
<event>
 4    1  0.3080871E+006  0.2171956E+02  0.7546771E-02  0.1509234E+00
         21   -1    0    0  503  501  0.00000000000E+00  0.00000000000E+00  0.26231252447E+01  0.26231252447E+01  0.00000000000E+00 0. -1.
         21   -1    0    0  504  502 -0.00000000000E+00 -0.00000000000E+00 -0.25001411063E+03  0.25001411063E+03  0.00000000000E+00 0. -1.
         21    1    1    2  503  502 -0.21427082949E+02 -0.35524039266E+01 -0.56772160219E+02  0.60785011585E+02  0.00000000000E+00 0. -1.
         21    1    1    2  504  501  0.21427082949E+02  0.35524039266E+01 -0.19061882517E+03  0.19185222429E+03  0.00000000000E+00 0. -1.
</event>
<event>
 4    1  0.3080871E+006  0.2108480E+02  0.7546771E-02  0.1518058E+00
         21   -1    0    0  503  501  0.00000000000E+00  0.00000000000E+00  0.37402081636E+03  0.37402081636E+03  0.00000000000E+00 0.  1.
         21   -1    0    0  501  502 -0.00000000000E+00 -0.00000000000E+00 -0.22592727052E+01  0.22592727052E+01  0.00000000000E+00 0.  1.
         21    1    1    2  503  504 -0.21084704042E+02  0.62196611689E-01  0.31539611759E+03  0.31610011010E+03  0.00000000000E+00 0.  1.
         21    1    1    2  504  502  0.21084704042E+02 -0.62196611689E-01  0.56365426056E+02  0.60179978959E+02  0.00000000000E+00 0.  1.
</event>
<event>
 4    1  0.3080871E+006  0.2541925E+02  0.7546771E-02  0.1464167E+00
         21   -1    0    0  502  501  0.00000000000E+00  0.00000000000E+00  0.51050715940E+02  0.51050715940E+02  0.00000000000E+00 0. -1.
         21   -1    0    0  503  502 -0.00000000000E+00 -0.00000000000E+00 -0.15524872487E+02  0.15524872487E+02  0.00000000000E+00 0. -1.
         21    1    1    2  503  504  0.11160749820E+02  0.22838035826E+02  0.34553221412E+01  0.25653020642E+02  0.00000000000E+00 0. -1.
         21    1    1    2  504  501 -0.11160749820E+02 -0.22838035826E+02  0.32070521312E+02  0.40922567785E+02  0.00000000000E+00 0. -1.
</event>
<event>
 4    1  0.3080871E+006  0.2709131E+02  0.7546771E-02  0.1446693E+00
         21   -1    0    0  502  501  0.00000000000E+00  0.00000000000E+00  0.15652068431E+01  0.15652068431E+01  0.00000000000E+00 0.  1.
         21   -1    0    0  503  502 -0.00000000000E+00 -0.00000000000E+00 -0.59424068347E+03  0.59424068347E+03  0.00000000000E+00 0.  1.
         21    1    1    2  503  504  0.22065682669E+02 -0.15717664951E+02 -0.43314977238E+03  0.43399615743E+03  0.00000000000E+00 0.  1.
         21    1    1    2  504  501 -0.22065682669E+02  0.15717664951E+02 -0.15952570424E+03  0.16180973288E+03  0.00000000000E+00 0.  1.
</event>
<event>
 4    1  0.3080871E+006  0.2974837E+02  0.7546771E-02  0.1421796E+00
         21   -1    0    0  503  501  0.00000000000E+00  0.00000000000E+00  0.11360612438E+02  0.11360612438E+02  0.00000000000E+00 0.  1.
         21   -1    0    0  504  502 -0.00000000000E+00 -0.00000000000E+00 -0.48802108021E+03  0.48802108021E+03  0.00000000000E+00 0. -1.
         21    1    1    2  503  502  0.78505833725E+01  0.28693790252E+02 -0.46722750205E+03  0.46817358312E+03  0.00000000000E+00 0. -1.
         21    1    1    2  504  501 -0.78505833725E+01 -0.28693790252E+02 -0.94329657279E+01  0.31208109535E+02  0.00000000000E+00 0.  1.
</event>
<event>
 4    1  0.3080871E+006  0.3352940E+02  0.7546771E-02  0.1391207E+00
         21   -1    0    0  504  501  0.00000000000E+00  0.00000000000E+00  0.65742980436E+02  0.65742980436E+02  0.00000000000E+00 0. -1.
         21   -1    0    0  503  502 -0.00000000000E+00 -0.00000000000E+00 -0.19334849357E+02  0.19334849357E+02  0.00000000000E+00 0. -1.
         21    1    1    2  503  501 -0.28747891861E+02  0.17256282344E+02  0.37665689988E+02  0.50427420805E+02  0.00000000000E+00 0. -1.
         21    1    1    2  504  502  0.28747891861E+02 -0.17256282344E+02  0.87424410908E+01  0.34650408987E+02  0.00000000000E+00 0. -1.
</event>
<event>
 4    1  0.3080871E+006  0.2678171E+02  0.7546771E-02  0.1449813E+00
         21   -1    0    0  503  501  0.00000000000E+00  0.00000000000E+00  0.21340764034E+02  0.21340764034E+02  0.00000000000E+00 0.  1.
         21   -1    0    0  504  502 -0.00000000000E+00 -0.00000000000E+00 -0.76036738887E+02  0.76036738887E+02  0.00000000000E+00 0. -1.
         21    1    1    2  503  502 -0.22766790226E+02  0.14104369362E+02 -0.63717498901E+02  0.69117144317E+02  0.00000000000E+00 0. -1.
         21    1    1    2  504  501  0.22766790226E+02 -0.14104369362E+02  0.90215240485E+01  0.28260358604E+02  0.00000000000E+00 0.  1.
</event>
<event>
 4    1  0.3080871E+006  0.2049805E+02  0.7546771E-02  0.1526553E+00
         21   -1    0    0  503  501  0.00000000000E+00  0.00000000000E+00  0.28060373437E+03  0.28060373437E+03  0.00000000000E+00 0. -1.
         21   -1    0    0  504  502 -0.00000000000E+00 -0.00000000000E+00 -0.79165499972E+01  0.79165499972E+01  0.00000000000E+00 0.  1.
         21    1    1    2  503  502 -0.14575881064E+02 -0.14412279994E+02  0.64409900399E+01  0.21486192686E+02  0.00000000000E+00 0.  1.
         21    1    1    2  504  501  0.14575881064E+02  0.14412279994E+02  0.26624619433E+03  0.26703409168E+03  0.00000000000E+00 0. -1.
</event>
<event>
 4    1  0.3080871E+006  0.2099008E+02  0.7546771E-02  0.1519406E+00
         21   -1    0    0  503  501  0.00000000000E+00  0.00000000000E+00  0.12318536396E+03  0.12318536396E+03  0.00000000000E+00 0. -1.
         21   -1    0    0  504  502 -0.00000000000E+00 -0.00000000000E+00 -0.29342067622E+02  0.29342067622E+02  0.00000000000E+00 0. -1.
         21    1    1    2  503  502 -0.16270819231E+02  0.13260608281E+02 -0.24543075804E+02  0.32294672322E+02  0.00000000000E+00 0. -1.
         21    1    1    2  504  501  0.16270819231E+02 -0.13260608281E+02  0.11838637214E+03  0.12023275926E+03  0.00000000000E+00 0. -1.
</event>
<event>
 4    1  0.3080871E+006  0.2144652E+02  0.7546771E-02  0.1512984E+00
         21   -1    0    0  502  501  0.00000000000E+00  0.00000000000E+00  0.58446200723E+02  0.58446200723E+02  0.00000000000E+00 0. -1.
         21   -1    0    0  504  502 -0.00000000000E+00 -0.00000000000E+00 -0.71736912127E+02  0.71736912127E+02  0.00000000000E+00 0. -1.
         21    1    1    2  503  501  0.21264204388E+02  0.27904998347E+01  0.54772173677E+02  0.58821291102E+02  0.00000000000E+00 0. -1.
         21    1    1    2  504  503 -0.21264204388E+02 -0.27904998347E+01 -0.68062885081E+02  0.71361821748E+02  0.00000000000E+00 0. -1.
</event>
<event>
 4    1  0.3080871E+006  0.2008681E+02  0.7546771E-02  0.1532713E+00
         21   -1    0    0  503  501  0.00000000000E+00  0.00000000000E+00  0.15901410103E+03  0.15901410103E+03  0.00000000000E+00 0.  1.
         21   -1    0    0  501  502 -0.00000000000E+00 -0.00000000000E+00 -0.86255994157E+02  0.86255994157E+02  0.00000000000E+00 0.  1.
         21    1    1    2  503  504 -0.71058646945E+01  0.18787938616E+02  0.15719686490E+03  0.15847502732E+03  0.00000000000E+00 0.  1.
         21    1    1    2  504  502  0.71058646945E+01 -0.18787938616E+02 -0.84438758021E+02  0.86795067871E+02  0.00000000000E+00 0.  1.
</event>
<event>
 4    1  0.3080871E+006  0.2285368E+02  0.7546771E-02  0.1494344E+00
         21   -1    0    0  503  501  0.00000000000E+00  0.00000000000E+00  0.14110154867E+03  0.14110154867E+03  0.00000000000E+00 0.  1.
         21   -1    0    0  504  502 -0.00000000000E+00 -0.00000000000E+00 -0.21851699156E+02  0.21851699156E+02  0.00000000000E+00 0.  1.
         21    1    1    2  503  502 -0.16432082406E+02 -0.15883238564E+02 -0.14630954246E+02  0.27135869649E+02  0.00000000000E+00 0.  1.
         21    1    1    2  504  501  0.16432082406E+02  0.15883238564E+02  0.13388080376E+03  0.13581737818E+03  0.00000000000E+00 0.  1.
</event>
<event>
 4    1  0.3080871E+006  0.2208799E+02  0.7546771E-02  0.1504279E+00
         21   -1    0    0  503  501  0.00000000000E+00  0.00000000000E+00  0.12327681570E+01  0.12327681570E+01  0.00000000000E+00 0.  1.
         21   -1    0    0  504  502 -0.00000000000E+00 -0.00000000000E+00 -0.50076048945E+03  0.50076048945E+03  0.00000000000E+00 0.  1.
         21    1    1    2  503  502  0.45175913822E+01  0.21621075027E+02 -0.13482950140E+03  0.13662676884E+03  0.00000000000E+00 0.  1.
         21    1    1    2  504  501 -0.45175913822E+01 -0.21621075027E+02 -0.36469821989E+03  0.36536648876E+03  0.00000000000E+00 0.  1.
</event>
<event>
 4    1  0.3080871E+006  0.4175733E+02  0.7546771E-02  0.1338485E+00
         21   -1    0    0  503  501  0.00000000000E+00  0.00000000000E+00  0.18884338888E+03  0.18884338888E+03  0.00000000000E+00 0.  1.
         21   -1    0    0  504  502 -0.00000000000E+00 -0.00000000000E+00 -0.14339644943E+02  0.14339644943E+02  0.00000000000E+00 0.  1.
         21    1    1    2  503  502 -0.13037359838E+02  0.39669912186E+02  0.14787484562E+03  0.15365755644E+03  0.00000000000E+00 0.  1.
         21    1    1    2  504  501  0.13037359838E+02 -0.39669912186E+02  0.26628898317E+02  0.49525477382E+02  0.00000000000E+00 0.  1.
</event>
<event>
 4    1  0.3080871E+006  0.2430084E+02  0.7546771E-02  0.1476779E+00
         21   -1    0    0  503  501  0.00000000000E+00  0.00000000000E+00  0.14942562911E+03  0.14942562911E+03  0.00000000000E+00 0.  1.
         21   -1    0    0  504  502 -0.00000000000E+00 -0.00000000000E+00 -0.45231953974E+02  0.45231953974E+02  0.00000000000E+00 0. -1.
         21    1    1    2  503  502 -0.12836944478E+02 -0.20633561986E+02 -0.40882880648E+02  0.47559867051E+02  0.00000000000E+00 0. -1.
         21    1    1    2  504  501  0.12836944478E+02  0.20633561986E+02  0.14507655578E+03  0.14709771603E+03  0.00000000000E+00 0.  1.
</event>
<event>
 4    1  0.3080871E+006  0.3419436E+02  0.7546771E-02  0.1386317E+00
         21   -1    0    0  504  501  0.00000000000E+00  0.00000000000E+00  0.38506440786E+01  0.38506440786E+01  0.00000000000E+00 0.  1.
         21   -1    0    0  501  502 -0.00000000000E+00 -0.00000000000E+00 -0.59220983283E+03  0.59220983283E+03  0.00000000000E+00 0.  1.
         21    1    1    2  503  502 -0.33960627466E+02 -0.39912288700E+01 -0.50221597028E+03  0.50337871919E+03  0.00000000000E+00 0.  1.
         21    1    1    2  504  503  0.33960627466E+02  0.39912288700E+01 -0.86143218467E+02  0.92681757717E+02  0.00000000000E+00 0.  1.
</event>
<event>
 4    1  0.3080871E+006  0.2071298E+02  0.7546771E-02  0.1523403E+00
         21   -1    0    0  503  501  0.00000000000E+00  0.00000000000E+00  0.86229372545E+02  0.86229372545E+02  0.00000000000E+00 0.  1.
         21   -1    0    0  504  502 -0.00000000000E+00 -0.00000000000E+00 -0.55482579746E+01  0.55482579746E+01  0.00000000000E+00 0.  1.
         21    1    1    2  503  502  0.11380677180E+02 -0.17306286414E+02  0.25595571966E+02  0.32926595129E+02  0.00000000000E+00 0.  1.
         21    1    1    2  504  501 -0.11380677180E+02  0.17306286414E+02  0.55085542604E+02  0.58851035391E+02  0.00000000000E+00 0.  1.
</event>
<event>
 4    1  0.3080871E+006  0.2008357E+02  0.7546771E-02  0.1532762E+00
         21   -1    0    0  503  501  0.00000000000E+00  0.00000000000E+00  0.42545712714E+03  0.42545712714E+03  0.00000000000E+00 0.  1.
         21   -1    0    0  504  502 -0.00000000000E+00 -0.00000000000E+00 -0.10761705626E+02  0.10761705626E+02  0.00000000000E+00 0. -1.
         21    1    1    2  503  502  0.16597347840E+02 -0.11308306472E+02 -0.93322599090E+00  0.20105239649E+02  0.00000000000E+00 0. -1.
         21    1    1    2  504  501 -0.16597347840E+02  0.11308306472E+02  0.41562864750E+03  0.41611359312E+03  0.00000000000E+00 0.  1.
</event>
<event>
 4    1  0.3080871E+006  0.3386423E+02  0.7546771E-02  0.1388729E+00
         21   -1    0    0  503  501  0.00000000000E+00  0.00000000000E+00  0.35322858180E+02  0.35322858180E+02  0.00000000000E+00 0.  1.
         21   -1    0    0  504  502 -0.00000000000E+00 -0.00000000000E+00 -0.32599187313E+02  0.32599187313E+02  0.00000000000E+00 0.  1.
         21    1    1    2  503  502  0.19861959816E+02 -0.27427879616E+02  0.35339378534E+01  0.34048123952E+02  0.00000000000E+00 0.  1.
         21    1    1    2  504  501 -0.19861959816E+02  0.27427879616E+02 -0.81026698563E+00  0.33873921540E+02  0.00000000000E+00 0.  1.
</event>
<event>
 4    1  0.3080871E+006  0.2256315E+02  0.7546771E-02  0.1498058E+00
         21   -1    0    0  504  501  0.00000000000E+00  0.00000000000E+00  0.18886695260E+02  0.18886695260E+02  0.00000000000E+00 0.  1.
         21   -1    0    0  503  502 -0.00000000000E+00 -0.00000000000E+00 -0.43408656559E+02  0.43408656559E+02  0.00000000000E+00 0.  1.
         21    1    1    2  503  501  0.20064320134E+02 -0.10320787273E+02 -0.31437305991E+02  0.38696250469E+02  0.00000000000E+00 0.  1.
         21    1    1    2  504  502 -0.20064320134E+02  0.10320787273E+02  0.69153446911E+01  0.23599101351E+02  0.00000000000E+00 0.  1.
</event>
<event>
 4    1  0.3080871E+006  0.2029853E+02  0.7546771E-02  0.1529520E+00
         21   -1    0    0  502  501  0.00000000000E+00  0.00000000000E+00  0.25630840041E+03  0.25630840041E+03  0.00000000000E+00 0. -1.
         21   -1    0    0  503  502 -0.00000000000E+00 -0.00000000000E+00 -0.11567943016E+02  0.11567943016E+02  0.00000000000E+00 0. -1.
         21    1    1    2  503  504  0.16751121097E+02  0.11464304716E+02 -0.19135311136E+01  0.20388524762E+02  0.00000000000E+00 0. -1.
         21    1    1    2  504  501 -0.16751121097E+02 -0.11464304716E+02  0.24665398851E+03  0.24748781867E+03  0.00000000000E+00 0. -1.
</event>
<event>
 4    1  0.3080871E+006  0.6125461E+02  0.7546771E-02  0.1255628E+00
         21   -1    0    0  504  501  0.00000000000E+00  0.00000000000E+00  0.49902739201E+03  0.49902739201E+03  0.00000000000E+00 0.  1.
         21   -1    0    0  501  502 -0.00000000000E+00 -0.00000000000E+00 -0.10238975857E+02  0.10238975857E+02  0.00000000000E+00 0. -1.
         21    1    1    2  503  502  0.24305093627E+02 -0.56226241923E+02  0.11315043093E+03  0.12866680954E+03  0.00000000000E+00 0. -1.
         21    1    1    2  504  503 -0.24305093627E+02  0.56226241923E+02  0.37563798523E+03  0.38059955833E+03  0.00000000000E+00 0.  1.
</event>
<event>
 4    1  0.3080871E+006  0.2388876E+02  0.7546771E-02  0.1481630E+00
         21   -1    0    0  504  501  0.00000000000E+00  0.00000000000E+00  0.48341828869E+01  0.48341828869E+01  0.00000000000E+00 0. -1.
         21   -1    0    0  503  502 -0.00000000000E+00 -0.00000000000E+00 -0.27054151213E+03  0.27054151213E+03  0.00000000000E+00 0. -1.
         21    1    1    2  503  501  0.13662362084E+02 -0.19596238742E+02 -0.23622550524E+03  0.23743033091E+03  0.00000000000E+00 0. -1.
         21    1    1    2  504  502 -0.13662362084E+02  0.19596238742E+02 -0.29481824001E+02  0.37945364104E+02  0.00000000000E+00 0. -1.
</event>
<event>
 4    1  0.3080871E+006  0.2545697E+02  0.7546771E-02  0.1463756E+00
         21   -1    0    0  504  501  0.00000000000E+00  0.00000000000E+00  0.55064522928E+02  0.55064522928E+02  0.00000000000E+00 0. -1.
         21   -1    0    0  501  502 -0.00000000000E+00 -0.00000000000E+00 -0.12193169611E+02  0.12193169611E+02  0.00000000000E+00 0. -1.
         21    1    1    2  503  502 -0.18423884537E+02 -0.17567517421E+02  0.15163804147E+02  0.29631033495E+02  0.00000000000E+00 0. -1.
         21    1    1    2  504  503  0.18423884537E+02  0.17567517421E+02  0.27707549170E+02  0.37626659044E+02  0.00000000000E+00 0. -1.
</event>
<event>
 4    1  0.3080871E+006  0.2077474E+02  0.7546771E-02  0.1522505E+00
         21   -1    0    0  504  501  0.00000000000E+00  0.00000000000E+00  0.47375335310E+02  0.47375335310E+02  0.00000000000E+00 0.  1.
         21   -1    0    0  503  502 -0.00000000000E+00 -0.00000000000E+00 -0.21882982909E+03  0.21882982909E+03  0.00000000000E+00 0. -1.
         21    1    1    2  503  501 -0.26213897017E+01 -0.20608686444E+02 -0.21602981059E+03  0.21702642398E+03  0.00000000000E+00 0. -1.
         21    1    1    2  504  502  0.26213897017E+01  0.20608686444E+02  0.44575316810E+02  0.49178740423E+02  0.00000000000E+00 0.  1.
</event>
<event>
 4    1  0.3080871E+006  0.9966203E+02  0.7546771E-02  0.1164395E+00
         21   -1    0    0  503  501  0.00000000000E+00  0.00000000000E+00  0.59584272493E+01  0.59584272493E+01  0.00000000000E+00 0.  1.
         21   -1    0    0  504  502 -0.00000000000E+00 -0.00000000000E+00 -0.19373852601E+04  0.19373852601E+04  0.00000000000E+00 0. -1.
         21    1    1    2  503  502 -0.93414374920E+02  0.34731460238E+02 -0.13287305976E+04  0.13324629529E+04  0.00000000000E+00 0. -1.
         21    1    1    2  504  501  0.93414374920E+02 -0.34731460238E+02 -0.60269623519E+03  0.61088073442E+03  0.00000000000E+00 0.  1.
</event>
<event>
 4    1  0.3080871E+006  0.2463073E+02  0.7546771E-02  0.1472977E+00
         21   -1    0    0  504  501  0.00000000000E+00  0.00000000000E+00  0.31122496624E+03  0.31122496624E+03  0.00000000000E+00 0.  1.
         21   -1    0    0  501  502 -0.00000000000E+00 -0.00000000000E+00 -0.23279952040E+01  0.23279952040E+01  0.00000000000E+00 0.  1.
         21    1    1    2  503  502 -0.21366847161E+02  0.12252785017E+02  0.91217353588E+02  0.94484276437E+02  0.00000000000E+00 0.  1.
         21    1    1    2  504  503  0.21366847161E+02 -0.12252785017E+02  0.21767961745E+03  0.21906868501E+03  0.00000000000E+00 0.  1.
</event>
<event>
 4    1  0.3080871E+006  0.2149027E+02  0.7546771E-02  0.1512379E+00
         21   -1    0    0  502  501  0.00000000000E+00  0.00000000000E+00  0.19086336665E+02  0.19086336665E+02  0.00000000000E+00 0.  1.
         21   -1    0    0  504  502 -0.00000000000E+00 -0.00000000000E+00 -0.26821945382E+02  0.26821945382E+02  0.00000000000E+00 0.  1.
         21    1    1    2  503  501  0.82841276255E+01 -0.19829396409E+02  0.33130742737E+01  0.21744153090E+02  0.00000000000E+00 0.  1.
         21    1    1    2  504  503 -0.82841276255E+01  0.19829396409E+02 -0.11048682991E+02  0.24164128958E+02  0.00000000000E+00 0.  1.
</event>
<event>
 4    1  0.3080871E+006  0.2153873E+02  0.7546771E-02  0.1511710E+00
         21   -1    0    0  504  501  0.00000000000E+00  0.00000000000E+00  0.28942467855E+02  0.28942467855E+02  0.00000000000E+00 0. -1.
         21   -1    0    0  503  502 -0.00000000000E+00 -0.00000000000E+00 -0.39710550702E+03  0.39710550702E+03  0.00000000000E+00 0.  1.
         21    1    1    2  503  501 -0.19074406727E+02 -0.10004201195E+02 -0.39276192786E+03  0.39335206751E+03  0.00000000000E+00 0.  1.
         21    1    1    2  504  502  0.19074406727E+02  0.10004201195E+02  0.24598888696E+02  0.32695907368E+02  0.00000000000E+00 0. -1.
</event>
<event>
 4    1  0.3080871E+006  0.4467507E+02  0.7546771E-02  0.1323072E+00
         21   -1    0    0  502  501  0.00000000000E+00  0.00000000000E+00  0.25058580142E+03  0.25058580142E+03  0.00000000000E+00 0.  1.
         21   -1    0    0  504  502 -0.00000000000E+00 -0.00000000000E+00 -0.83879832101E+01  0.83879832101E+01  0.00000000000E+00 0. -1.
         21    1    1    2  503  501  0.27289138223E+02  0.35371809484E+02  0.15018390911E+03  0.15668780593E+03  0.00000000000E+00 0.  1.
         21    1    1    2  504  503 -0.27289138223E+02 -0.35371809484E+02  0.92013909103E+02  0.10228597870E+03  0.00000000000E+00 0. -1.
</event>
<event>
 4    1  0.3080871E+006  0.2379644E+02  0.7546771E-02  0.1482732E+00
         21   -1    0    0  504  501  0.00000000000E+00  0.00000000000E+00  0.10820359078E+02  0.10820359078E+02  0.00000000000E+00 0.  1.
         21   -1    0    0  501  502 -0.00000000000E+00 -0.00000000000E+00 -0.87377396457E+02  0.87377396457E+02  0.00000000000E+00 0.  1.
         21    1    1    2  503  502 -0.10488684229E+01 -0.23773315138E+02 -0.69372495957E+02  0.73340397005E+02  0.00000000000E+00 0.  1.
         21    1    1    2  504  503  0.10488684229E+01  0.23773315138E+02 -0.71845414225E+01  0.24857358530E+02  0.00000000000E+00 0.  1.
</event>
<event>
 4    1  0.3080871E+006  0.2951539E+02  0.7546771E-02  0.1423855E+00
         21   -1    0    0  503  501  0.00000000000E+00  0.00000000000E+00  0.60396768551E+02  0.60396768551E+02  0.00000000000E+00 0.  1.
         21   -1    0    0  504  502 -0.00000000000E+00 -0.00000000000E+00 -0.19556985852E+03  0.19556985852E+03  0.00000000000E+00 0. -1.
         21    1    1    2  503  502  0.26183078400E+02  0.13623677120E+02  0.55586786928E+02  0.62936865618E+02  0.00000000000E+00 0.  1.
         21    1    1    2  504  501 -0.26183078400E+02 -0.13623677120E+02 -0.19075987690E+03  0.19302976146E+03  0.00000000000E+00 0. -1.
</event>
<event>
 4    1  0.3080871E+006  0.2255897E+02  0.7546771E-02  0.1498112E+00
         21   -1    0    0  504  501  0.00000000000E+00  0.00000000000E+00  0.43323239682E+02  0.43323239682E+02  0.00000000000E+00 0. -1.
         21   -1    0    0  503  502 -0.00000000000E+00 -0.00000000000E+00 -0.12394324016E+02  0.12394324016E+02  0.00000000000E+00 0.  1.
         21    1    1    2  503  501  0.22118099217E+02 -0.44380900727E+01  0.90965348722E+01  0.24323936835E+02  0.00000000000E+00 0.  1.
         21    1    1    2  504  502 -0.22118099217E+02  0.44380900727E+01  0.21832380793E+02  0.31393626863E+02  0.00000000000E+00 0. -1.
</event>
<event>
 4    1  0.3080871E+006  0.2050234E+02  0.7546771E-02  0.1526490E+00
         21   -1    0    0  504  501  0.00000000000E+00  0.00000000000E+00  0.24255150719E+02  0.24255150719E+02  0.00000000000E+00 0. -1.
         21   -1    0    0  503  502 -0.00000000000E+00 -0.00000000000E+00 -0.20116423504E+02  0.20116423504E+02  0.00000000000E+00 0. -1.
         21    1    1    2  503  501 -0.20345804784E+02 -0.25286526963E+01  0.10326127423E+02  0.22955930918E+02  0.00000000000E+00 0. -1.
         21    1    1    2  504  502  0.20345804784E+02  0.25286526963E+01 -0.61874002079E+01  0.21415643304E+02  0.00000000000E+00 0. -1.
</event>
<event>
 4    1  0.3080871E+006  0.6584753E+02  0.7546771E-02  0.1241162E+00
         21   -1    0    0  503  501  0.00000000000E+00  0.00000000000E+00  0.82779824236E+02  0.82779824236E+02  0.00000000000E+00 0. -1.
         21   -1    0    0  501  502 -0.00000000000E+00 -0.00000000000E+00 -0.57864174490E+02  0.57864174490E+02  0.00000000000E+00 0. -1.
         21    1    1    2  503  504  0.63282119085E+02  0.18200826292E+02  0.34109665347E+02  0.74157709941E+02  0.00000000000E+00 0. -1.
         21    1    1    2  504  502 -0.63282119085E+02 -0.18200826292E+02 -0.91940156007E+01  0.66486288785E+02  0.00000000000E+00 0. -1.
</event>
<event>
 4    1  0.3080871E+006  0.5466314E+02  0.7546771E-02  0.1279129E+00
         21   -1    0    0  504  501  0.00000000000E+00  0.00000000000E+00  0.28200355203E+02  0.28200355203E+02  0.00000000000E+00 0. -1.
         21   -1    0    0  501  502 -0.00000000000E+00 -0.00000000000E+00 -0.10740560992E+03  0.10740560992E+03  0.00000000000E+00 0. -1.
         21    1    1    2  503  502  0.44007557982E+02  0.32425201837E+02 -0.31731605769E+02  0.63205645937E+02  0.00000000000E+00 0. -1.
         21    1    1    2  504  503 -0.44007557982E+02 -0.32425201837E+02 -0.47473648948E+02  0.72400319185E+02  0.00000000000E+00 0. -1.
</event>
<event>
 4    1  0.3080871E+006  0.2591331E+02  0.7546771E-02  0.1458840E+00
         21   -1    0    0  504  501  0.00000000000E+00  0.00000000000E+00  0.30383096386E+03  0.30383096386E+03  0.00000000000E+00 0. -1.
         21   -1    0    0  503  502 -0.00000000000E+00 -0.00000000000E+00 -0.44782974201E+02  0.44782974201E+02  0.00000000000E+00 0.  1.
         21    1    1    2  503  501 -0.25904985242E+02  0.65677151074E+00  0.29947538575E+03  0.30059442157E+03  0.00000000000E+00 0. -1.
         21    1    1    2  504  502  0.25904985242E+02 -0.65677151074E+00 -0.40427396092E+02  0.48019516490E+02  0.00000000000E+00 0.  1.
</event>
<event>
 4    1  0.3080871E+006  0.2169507E+02  0.7546771E-02  0.1509568E+00
         21   -1    0    0  502  501  0.00000000000E+00  0.00000000000E+00  0.90121310257E+03  0.90121310257E+03  0.00000000000E+00 0. -1.
         21   -1    0    0  504  502 -0.00000000000E+00 -0.00000000000E+00 -0.19338694751E+01  0.19338694751E+01  0.00000000000E+00 0. -1.
         21    1    1    2  503  501  0.12543608731E+02 -0.17701242572E+02  0.83544712699E+03  0.83572877066E+03  0.00000000000E+00 0. -1.
         21    1    1    2  504  503 -0.12543608731E+02  0.17701242572E+02  0.63832106109E+02  0.67418201392E+02  0.00000000000E+00 0. -1.
</event>
<event>
 4    1  0.3080871E+006  0.2381913E+02  0.7546771E-02  0.1482461E+00
         21   -1    0    0  503  501  0.00000000000E+00  0.00000000000E+00  0.42309021139E+02  0.42309021139E+02  0.00000000000E+00 0.  1.
         21   -1    0    0  501  502 -0.00000000000E+00 -0.00000000000E+00 -0.30064468758E+02  0.30064468758E+02  0.00000000000E+00 0. -1.
         21    1    1    2  503  504 -0.19116476819E+02 -0.14209552139E+02  0.33055734704E+02  0.40743498313E+02  0.00000000000E+00 0.  1.
         21    1    1    2  504  502  0.19116476819E+02  0.14209552139E+02 -0.20811182323E+02  0.31629991584E+02  0.00000000000E+00 0. -1.
</event>
<event>
 4    1  0.3080871E+006  0.4998227E+02  0.7546771E-02  0.1298249E+00
         21   -1    0    0  502  501  0.00000000000E+00  0.00000000000E+00  0.17041117556E+03  0.17041117556E+03  0.00000000000E+00 0. -1.
         21   -1    0    0  503  502 -0.00000000000E+00 -0.00000000000E+00 -0.68471545371E+02  0.68471545371E+02  0.00000000000E+00 0.  1.
         21    1    1    2  503  504  0.43887737597E+02 -0.23918474894E+02 -0.54915913573E+02  0.74256208604E+02  0.00000000000E+00 0.  1.
         21    1    1    2  504  501 -0.43887737597E+02  0.23918474894E+02  0.15685554376E+03  0.16462651233E+03  0.00000000000E+00 0. -1.
</event>
<event>
 4    1  0.3080871E+006  0.2191861E+02  0.7546771E-02  0.1506543E+00
         21   -1    0    0  503  501  0.00000000000E+00  0.00000000000E+00  0.11140250519E+03  0.11140250519E+03  0.00000000000E+00 0.  1.
         21   -1    0    0  504  502 -0.00000000000E+00 -0.00000000000E+00 -0.13124125198E+02  0.13124125198E+02  0.00000000000E+00 0.  1.
         21    1    1    2  503  502 -0.18583460068E+02 -0.11622419198E+02  0.10015732222E+03  0.10252762950E+03  0.00000000000E+00 0.  1.
         21    1    1    2  504  501  0.18583460068E+02  0.11622419198E+02 -0.18789422320E+01  0.21999000887E+02  0.00000000000E+00 0.  1.
</event>
<event>
 4    1  0.3080871E+006  0.2640700E+02  0.7546771E-02  0.1453658E+00
         21   -1    0    0  504  501  0.00000000000E+00  0.00000000000E+00  0.89521205196E+02  0.89521205196E+02  0.00000000000E+00 0. -1.
         21   -1    0    0  503  502 -0.00000000000E+00 -0.00000000000E+00 -0.94004583625E+01  0.94004583625E+01  0.00000000000E+00 0. -1.
         21    1    1    2  503  501  0.60868712533E+01  0.25695903171E+02  0.60535331200E+02  0.66044346956E+02  0.00000000000E+00 0. -1.
         21    1    1    2  504  502 -0.60868712533E+01 -0.25695903171E+02  0.19585415634E+02  0.32877316602E+02  0.00000000000E+00 0. -1.
</event>
<event>
 4    1  0.3080871E+006  0.3246294E+02  0.7546771E-02  0.1399334E+00
         21   -1    0    0  504  501  0.00000000000E+00  0.00000000000E+00  0.70264626184E+01  0.70264626184E+01  0.00000000000E+00 0. -1.
         21   -1    0    0  501  502 -0.00000000000E+00 -0.00000000000E+00 -0.11991478361E+04  0.11991478361E+04  0.00000000000E+00 0.  1.
         21    1    1    2  503  502 -0.58925889660E+01 -0.31923658874E+02 -0.11601732734E+04  0.11606273592E+04  0.00000000000E+00 0.  1.
         21    1    1    2  504  503  0.58925889660E+01  0.31923658874E+02 -0.31948100065E+02  0.45546939506E+02  0.00000000000E+00 0. -1.
</event>
<event>
 4    1  0.3080871E+006  0.3319322E+02  0.7546771E-02  0.1393730E+00
         21   -1    0    0  502  501  0.00000000000E+00  0.00000000000E+00  0.11932150400E+04  0.11932150400E+04  0.00000000000E+00 0.  1.
         21   -1    0    0  503  502 -0.00000000000E+00 -0.00000000000E+00 -0.10702836314E+03  0.10702836314E+03  0.00000000000E+00 0.  1.
         21    1    1    2  503  504  0.20361492874E+02  0.26214495109E+02 -0.10421784945E+03  0.10937618703E+03  0.00000000000E+00 0.  1.
         21    1    1    2  504  501 -0.20361492874E+02 -0.26214495109E+02  0.11904045263E+04  0.11908672161E+04  0.00000000000E+00 0.  1.
</event>
<event>
 4    1  0.3080871E+006  0.2752244E+02  0.7546771E-02  0.1442430E+00
         21   -1    0    0  502  501  0.00000000000E+00  0.00000000000E+00  0.12418024747E+02  0.12418024747E+02  0.00000000000E+00 0. -1.
         21   -1    0    0  503  502 -0.00000000000E+00 -0.00000000000E+00 -0.13365654226E+04  0.13365654226E+04  0.00000000000E+00 0. -1.
         21    1    1    2  503  504  0.57349214928E+01 -0.26918304979E+02 -0.13209943054E+04  0.13212809842E+04  0.00000000000E+00 0. -1.
         21    1    1    2  504  501 -0.57349214928E+01  0.26918304979E+02 -0.31530924214E+01  0.27702463055E+02  0.00000000000E+00 0. -1.
</event>
<event>
 4    1  0.3080871E+006  0.2119949E+02  0.7546771E-02  0.1516436E+00
         21   -1    0    0  502  501  0.00000000000E+00  0.00000000000E+00  0.40780581318E+03  0.40780581318E+03  0.00000000000E+00 0.  1.
         21   -1    0    0  504  502 -0.00000000000E+00 -0.00000000000E+00 -0.41418866841E+02  0.41418866841E+02  0.00000000000E+00 0.  1.
         21    1    1    2  503  501 -0.37565068567E+01  0.20864012179E+02  0.40479751495E+03  0.40535224985E+03  0.00000000000E+00 0.  1.
         21    1    1    2  504  503  0.37565068567E+01 -0.20864012179E+02 -0.38410568612E+02  0.43872430170E+02  0.00000000000E+00 0.  1.
</event>
<event>
 4    1  0.3080871E+006  0.3303348E+02  0.7546771E-02  0.1394942E+00
         21   -1    0    0  502  501  0.00000000000E+00  0.00000000000E+00  0.10255471587E+02  0.10255471587E+02  0.00000000000E+00 0. -1.
         21   -1    0    0  503  502 -0.00000000000E+00 -0.00000000000E+00 -0.64555554710E+03  0.64555554710E+03  0.00000000000E+00 0.  1.
         21    1    1    2  503  504  0.19168447996E+02  0.26903191680E+02 -0.61731626981E+03  0.61819947274E+03  0.00000000000E+00 0.  1.
         21    1    1    2  504  501 -0.19168447996E+02 -0.26903191680E+02 -0.17983805703E+02  0.37611545949E+02  0.00000000000E+00 0. -1.
</event>
<event>
 4    1  0.3080871E+006  0.2252897E+02  0.7546771E-02  0.1498499E+00
         21   -1    0    0  502  501  0.00000000000E+00  0.00000000000E+00  0.27787063874E+03  0.27787063874E+03  0.00000000000E+00 0. -1.
         21   -1    0    0  504  502 -0.00000000000E+00 -0.00000000000E+00 -0.33545976981E+01  0.33545976981E+01  0.00000000000E+00 0. -1.
         21    1    1    2  503  501 -0.86397648372E+01  0.20806459900E+02  0.23215831716E+03  0.23324887682E+03  0.00000000000E+00 0. -1.
         21    1    1    2  504  503  0.86397648372E+01 -0.20806459900E+02  0.42357723882E+02  0.47976359621E+02  0.00000000000E+00 0. -1.
</event>
<event>
 4    1  0.3080871E+006  0.2081404E+02  0.7546771E-02  0.1521937E+00
         21   -1    0    0  503  501  0.00000000000E+00  0.00000000000E+00  0.93759618852E+02  0.93759618852E+02  0.00000000000E+00 0. -1.
         21   -1    0    0  504  502 -0.00000000000E+00 -0.00000000000E+00 -0.18123041081E+02  0.18123041081E+02  0.00000000000E+00 0. -1.
         21    1    1    2  503  502  0.17977666653E+02  0.10489412685E+02 -0.10467978886E+02  0.23298129941E+02  0.00000000000E+00 0. -1.
         21    1    1    2  504  501 -0.17977666653E+02 -0.10489412685E+02  0.86104556658E+02  0.88584529992E+02  0.00000000000E+00 0. -1.
</event>
<event>
 4    1  0.3080871E+006  0.4191950E+02  0.7546771E-02  0.1337590E+00
         21   -1    0    0  503  501  0.00000000000E+00  0.00000000000E+00  0.66329427997E+03  0.66329427997E+03  0.00000000000E+00 0.  1.
         21   -1    0    0  504  502 -0.00000000000E+00 -0.00000000000E+00 -0.15165937483E+02  0.15165937483E+02  0.00000000000E+00 0. -1.
         21    1    1    2  503  502  0.41918536983E+02  0.28425367333E+00  0.63224395561E+03  0.63363212036E+03  0.00000000000E+00 0.  1.
         21    1    1    2  504  501 -0.41918536983E+02 -0.28425367333E+00  0.15884386879E+02  0.44828097099E+02  0.00000000000E+00 0. -1.
</event>
<event>
 4    1  0.3080871E+006  0.2530205E+02  0.7546771E-02  0.1465453E+00
         21   -1    0    0  503  501  0.00000000000E+00  0.00000000000E+00  0.10396129654E+04  0.10396129654E+04  0.00000000000E+00 0.  1.
         21   -1    0    0  504  502 -0.00000000000E+00 -0.00000000000E+00 -0.66719359694E+02  0.66719359694E+02  0.00000000000E+00 0.  1.
         21    1    1    2  503  502  0.17569701354E+01  0.25240970741E+02 -0.64160662250E+02  0.68969443440E+02  0.00000000000E+00 0.  1.
         21    1    1    2  504  501 -0.17569701354E+01 -0.25240970741E+02  0.10370542679E+04  0.10373628816E+04  0.00000000000E+00 0.  1.
</event>
<event>
 4    1  0.3080871E+006  0.2003403E+02  0.7546771E-02  0.1533516E+00
         21   -1    0    0  503  501  0.00000000000E+00  0.00000000000E+00  0.12559490810E+02  0.12559490810E+02  0.00000000000E+00 0.  1.
         21   -1    0    0  501  502 -0.00000000000E+00 -0.00000000000E+00 -0.96718518629E+02  0.96718518629E+02  0.00000000000E+00 0.  1.
         21    1    1    2  503  504 -0.18115291470E+02  0.85556210138E+01  0.26307051182E+01  0.20206015080E+02  0.00000000000E+00 0.  1.
         21    1    1    2  504  502  0.18115291470E+02 -0.85556210138E+01 -0.86789732937E+02  0.89071994359E+02  0.00000000000E+00 0.  1.
</event>
<event>
 4    1  0.3080871E+006  0.3564282E+02  0.7546771E-02  0.1376099E+00
         21   -1    0    0  504  501  0.00000000000E+00  0.00000000000E+00  0.65727979092E+02  0.65727979092E+02  0.00000000000E+00 0. -1.
         21   -1    0    0  503  502 -0.00000000000E+00 -0.00000000000E+00 -0.20126255610E+02  0.20126255610E+02  0.00000000000E+00 0. -1.
         21    1    1    2  503  501 -0.27440876146E+02  0.22746628195E+02  0.31348316012E+02  0.47467122250E+02  0.00000000000E+00 0. -1.
         21    1    1    2  504  502  0.27440876146E+02 -0.22746628195E+02  0.14253407470E+02  0.38387112452E+02  0.00000000000E+00 0. -1.
</event>
<event>
 4    1  0.3080871E+006  0.2156397E+02  0.7546771E-02  0.1511363E+00
         21   -1    0    0  503  501  0.00000000000E+00  0.00000000000E+00  0.92331291491E+01  0.92331291491E+01  0.00000000000E+00 0. -1.
         21   -1    0    0  504  502 -0.00000000000E+00 -0.00000000000E+00 -0.13706538477E+03  0.13706538477E+03  0.00000000000E+00 0. -1.
         21    1    1    2  503  502 -0.36665049740E+01  0.21249974771E+02 -0.57376348655E+01  0.22314236271E+02  0.00000000000E+00 0. -1.
         21    1    1    2  504  501  0.36665049740E+01 -0.21249974771E+02 -0.12209462075E+03  0.12398427765E+03  0.00000000000E+00 0. -1.
</event>
<event>
 4    1  0.3080871E+006  0.3122967E+02  0.7546771E-02  0.1409203E+00
         21   -1    0    0  503  501  0.00000000000E+00  0.00000000000E+00  0.46668338746E+02  0.46668338746E+02  0.00000000000E+00 0. -1.
         21   -1    0    0  501  502 -0.00000000000E+00 -0.00000000000E+00 -0.47226115092E+03  0.47226115092E+03  0.00000000000E+00 0. -1.
         21    1    1    2  503  504 -0.15510854379E+02 -0.27105454765E+02  0.40862500892E+02  0.51429916009E+02  0.00000000000E+00 0. -1.
         21    1    1    2  504  502  0.15510854379E+02  0.27105454765E+02 -0.46645531306E+03  0.46749957366E+03  0.00000000000E+00 0. -1.
</event>
<event>
 4    1  0.3080871E+006  0.2766631E+02  0.7546771E-02  0.1441027E+00
         21   -1    0    0  503  501  0.00000000000E+00  0.00000000000E+00  0.28731484390E+02  0.28731484390E+02  0.00000000000E+00 0.  1.
         21   -1    0    0  504  502 -0.00000000000E+00 -0.00000000000E+00 -0.46700604520E+02  0.46700604520E+02  0.00000000000E+00 0.  1.
         21    1    1    2  503  502  0.19544275514E+02  0.19581774348E+02  0.15734398619E+02  0.31827596389E+02  0.00000000000E+00 0.  1.
         21    1    1    2  504  501 -0.19544275514E+02 -0.19581774348E+02 -0.33703518749E+02  0.43604492521E+02  0.00000000000E+00 0.  1.
</event>
<event>
 4    1  0.3080871E+006  0.2687921E+02  0.7546771E-02  0.1448825E+00
         21   -1    0    0  503  501  0.00000000000E+00  0.00000000000E+00  0.82284448520E+02  0.82284448520E+02  0.00000000000E+00 0.  1.
         21   -1    0    0  504  502 -0.00000000000E+00 -0.00000000000E+00 -0.17100655723E+04  0.17100655723E+04  0.00000000000E+00 0.  1.
         21    1    1    2  503  502  0.25981926028E+02 -0.68870547588E+01 -0.17077618830E+04  0.17079734017E+04  0.00000000000E+00 0.  1.
         21    1    1    2  504  501 -0.25981926028E+02  0.68870547588E+01  0.79980759219E+02  0.84376619087E+02  0.00000000000E+00 0.  1.
</event>
<event>
 4    1  0.3080871E+006  0.5609669E+02  0.7546771E-02  0.1273704E+00
         21   -1    0    0  504  501  0.00000000000E+00  0.00000000000E+00  0.41385474291E+03  0.41385474291E+03  0.00000000000E+00 0.  1.
         21   -1    0    0  501  502 -0.00000000000E+00 -0.00000000000E+00 -0.90066938690E+01  0.90066938690E+01  0.00000000000E+00 0.  1.
         21    1    1    2  503  502 -0.55530902829E+02  0.79471667673E+01  0.11897734930E+03  0.13153877100E+03  0.00000000000E+00 0.  1.
         21    1    1    2  504  503  0.55530902829E+02 -0.79471667673E+01  0.28587069974E+03  0.29132266578E+03  0.00000000000E+00 0.  1.
</event>
<event>
 4    1  0.3080871E+006  0.2346600E+02  0.7546771E-02  0.1486728E+00
         21   -1    0    0  503  501  0.00000000000E+00  0.00000000000E+00  0.79747607260E+02  0.79747607260E+02  0.00000000000E+00 0. -1.
         21   -1    0    0  501  502 -0.00000000000E+00 -0.00000000000E+00 -0.95394111638E+01  0.95394111638E+01  0.00000000000E+00 0. -1.
         21    1    1    2  503  504 -0.21006803059E+02 -0.10457892847E+02  0.58564928598E+02  0.63091236787E+02  0.00000000000E+00 0. -1.
         21    1    1    2  504  502  0.21006803059E+02  0.10457892847E+02  0.11643267498E+02  0.26195781638E+02  0.00000000000E+00 0. -1.
</event>
<event>
 4    1  0.3080871E+006  0.2993554E+02  0.7546771E-02  0.1420158E+00
         21   -1    0    0  503  501  0.00000000000E+00  0.00000000000E+00  0.10418324037E+03  0.10418324037E+03  0.00000000000E+00 0.  1.
         21   -1    0    0  504  502 -0.00000000000E+00 -0.00000000000E+00 -0.57789009290E+02  0.57789009290E+02  0.00000000000E+00 0. -1.
         21    1    1    2  503  502 -0.16100320319E+02  0.25237202340E+02 -0.51519160314E+02  0.59584902247E+02  0.00000000000E+00 0. -1.
         21    1    1    2  504  501  0.16100320319E+02 -0.25237202340E+02  0.97913391396E+02  0.10238734742E+03  0.00000000000E+00 0.  1.
</event>
<event>
 4    1  0.3080871E+006  0.2304561E+02  0.7546771E-02  0.1491926E+00
         21   -1    0    0  504  501  0.00000000000E+00  0.00000000000E+00  0.67476812641E+02  0.67476812641E+02  0.00000000000E+00 0.  1.
         21   -1    0    0  503  502 -0.00000000000E+00 -0.00000000000E+00 -0.67252033017E+02  0.67252033017E+02  0.00000000000E+00 0.  1.
         21    1    1    2  503  501 -0.14459547866E+02  0.17944959620E+02  0.63412183528E+02  0.67470031274E+02  0.00000000000E+00 0.  1.
         21    1    1    2  504  502  0.14459547866E+02 -0.17944959620E+02 -0.63187403904E+02  0.67258814385E+02  0.00000000000E+00 0.  1.
</event>
<event>
 4    1  0.3080871E+006  0.7222113E+02  0.7546771E-02  0.1223158E+00
         21   -1    0    0  504  501  0.00000000000E+00  0.00000000000E+00  0.11869879030E+02  0.11869879030E+02  0.00000000000E+00 0.  1.
         21   -1    0    0  503  502 -0.00000000000E+00 -0.00000000000E+00 -0.45059971519E+03  0.45059971519E+03  0.00000000000E+00 0.  1.
         21    1    1    2  503  501 -0.57598250502E+02 -0.43569873365E+02 -0.18294626573E+03  0.19668560819E+03  0.00000000000E+00 0.  1.
         21    1    1    2  504  502  0.57598250502E+02  0.43569873365E+02 -0.25578357043E+03  0.26578398603E+03  0.00000000000E+00 0.  1.
</event>
<event>
 4    1  0.3080871E+006  0.3881667E+02  0.7546771E-02  0.1355563E+00
         21   -1    0    0  503  501  0.00000000000E+00  0.00000000000E+00  0.17122654281E+03  0.17122654281E+03  0.00000000000E+00 0.  1.
         21   -1    0    0  504  502 -0.00000000000E+00 -0.00000000000E+00 -0.17572114364E+02  0.17572114364E+02  0.00000000000E+00 0.  1.
         21    1    1    2  503  502  0.37003101888E+02 -0.11726238334E+02  0.14352595259E+03  0.14868232337E+03  0.00000000000E+00 0.  1.
         21    1    1    2  504  501 -0.37003101888E+02  0.11726238334E+02  0.10128475852E+02  0.40116333804E+02  0.00000000000E+00 0.  1.
</event>
<event>
 4    1  0.3080871E+006  0.2884968E+02  0.7546771E-02  0.1429863E+00
         21   -1    0    0  503  501  0.00000000000E+00  0.00000000000E+00  0.13935517346E+03  0.13935517346E+03  0.00000000000E+00 0.  1.
         21   -1    0    0  504  502 -0.00000000000E+00 -0.00000000000E+00 -0.72691429967E+01  0.72691429967E+01  0.00000000000E+00 0. -1.
         21    1    1    2  503  502  0.97163139787E+01  0.27164260019E+02  0.97005698616E+02  0.10120478913E+03  0.00000000000E+00 0.  1.
         21    1    1    2  504  501 -0.97163139787E+01 -0.27164260019E+02  0.35080331847E+02  0.45419527323E+02  0.00000000000E+00 0. -1.
</event>
<event>
 4    1  0.3080871E+006  0.2380897E+02  0.7546771E-02  0.1482582E+00
         21   -1    0    0  504  501  0.00000000000E+00  0.00000000000E+00  0.92734761397E+01  0.92734761397E+01  0.00000000000E+00 0.  1.
         21   -1    0    0  503  502 -0.00000000000E+00 -0.00000000000E+00 -0.70294429574E+02  0.70294429574E+02  0.00000000000E+00 0.  1.
         21    1    1    2  503  501 -0.20840362039E+02 -0.11512878155E+02 -0.44877032987E+02  0.50801723820E+02  0.00000000000E+00 0.  1.
         21    1    1    2  504  502  0.20840362039E+02  0.11512878155E+02 -0.16143920447E+02  0.28766181894E+02  0.00000000000E+00 0.  1.
</event>
<event>
 4    1  0.3080871E+006  0.2018130E+02  0.7546771E-02  0.1531282E+00
         21   -1    0    0  503  501  0.00000000000E+00  0.00000000000E+00  0.40866646242E+01  0.40866646242E+01  0.00000000000E+00 0.  1.
         21   -1    0    0  504  502 -0.00000000000E+00 -0.00000000000E+00 -0.16239845956E+03  0.16239845956E+03  0.00000000000E+00 0.  1.
         21    1    1    2  503  502  0.81251004846E+01  0.18473434808E+02 -0.27417307422E+02  0.34043997970E+02  0.00000000000E+00 0.  1.
         21    1    1    2  504  501 -0.81251004846E+01 -0.18473434808E+02 -0.13089448751E+03  0.13244112621E+03  0.00000000000E+00 0.  1.
</event>
<event>
 4    1  0.3080871E+006  0.2176857E+02  0.7546771E-02  0.1508569E+00
         21   -1    0    0  503  501  0.00000000000E+00  0.00000000000E+00  0.89861223840E+01  0.89861223840E+01  0.00000000000E+00 0. -1.
         21   -1    0    0  504  502 -0.00000000000E+00 -0.00000000000E+00 -0.61152111807E+02  0.61152111807E+02  0.00000000000E+00 0. -1.
         21    1    1    2  503  502  0.21676300542E+02 -0.20021325063E+01 -0.39094780059E+02  0.44746758181E+02  0.00000000000E+00 0. -1.
         21    1    1    2  504  501 -0.21676300542E+02  0.20021325063E+01 -0.13071209364E+02  0.25391476011E+02  0.00000000000E+00 0. -1.
</event>
<event>
 4    1  0.3080871E+006  0.2256424E+02  0.7546771E-02  0.1498044E+00
         21   -1    0    0  504  501  0.00000000000E+00  0.00000000000E+00  0.64753810433E+01  0.64753810433E+01  0.00000000000E+00 0. -1.
         21   -1    0    0  503  502 -0.00000000000E+00 -0.00000000000E+00 -0.46024129211E+03  0.46024129211E+03  0.00000000000E+00 0.  1.
         21    1    1    2  503  501  0.22453174702E+02 -0.22360481983E+01 -0.14391050185E+02  0.26762796774E+02  0.00000000000E+00 0. -1.
         21    1    1    2  504  502 -0.22453174702E+02  0.22360481983E+01 -0.43937486089E+03  0.43995387638E+03  0.00000000000E+00 0.  1.
</event>
<event>
 4    1  0.3080871E+006  0.2706675E+02  0.7546771E-02  0.1446939E+00
         21   -1    0    0  502  501  0.00000000000E+00  0.00000000000E+00  0.31473496698E+03  0.31473496698E+03  0.00000000000E+00 0.  1.
         21   -1    0    0  504  502 -0.00000000000E+00 -0.00000000000E+00 -0.47294380841E+01  0.47294380841E+01  0.00000000000E+00 0.  1.
         21    1    1    2  503  501 -0.29587464145E+01  0.26904553986E+02  0.26883109108E+03  0.27019023805E+03  0.00000000000E+00 0.  1.
         21    1    1    2  504  503  0.29587464145E+01 -0.26904553986E+02  0.41174437812E+02  0.49274167011E+02  0.00000000000E+00 0.  1.
</event>
<event>
 4    1  0.3080871E+006  0.2418852E+02  0.7546771E-02  0.1478090E+00
         21   -1    0    0  503  501  0.00000000000E+00  0.00000000000E+00  0.65942735183E+02  0.65942735183E+02  0.00000000000E+00 0. -1.
         21   -1    0    0  501  502 -0.00000000000E+00 -0.00000000000E+00 -0.88801438006E+01  0.88801438006E+01  0.00000000000E+00 0.  1.
         21    1    1    2  503  504  0.19616709523E+02  0.14151646142E+02  0.29620752288E+02  0.38242297880E+02  0.00000000000E+00 0.  1.
         21    1    1    2  504  502 -0.19616709523E+02 -0.14151646142E+02  0.27441839095E+02  0.36580581104E+02  0.00000000000E+00 0. -1.
</event>
<event>
 4    1  0.3080871E+006  0.2171690E+02  0.7546771E-02  0.1509271E+00
         21   -1    0    0  503  501  0.00000000000E+00  0.00000000000E+00  0.12498105998E+03  0.12498105998E+03  0.00000000000E+00 0. -1.
         21   -1    0    0  504  502 -0.00000000000E+00 -0.00000000000E+00 -0.30279170085E+02  0.30279170085E+02  0.00000000000E+00 0.  1.
         21    1    1    2  503  502  0.65551912869E+00  0.21707002618E+02 -0.25280910588E+02  0.33327887844E+02  0.00000000000E+00 0.  1.
         21    1    1    2  504  501 -0.65551912869E+00 -0.21707002618E+02  0.11998280048E+03  0.12193234222E+03  0.00000000000E+00 0. -1.
</event>
<event>
 4    1  0.3080871E+006  0.2120195E+02  0.7546771E-02  0.1516401E+00
         21   -1    0    0  503  501  0.00000000000E+00  0.00000000000E+00  0.68030699176E+02  0.68030699176E+02  0.00000000000E+00 0.  1.
         21   -1    0    0  501  502 -0.00000000000E+00 -0.00000000000E+00 -0.66744598394E+01  0.66744598394E+01  0.00000000000E+00 0.  1.
         21    1    1    2  503  504  0.18180272238E+02 -0.10908728346E+02  0.26940873545E+02  0.34283134631E+02  0.00000000000E+00 0.  1.
         21    1    1    2  504  502 -0.18180272238E+02  0.10908728346E+02  0.34415365791E+02  0.40422024384E+02  0.00000000000E+00 0.  1.
</event>
<event>
 4    1  0.3080871E+006  0.2254346E+02  0.7546771E-02  0.1498312E+00
         21   -1    0    0  504  501  0.00000000000E+00  0.00000000000E+00  0.16293279785E+02  0.16293279785E+02  0.00000000000E+00 0. -1.
         21   -1    0    0  503  502 -0.00000000000E+00 -0.00000000000E+00 -0.25160071906E+03  0.25160071906E+03  0.00000000000E+00 0.  1.
         21    1    1    2  503  501 -0.17272905140E+02 -0.14486351920E+02  0.77158634834E+01  0.23827341296E+02  0.00000000000E+00 0. -1.
         21    1    1    2  504  502  0.17272905140E+02  0.14486351920E+02 -0.24302330276E+03  0.24406665755E+03  0.00000000000E+00 0.  1.
</event>
<event>
 4    1  0.3080871E+006  0.3527273E+02  0.7546771E-02  0.1378656E+00
         21   -1    0    0  503  501  0.00000000000E+00  0.00000000000E+00  0.18642847688E+03  0.18642847688E+03  0.00000000000E+00 0. -1.
         21   -1    0    0  504  502 -0.00000000000E+00 -0.00000000000E+00 -0.67590855198E+01  0.67590855198E+01  0.00000000000E+00 0. -1.
         21    1    1    2  503  502  0.43552038443E+01 -0.35002827037E+02  0.10069207303E+03  0.10669142080E+03  0.00000000000E+00 0. -1.
         21    1    1    2  504  501 -0.43552038443E+01  0.35002827037E+02  0.78977318329E+02  0.86496141600E+02  0.00000000000E+00 0. -1.
</event>
<event>
 4    1  0.3080871E+006  0.2064480E+02  0.7546771E-02  0.1524397E+00
         21   -1    0    0  502  501  0.00000000000E+00  0.00000000000E+00  0.20695248067E+02  0.20695248067E+02  0.00000000000E+00 0.  1.
         21   -1    0    0  504  502 -0.00000000000E+00 -0.00000000000E+00 -0.15874368925E+03  0.15874368925E+03  0.00000000000E+00 0.  1.
         21    1    1    2  503  501  0.19643720678E+02 -0.63507607087E+01  0.14673312186E+02  0.25328126938E+02  0.00000000000E+00 0.  1.
         21    1    1    2  504  503 -0.19643720678E+02  0.63507607087E+01 -0.15272175337E+03  0.15411081038E+03  0.00000000000E+00 0.  1.
</event>
<event>
 4    1  0.3080871E+006  0.2345048E+02  0.7546771E-02  0.1486918E+00
         21   -1    0    0  504  501  0.00000000000E+00  0.00000000000E+00  0.26557572531E+02  0.26557572531E+02  0.00000000000E+00 0. -1.
         21   -1    0    0  503  502 -0.00000000000E+00 -0.00000000000E+00 -0.49761469488E+02  0.49761469488E+02  0.00000000000E+00 0. -1.
         21    1    1    2  503  501 -0.22768915108E+02 -0.56126024096E+01 -0.40760342088E+02  0.47024783765E+02  0.00000000000E+00 0. -1.
         21    1    1    2  504  502  0.22768915108E+02  0.56126024096E+01  0.17556445131E+02  0.29294258254E+02  0.00000000000E+00 0. -1.
</event>
<event>
 4    1  0.3080871E+006  0.2128138E+02  0.7546771E-02  0.1515285E+00
         21   -1    0    0  502  501  0.00000000000E+00  0.00000000000E+00  0.88617340060E+01  0.88617340060E+01  0.00000000000E+00 0. -1.
         21   -1    0    0  503  502 -0.00000000000E+00 -0.00000000000E+00 -0.25375793914E+03  0.25375793914E+03  0.00000000000E+00 0. -1.
         21    1    1    2  503  504 -0.21280180018E+02 -0.22597983907E+00 -0.23979231994E+03  0.24073482056E+03  0.00000000000E+00 0. -1.
         21    1    1    2  504  501  0.21280180018E+02  0.22597983907E+00 -0.51038851907E+01  0.21884852581E+02  0.00000000000E+00 0. -1.
</event>
<event>
 4    1  0.3080871E+006  0.2163816E+02  0.7546771E-02  0.1510345E+00
         21   -1    0    0  504  501  0.00000000000E+00  0.00000000000E+00  0.96211190324E+01  0.96211190324E+01  0.00000000000E+00 0.  1.
         21   -1    0    0  503  502 -0.00000000000E+00 -0.00000000000E+00 -0.83319047467E+02  0.83319047467E+02  0.00000000000E+00 0.  1.
         21    1    1    2  503  501 -0.20326444884E+02 -0.74192765004E+01 -0.66818458431E+02  0.70234723695E+02  0.00000000000E+00 0.  1.
         21    1    1    2  504  502  0.20326444884E+02  0.74192765004E+01 -0.68794700036E+01  0.22705442804E+02  0.00000000000E+00 0.  1.
</event>
<event>
 4    1  0.3080871E+006  0.2873156E+02  0.7546771E-02  0.1430949E+00
         21   -1    0    0  504  501  0.00000000000E+00  0.00000000000E+00  0.16488287094E+03  0.16488287094E+03  0.00000000000E+00 0. -1.
         21   -1    0    0  503  502 -0.00000000000E+00 -0.00000000000E+00 -0.94475137594E+02  0.94475137594E+02  0.00000000000E+00 0. -1.
         21    1    1    2  503  501 -0.25864223919E+02  0.12511766346E+02 -0.90992273831E+02  0.95420628132E+02  0.00000000000E+00 0. -1.
         21    1    1    2  504  502  0.25864223919E+02 -0.12511766346E+02  0.16140000717E+03  0.16393738040E+03  0.00000000000E+00 0. -1.
</event>
<event>
 4    1  0.3080871E+006  0.2312137E+02  0.7546771E-02  0.1490980E+00
         21   -1    0    0  503  501  0.00000000000E+00  0.00000000000E+00  0.40079683063E+03  0.40079683063E+03  0.00000000000E+00 0. -1.
         21   -1    0    0  504  502 -0.00000000000E+00 -0.00000000000E+00 -0.56953502551E+01  0.56953502551E+01  0.00000000000E+00 0. -1.
         21    1    1    2  503  502  0.16028469461E+02  0.16663908955E+02  0.19689804221E+02  0.30369163393E+02  0.00000000000E+00 0. -1.
         21    1    1    2  504  501 -0.16028469461E+02 -0.16663908955E+02  0.37541167616E+03  0.37612301750E+03  0.00000000000E+00 0. -1.
</event>
<event>
 4    1  0.3080871E+006  0.2689220E+02  0.7546771E-02  0.1448694E+00
         21   -1    0    0  503  501  0.00000000000E+00  0.00000000000E+00  0.39969142562E+03  0.39969142562E+03  0.00000000000E+00 0.  1.
         21   -1    0    0  501  502 -0.00000000000E+00 -0.00000000000E+00 -0.19878494027E+01  0.19878494027E+01  0.00000000000E+00 0.  1.
         21    1    1    2  503  504 -0.17643900246E+02 -0.20294912123E+02  0.25903130534E+03  0.26042351626E+03  0.00000000000E+00 0.  1.
         21    1    1    2  504  502  0.17643900246E+02  0.20294912123E+02  0.13867227087E+03  0.14125575876E+03  0.00000000000E+00 0.  1.
</event>
<event>
 4    1  0.3080871E+006  0.2754096E+02  0.7546771E-02  0.1442248E+00
         21   -1    0    0  504  501  0.00000000000E+00  0.00000000000E+00  0.17897738589E+02  0.17897738589E+02  0.00000000000E+00 0.  1.
         21   -1    0    0  503  502 -0.00000000000E+00 -0.00000000000E+00 -0.19963450309E+03  0.19963450309E+03  0.00000000000E+00 0.  1.
         21    1    1    2  503  501 -0.24225118795E+02 -0.13101458176E+02 -0.18740176049E+03  0.18941468903E+03  0.00000000000E+00 0.  1.
         21    1    1    2  504  502  0.24225118795E+02  0.13101458176E+02  0.56649959926E+01  0.28117552642E+02  0.00000000000E+00 0.  1.
</event>
<event>
 4    1  0.3080871E+006  0.2350348E+02  0.7546771E-02  0.1486271E+00
         21   -1    0    0  504  501  0.00000000000E+00  0.00000000000E+00  0.10499794694E+03  0.10499794694E+03  0.00000000000E+00 0.  1.
         21   -1    0    0  501  502 -0.00000000000E+00 -0.00000000000E+00 -0.15301821899E+02  0.15301821899E+02  0.00000000000E+00 0. -1.
         21    1    1    2  503  502  0.14560785756E+02  0.18449849107E+02 -0.38760457834E+01  0.23820939209E+02  0.00000000000E+00 0. -1.
         21    1    1    2  504  503 -0.14560785756E+02 -0.18449849107E+02  0.93572170829E+02  0.96478829634E+02  0.00000000000E+00 0.  1.
</event>
<event>
 4    1  0.3080871E+006  0.2541787E+02  0.7546771E-02  0.1464183E+00
         21   -1    0    0  504  501  0.00000000000E+00  0.00000000000E+00  0.62432592531E+03  0.62432592531E+03  0.00000000000E+00 0.  1.
         21   -1    0    0  501  502 -0.00000000000E+00 -0.00000000000E+00 -0.11394736391E+02  0.11394736391E+02  0.00000000000E+00 0.  1.
         21    1    1    2  503  502  0.65814632673E+01 -0.24551018582E+02  0.33821550350E+01  0.25641902130E+02  0.00000000000E+00 0.  1.
         21    1    1    2  504  503 -0.65814632673E+01  0.24551018582E+02  0.60954903389E+03  0.61007875957E+03  0.00000000000E+00 0.  1.
</event>
<event>
 4    1  0.3080871E+006  0.2125620E+02  0.7546771E-02  0.1515638E+00
         21   -1    0    0  504  501  0.00000000000E+00  0.00000000000E+00  0.15817865827E+02  0.15817865827E+02  0.00000000000E+00 0.  1.
         21   -1    0    0  501  502 -0.00000000000E+00 -0.00000000000E+00 -0.89593145621E+02  0.89593145621E+02  0.00000000000E+00 0. -1.
         21    1    1    2  503  502  0.15488646169E+02 -0.14557749713E+02 -0.80387331331E+02  0.83150161006E+02  0.00000000000E+00 0. -1.
         21    1    1    2  504  503 -0.15488646169E+02  0.14557749713E+02  0.66120515363E+01  0.22260850442E+02  0.00000000000E+00 0.  1.
</event>
<event>
 4    1  0.3080871E+006  0.2024321E+02  0.7546771E-02  0.1530350E+00
         21   -1    0    0  502  501  0.00000000000E+00  0.00000000000E+00  0.37746679927E+03  0.37746679927E+03  0.00000000000E+00 0. -1.
         21   -1    0    0  504  502 -0.00000000000E+00 -0.00000000000E+00 -0.47482377726E+02  0.47482377726E+02  0.00000000000E+00 0. -1.
         21    1    1    2  503  501 -0.38292382377E+01 -0.19877733989E+02  0.37502377200E+03  0.37556972314E+03  0.00000000000E+00 0. -1.
         21    1    1    2  504  503  0.38292382377E+01  0.19877733989E+02 -0.45039350454E+02  0.49379453858E+02  0.00000000000E+00 0. -1.
</event>
<event>
 4    1  0.3080871E+006  0.3406257E+02  0.7546771E-02  0.1387276E+00
         21   -1    0    0  503  501  0.00000000000E+00  0.00000000000E+00  0.10994900854E+02  0.10994900854E+02  0.00000000000E+00 0. -1.
         21   -1    0    0  504  502 -0.00000000000E+00 -0.00000000000E+00 -0.22840463108E+03  0.22840463108E+03  0.00000000000E+00 0.  1.
         21    1    1    2  503  502  0.33039449262E+02 -0.82857243455E+01 -0.19650139253E+03  0.19943183222E+03  0.00000000000E+00 0.  1.
         21    1    1    2  504  501 -0.33039449262E+02  0.82857243455E+01 -0.20908337698E+02  0.39967699718E+02  0.00000000000E+00 0. -1.
</event>
<event>
 4    1  0.3080871E+006  0.2009119E+02  0.7546771E-02  0.1532646E+00
         21   -1    0    0  502  501  0.00000000000E+00  0.00000000000E+00  0.74117414770E+02  0.74117414770E+02  0.00000000000E+00 0.  1.
         21   -1    0    0  503  502 -0.00000000000E+00 -0.00000000000E+00 -0.67216302572E+01  0.67216302572E+01  0.00000000000E+00 0.  1.
         21    1    1    2  503  504 -0.75496164014E+01 -0.18618787437E+02  0.16090804239E+02  0.25740433844E+02  0.00000000000E+00 0.  1.
         21    1    1    2  504  501  0.75496164014E+01  0.18618787437E+02  0.51304980273E+02  0.55098611183E+02  0.00000000000E+00 0.  1.
</event>
<event>
 4    1  0.3080871E+006  0.2591712E+02  0.7546771E-02  0.1458800E+00
         21   -1    0    0  504  501  0.00000000000E+00  0.00000000000E+00  0.10332674578E+04  0.10332674578E+04  0.00000000000E+00 0. -1.
         21   -1    0    0  501  502 -0.00000000000E+00 -0.00000000000E+00 -0.51457846107E+01  0.51457846107E+01  0.00000000000E+00 0. -1.
         21    1    1    2  503  502  0.92879517689E+01 -0.24195682041E+02  0.28756976938E+02  0.38712540605E+02  0.00000000000E+00 0. -1.
         21    1    1    2  504  503 -0.92879517689E+01  0.24195682041E+02  0.99936469621E+03  0.99970070176E+03  0.00000000000E+00 0. -1.
</event>
<event>
 4    1  0.3080871E+006  0.3612906E+02  0.7546771E-02  0.1372795E+00
         21   -1    0    0  503  501  0.00000000000E+00  0.00000000000E+00  0.24128182886E+01  0.24128182886E+01  0.00000000000E+00 0. -1.
         21   -1    0    0  504  502 -0.00000000000E+00 -0.00000000000E+00 -0.57408694854E+03  0.57408694854E+03  0.00000000000E+00 0.  1.
         21    1    1    2  503  502  0.35300925410E+02  0.76911336633E+01 -0.35504866485E+03  0.35688214201E+03  0.00000000000E+00 0.  1.
         21    1    1    2  504  501 -0.35300925410E+02 -0.76911336633E+01 -0.21662546540E+03  0.21961762482E+03  0.00000000000E+00 0. -1.
</event>
<event>
 4    1  0.3080871E+006  0.2032941E+02  0.7546771E-02  0.1529058E+00
         21   -1    0    0  502  501  0.00000000000E+00  0.00000000000E+00  0.10517609397E+03  0.10517609397E+03  0.00000000000E+00 0.  1.
         21   -1    0    0  503  502 -0.00000000000E+00 -0.00000000000E+00 -0.28085466698E+02  0.28085466698E+02  0.00000000000E+00 0. -1.
         21    1    1    2  503  504  0.19917598665E+02 -0.40711195351E+01 -0.23248740737E+02  0.30883469635E+02  0.00000000000E+00 0. -1.
         21    1    1    2  504  501 -0.19917598665E+02  0.40711195351E+01  0.10033936801E+03  0.10237809103E+03  0.00000000000E+00 0.  1.
</event>
<event>
 4    1  0.3080871E+006  0.2140826E+02  0.7546771E-02  0.1513515E+00
         21   -1    0    0  504  501  0.00000000000E+00  0.00000000000E+00  0.91672038571E+01  0.91672038571E+01  0.00000000000E+00 0.  1.
         21   -1    0    0  503  502 -0.00000000000E+00 -0.00000000000E+00 -0.52065269818E+02  0.52065269818E+02  0.00000000000E+00 0.  1.
         21    1    1    2  503  501 -0.14418807997E+02 -0.15824392546E+02 -0.27554261171E+02  0.34893419612E+02  0.00000000000E+00 0.  1.
         21    1    1    2  504  502  0.14418807997E+02  0.15824392546E+02 -0.15343804790E+02  0.26339054063E+02  0.00000000000E+00 0.  1.
</event>
<event>
 4    1  0.3080871E+006  0.2290062E+02  0.7546771E-02  0.1493750E+00
         21   -1    0    0  504  501  0.00000000000E+00  0.00000000000E+00  0.52716776770E+02  0.52716776770E+02  0.00000000000E+00 0.  1.
         21   -1    0    0  503  502 -0.00000000000E+00 -0.00000000000E+00 -0.11127079309E+02  0.11127079309E+02  0.00000000000E+00 0.  1.
         21    1    1    2  503  501 -0.21790635518E+02 -0.70431925811E+01  0.10404536819E+02  0.25153384353E+02  0.00000000000E+00 0.  1.
         21    1    1    2  504  502  0.21790635518E+02  0.70431925811E+01  0.31185160643E+02  0.38690471726E+02  0.00000000000E+00 0.  1.
</event>
<event>
 4    1  0.3080871E+006  0.2346402E+02  0.7546771E-02  0.1486752E+00
         21   -1    0    0  502  501  0.00000000000E+00  0.00000000000E+00  0.43970000507E+03  0.43970000507E+03  0.00000000000E+00 0.  1.
         21   -1    0    0  503  502 -0.00000000000E+00 -0.00000000000E+00 -0.76966474741E+01  0.76966474741E+01  0.00000000000E+00 0. -1.
         21    1    1    2  503  504  0.22952130844E+02 -0.48744001190E+01  0.11306669906E+02  0.26046129678E+02  0.00000000000E+00 0. -1.
         21    1    1    2  504  501 -0.22952130844E+02  0.48744001190E+01  0.42069668769E+03  0.42135052286E+03  0.00000000000E+00 0.  1.
</event>
<event>
 4    1  0.3080871E+006  0.2294908E+02  0.7546771E-02  0.1493139E+00
         21   -1    0    0  503  501  0.00000000000E+00  0.00000000000E+00  0.15188411982E+03  0.15188411982E+03  0.00000000000E+00 0. -1.
         21   -1    0    0  504  502 -0.00000000000E+00 -0.00000000000E+00 -0.41933543007E+01  0.41933543007E+01  0.00000000000E+00 0. -1.
         21    1    1    2  503  502  0.22751450825E+02 -0.30053120026E+01  0.41377812471E+02  0.47315787849E+02  0.00000000000E+00 0. -1.
         21    1    1    2  504  501 -0.22751450825E+02  0.30053120026E+01  0.10631295304E+03  0.10876168627E+03  0.00000000000E+00 0. -1.
</event>
<event>
 4    1  0.3080871E+006  0.2551518E+02  0.7546771E-02  0.1463122E+00
         21   -1    0    0  503  501  0.00000000000E+00  0.00000000000E+00  0.11658636389E+03  0.11658636389E+03  0.00000000000E+00 0. -1.
         21   -1    0    0  504  502 -0.00000000000E+00 -0.00000000000E+00 -0.86487765230E+01  0.86487765230E+01  0.00000000000E+00 0.  1.
         21    1    1    2  503  502  0.25409393766E+02  0.23209875131E+01  0.16694053751E+02  0.30491239811E+02  0.00000000000E+00 0.  1.
         21    1    1    2  504  501 -0.25409393766E+02 -0.23209875131E+01  0.91243533617E+02  0.94743900603E+02  0.00000000000E+00 0. -1.
</event>
<event>
 4    1  0.3080871E+006  0.3090603E+02  0.7546771E-02  0.1411883E+00
         21   -1    0    0  502  501  0.00000000000E+00  0.00000000000E+00  0.89396701745E+02  0.89396701745E+02  0.00000000000E+00 0. -1.
         21   -1    0    0  504  502 -0.00000000000E+00 -0.00000000000E+00 -0.17600983989E+02  0.17600983989E+02  0.00000000000E+00 0. -1.
         21    1    1    2  503  501 -0.52693549602E+01 -0.30453518977E+02  0.69433778733E+02  0.76001529912E+02  0.00000000000E+00 0. -1.
         21    1    1    2  504  503  0.52693549602E+01  0.30453518977E+02  0.23619390237E+01  0.30996155822E+02  0.00000000000E+00 0. -1.
</event>
<event>
 4    1  0.3080871E+006  0.2161835E+02  0.7546771E-02  0.1510617E+00
         21   -1    0    0  503  501  0.00000000000E+00  0.00000000000E+00  0.29285723737E+03  0.29285723737E+03  0.00000000000E+00 0. -1.
         21   -1    0    0  504  502 -0.00000000000E+00 -0.00000000000E+00 -0.80199965404E+01  0.80199965404E+01  0.00000000000E+00 0.  1.
         21    1    1    2  503  502 -0.20274402922E+02 -0.75034357607E+01  0.27706055325E+03  0.27790268643E+03  0.00000000000E+00 0. -1.
         21    1    1    2  504  501  0.20274402922E+02  0.75034357607E+01  0.77766875856E+01  0.22974547479E+02  0.00000000000E+00 0.  1.
</event>
<event>
 4    1  0.3080871E+006  0.3186827E+02  0.7546771E-02  0.1404027E+00
         21   -1    0    0  502  501  0.00000000000E+00  0.00000000000E+00  0.12580636773E+03  0.12580636773E+03  0.00000000000E+00 0.  1.
         21   -1    0    0  504  502 -0.00000000000E+00 -0.00000000000E+00 -0.15522738438E+02  0.15522738438E+02  0.00000000000E+00 0. -1.
         21    1    1    2  503  501  0.10042877520E+02  0.30244455649E+02  0.10409705130E+03  0.10886589262E+03  0.00000000000E+00 0.  1.
         21    1    1    2  504  503 -0.10042877520E+02 -0.30244455649E+02  0.61865779864E+01  0.32463213544E+02  0.00000000000E+00 0. -1.
</event>
<event>
 4    1  0.3080871E+006  0.2551702E+02  0.7546771E-02  0.1463102E+00
         21   -1    0    0  504  501  0.00000000000E+00  0.00000000000E+00  0.13646458199E+03  0.13646458199E+03  0.00000000000E+00 0. -1.
         21   -1    0    0  503  502 -0.00000000000E+00 -0.00000000000E+00 -0.15773249058E+02  0.15773249058E+02  0.00000000000E+00 0. -1.
         21    1    1    2  503  501  0.24291144646E+02 -0.78140010840E+01  0.12391770289E+03  0.12651764861E+03  0.00000000000E+00 0. -1.
         21    1    1    2  504  502 -0.24291144646E+02  0.78140010840E+01 -0.32263699612E+01  0.25720182431E+02  0.00000000000E+00 0. -1.
</event>
<event>
 4    1  0.3080871E+006  0.2161276E+02  0.7546771E-02  0.1510693E+00
         21   -1    0    0  504  501  0.00000000000E+00  0.00000000000E+00  0.13748476361E+03  0.13748476361E+03  0.00000000000E+00 0. -1.
         21   -1    0    0  503  502 -0.00000000000E+00 -0.00000000000E+00 -0.43772175863E+02  0.43772175863E+02  0.00000000000E+00 0.  1.
         21    1    1    2  503  501  0.21549358426E+02 -0.16542053939E+01 -0.40183897897E+02  0.45627370013E+02  0.00000000000E+00 0.  1.
         21    1    1    2  504  502 -0.21549358426E+02  0.16542053939E+01  0.13389648564E+03  0.13562956946E+03  0.00000000000E+00 0. -1.
</event>
<event>
 4    1  0.3080871E+006  0.2500365E+02  0.7546771E-02  0.1468763E+00
         21   -1    0    0  503  501  0.00000000000E+00  0.00000000000E+00  0.37581690833E+02  0.37581690833E+02  0.00000000000E+00 0.  1.
         21   -1    0    0  501  502 -0.00000000000E+00 -0.00000000000E+00 -0.57623409992E+02  0.57623409992E+02  0.00000000000E+00 0.  1.
         21    1    1    2  503  504 -0.19988559707E+02 -0.15021322607E+02  0.30126750503E+02  0.39151037635E+02  0.00000000000E+00 0.  1.
         21    1    1    2  504  502  0.19988559707E+02  0.15021322607E+02 -0.50168469661E+02  0.56054063190E+02  0.00000000000E+00 0.  1.
</event>
<event>
 4    1  0.3080871E+006  0.2329018E+02  0.7546771E-02  0.1488886E+00
         21   -1    0    0  504  501  0.00000000000E+00  0.00000000000E+00  0.39921654378E+02  0.39921654378E+02  0.00000000000E+00 0. -1.
         21   -1    0    0  503  502 -0.00000000000E+00 -0.00000000000E+00 -0.16953301708E+02  0.16953301708E+02  0.00000000000E+00 0. -1.
         21    1    1    2  503  501 -0.22328319897E+01  0.23182899465E+02 -0.11868918066E+01  0.23320400478E+02  0.00000000000E+00 0. -1.
         21    1    1    2  504  502  0.22328319897E+01 -0.23182899465E+02  0.24155244477E+02  0.33554555608E+02  0.00000000000E+00 0. -1.
</event>
<event>
 4    1  0.3080871E+006  0.2685457E+02  0.7546771E-02  0.1449075E+00
         21   -1    0    0  503  501  0.00000000000E+00  0.00000000000E+00  0.10839533081E+03  0.10839533081E+03  0.00000000000E+00 0. -1.
         21   -1    0    0  504  502 -0.00000000000E+00 -0.00000000000E+00 -0.99438415164E+01  0.99438415164E+01  0.00000000000E+00 0.  1.
         21    1    1    2  503  502  0.16806473729E+02  0.20945410732E+02  0.83263946284E+02  0.87487442189E+02  0.00000000000E+00 0. -1.
         21    1    1    2  504  501 -0.16806473729E+02 -0.20945410732E+02  0.15187543013E+02  0.30851730141E+02  0.00000000000E+00 0.  1.
</event>
<event>
 4    1  0.3080871E+006  0.2381897E+02  0.7546771E-02  0.1482463E+00
         21   -1    0    0  503  501  0.00000000000E+00  0.00000000000E+00  0.53250592685E+01  0.53250592685E+01  0.00000000000E+00 0. -1.
         21   -1    0    0  504  502 -0.00000000000E+00 -0.00000000000E+00 -0.17867646648E+03  0.17867646648E+03  0.00000000000E+00 0.  1.
         21    1    1    2  503  502  0.16309389783E+02 -0.17359358622E+02 -0.28219775203E+02  0.36928298626E+02  0.00000000000E+00 0. -1.
         21    1    1    2  504  501 -0.16309389783E+02  0.17359358622E+02 -0.14513163201E+03  0.14707322712E+03  0.00000000000E+00 0.  1.
</event>
<event>
 4    1  0.3080871E+006  0.2367896E+02  0.7546771E-02  0.1484144E+00
         21   -1    0    0  504  501  0.00000000000E+00  0.00000000000E+00  0.61090812653E+00  0.61090812653E+00  0.00000000000E+00 0.  1.
         21   -1    0    0  503  502 -0.00000000000E+00 -0.00000000000E+00 -0.10573769786E+04  0.10573769786E+04  0.00000000000E+00 0.  1.
         21    1    1    2  503  501 -0.90994103763E+01  0.21860780372E+02 -0.33618947689E+03  0.33702233956E+03  0.00000000000E+00 0.  1.
         21    1    1    2  504  502  0.90994103763E+01 -0.21860780372E+02 -0.72057659357E+03  0.72096554716E+03  0.00000000000E+00 0.  1.
</event>
<event>
 4    1  0.3080871E+006  0.2662347E+02  0.7546771E-02  0.1451428E+00
         21   -1    0    0  504  501  0.00000000000E+00  0.00000000000E+00  0.22824125737E+01  0.22824125737E+01  0.00000000000E+00 0.  1.
         21   -1    0    0  503  502 -0.00000000000E+00 -0.00000000000E+00 -0.34867672635E+03  0.34867672635E+03  0.00000000000E+00 0.  1.
         21    1    1    2  503  501  0.26592551533E+02  0.12826151012E+01 -0.11517208588E+03  0.11820921396E+03  0.00000000000E+00 0.  1.
         21    1    1    2  504  502 -0.26592551533E+02 -0.12826151012E+01 -0.23122222789E+03  0.23274992496E+03  0.00000000000E+00 0.  1.
</event>
<event>
 4    1  0.3080871E+006  0.2043866E+02  0.7546771E-02  0.1527432E+00
         21   -1    0    0  502  501  0.00000000000E+00  0.00000000000E+00  0.28525308222E+02  0.28525308222E+02  0.00000000000E+00 0.  1.
         21   -1    0    0  504  502 -0.00000000000E+00 -0.00000000000E+00 -0.18622418607E+02  0.18622418607E+02  0.00000000000E+00 0. -1.
         21    1    1    2  503  501  0.12418179237E+02 -0.16233536555E+02  0.15846781382E+02  0.25862315535E+02  0.00000000000E+00 0.  1.
         21    1    1    2  504  503 -0.12418179237E+02  0.16233536555E+02 -0.59438917671E+01  0.21285411295E+02  0.00000000000E+00 0. -1.
</event>
<event>
 4    1  0.3080871E+006  0.3748469E+02  0.7546771E-02  0.1363891E+00
         21   -1    0    0  504  501  0.00000000000E+00  0.00000000000E+00  0.18365485081E+04  0.18365485081E+04  0.00000000000E+00 0. -1.
         21   -1    0    0  503  502 -0.00000000000E+00 -0.00000000000E+00 -0.10190406697E+01  0.10190406697E+01  0.00000000000E+00 0. -1.
         21    1    1    2  503  501 -0.21265925004E+02 -0.30868466198E+02  0.45909191225E+03  0.46061967572E+03  0.00000000000E+00 0. -1.
         21    1    1    2  504  502  0.21265925004E+02  0.30868466198E+02  0.13764375552E+04  0.13769478731E+04  0.00000000000E+00 0. -1.
</event>
<event>
 4    1  0.3080871E+006  0.2652173E+02  0.7546771E-02  0.1452472E+00
         21   -1    0    0  502  501  0.00000000000E+00  0.00000000000E+00  0.37845535162E+01  0.37845535162E+01  0.00000000000E+00 0. -1.
         21   -1    0    0  503  502 -0.00000000000E+00 -0.00000000000E+00 -0.52815029070E+03  0.52815029070E+03  0.00000000000E+00 0. -1.
         21    1    1    2  503  504 -0.24975059846E+02  0.89246043539E+01 -0.47629739082E+03  0.47703522583E+03  0.00000000000E+00 0. -1.
         21    1    1    2  504  501  0.24975059846E+02 -0.89246043539E+01 -0.48068346363E+02  0.54899618389E+02  0.00000000000E+00 0. -1.
</event>
<event>
 4    1  0.3080871E+006  0.2360797E+02  0.7546771E-02  0.1485002E+00
         21   -1    0    0  502  501  0.00000000000E+00  0.00000000000E+00  0.28970385002E+03  0.28970385002E+03  0.00000000000E+00 0. -1.
         21   -1    0    0  504  502 -0.00000000000E+00 -0.00000000000E+00 -0.66034762440E+01  0.66034762440E+01  0.00000000000E+00 0. -1.
         21    1    1    2  503  501 -0.17329923163E+02  0.16031525681E+02  0.26626940564E+03  0.26731392114E+03  0.00000000000E+00 0. -1.
         21    1    1    2  504  503  0.17329923163E+02 -0.16031525681E+02  0.16830968133E+02  0.28993405126E+02  0.00000000000E+00 0. -1.
</event>
<event>
 4    1  0.3080871E+006  0.2011419E+02  0.7546771E-02  0.1532297E+00
         21   -1    0    0  504  501  0.00000000000E+00  0.00000000000E+00  0.31650279552E+01  0.31650279552E+01  0.00000000000E+00 0. -1.
         21   -1    0    0  503  502 -0.00000000000E+00 -0.00000000000E+00 -0.79773100741E+03  0.79773100741E+03  0.00000000000E+00 0.  1.
         21    1    1    2  503  501 -0.20008841639E+02 -0.20559376195E+01 -0.76424721599E+03  0.76451186242E+03  0.00000000000E+00 0.  1.
         21    1    1    2  504  502  0.20008841639E+02  0.20559376195E+01 -0.30318763459E+02  0.36384172946E+02  0.00000000000E+00 0. -1.
</event>
<event>
 4    1  0.3080871E+006  0.2037730E+02  0.7546771E-02  0.1528344E+00
         21   -1    0    0  504  501  0.00000000000E+00  0.00000000000E+00  0.19023976312E+03  0.19023976312E+03  0.00000000000E+00 0. -1.
         21   -1    0    0  503  502 -0.00000000000E+00 -0.00000000000E+00 -0.41379761215E+01  0.41379761215E+01  0.00000000000E+00 0. -1.
         21    1    1    2  503  501  0.17950574573E+02  0.96442316212E+01  0.26243003341E+02  0.33225435369E+02  0.00000000000E+00 0. -1.
         21    1    1    2  504  502 -0.17950574573E+02 -0.96442316212E+01  0.15985878366E+03  0.16115230387E+03  0.00000000000E+00 0. -1.
</event>
<event>
 4    1  0.3080871E+006  0.2424602E+02  0.7546771E-02  0.1477418E+00
         21   -1    0    0  503  501  0.00000000000E+00  0.00000000000E+00  0.60950243819E+02  0.60950243819E+02  0.00000000000E+00 0. -1.
         21   -1    0    0  501  502 -0.00000000000E+00 -0.00000000000E+00 -0.48311007147E+02  0.48311007147E+02  0.00000000000E+00 0. -1.
         21    1    1    2  503  504  0.23811303797E+02  0.45707112002E+01  0.55193561242E+02  0.60284316302E+02  0.00000000000E+00 0. -1.
         21    1    1    2  504  502 -0.23811303797E+02 -0.45707112002E+01 -0.42554324570E+02  0.48976934664E+02  0.00000000000E+00 0. -1.
</event>
<event>
 4    1  0.3080871E+006  0.2102796E+02  0.7546771E-02  0.1518866E+00
         21   -1    0    0  504  501  0.00000000000E+00  0.00000000000E+00  0.86885535191E+03  0.86885535191E+03  0.00000000000E+00 0.  1.
         21   -1    0    0  501  502 -0.00000000000E+00 -0.00000000000E+00 -0.36078845130E+01  0.36078845130E+01  0.00000000000E+00 0. -1.
         21    1    1    2  503  502  0.19558771791E+02  0.77220306104E+01  0.28327836596E+02  0.35279478977E+02  0.00000000000E+00 0. -1.
         21    1    1    2  504  503 -0.19558771791E+02 -0.77220306104E+01  0.83691963080E+03  0.83718375744E+03  0.00000000000E+00 0.  1.
</event>
<event>
 4    1  0.3080871E+006  0.2224319E+02  0.7546771E-02  0.1502227E+00
         21   -1    0    0  504  501  0.00000000000E+00  0.00000000000E+00  0.33589927968E+01  0.33589927968E+01  0.00000000000E+00 0. -1.
         21   -1    0    0  503  502 -0.00000000000E+00 -0.00000000000E+00 -0.21084053365E+03  0.21084053365E+03  0.00000000000E+00 0. -1.
         21    1    1    2  503  501 -0.18490463342E+02  0.12363749072E+02 -0.44943475144E+02  0.50146540097E+02  0.00000000000E+00 0. -1.
         21    1    1    2  504  502  0.18490463342E+02 -0.12363749072E+02 -0.16253806571E+03  0.16405298635E+03  0.00000000000E+00 0. -1.
</event>
<event>
 4    1  0.3080871E+006  0.2031611E+02  0.7546771E-02  0.1529257E+00
         21   -1    0    0  502  501  0.00000000000E+00  0.00000000000E+00  0.85664068529E+03  0.85664068529E+03  0.00000000000E+00 0.  1.
         21   -1    0    0  504  502 -0.00000000000E+00 -0.00000000000E+00 -0.12358892762E+01  0.12358892762E+01  0.00000000000E+00 0.  1.
         21    1    1    2  503  501 -0.18123893384E+02  0.91797962081E+01  0.76275382851E+03  0.76302434239E+03  0.00000000000E+00 0.  1.
         21    1    1    2  504  503  0.18123893384E+02 -0.91797962081E+01  0.92650967507E+02  0.94852232182E+02  0.00000000000E+00 0.  1.
</event>
<event>
 4    1  0.3080871E+006  0.2597889E+02  0.7546771E-02  0.1458144E+00
         21   -1    0    0  503  501  0.00000000000E+00  0.00000000000E+00  0.16633443083E+02  0.16633443083E+02  0.00000000000E+00 0.  1.
         21   -1    0    0  504  502 -0.00000000000E+00 -0.00000000000E+00 -0.42576917007E+02  0.42576917007E+02  0.00000000000E+00 0.  1.
         21    1    1    2  503  502  0.24111284631E+02  0.96720655572E+01 -0.65522921553E+01  0.26792451011E+02  0.00000000000E+00 0.  1.
         21    1    1    2  504  501 -0.24111284631E+02 -0.96720655572E+01 -0.19391181769E+02  0.32417909079E+02  0.00000000000E+00 0.  1.
</event>
<event>
 4    1  0.3080871E+006  0.2531938E+02  0.7546771E-02  0.1465262E+00
         21   -1    0    0  503  501  0.00000000000E+00  0.00000000000E+00  0.68900677700E+02  0.68900677700E+02  0.00000000000E+00 0.  1.
         21   -1    0    0  501  502 -0.00000000000E+00 -0.00000000000E+00 -0.93079679904E+01  0.93079679904E+01  0.00000000000E+00 0.  1.
         21    1    1    2  503  504 -0.20927050928E+02  0.14252345141E+02  0.29017369174E+02  0.38510758449E+02  0.00000000000E+00 0.  1.
         21    1    1    2  504  502  0.20927050928E+02 -0.14252345141E+02  0.30575340536E+02  0.39697887242E+02  0.00000000000E+00 0.  1.
</event>
<event>
 4    1  0.3080871E+006  0.2839468E+02  0.7546771E-02  0.1434080E+00
         21   -1    0    0  503  501  0.00000000000E+00  0.00000000000E+00  0.12681244012E+01  0.12681244012E+01  0.00000000000E+00 0.  1.
         21   -1    0    0  504  502 -0.00000000000E+00 -0.00000000000E+00 -0.74749790933E+03  0.74749790933E+03  0.00000000000E+00 0.  1.
         21    1    1    2  503  502  0.24545364022E+02  0.14275256949E+02 -0.51784458623E+03  0.51862247671E+03  0.00000000000E+00 0.  1.
         21    1    1    2  504  501 -0.24545364022E+02 -0.14275256949E+02 -0.22838519869E+03  0.23014355702E+03  0.00000000000E+00 0.  1.
</event>
<event>
 4    1  0.3080871E+006  0.2547635E+02  0.7546771E-02  0.1463544E+00
         21   -1    0    0  503  501  0.00000000000E+00  0.00000000000E+00  0.13043683468E+02  0.13043683468E+02  0.00000000000E+00 0. -1.
         21   -1    0    0  504  502 -0.00000000000E+00 -0.00000000000E+00 -0.56694330846E+02  0.56694330846E+02  0.00000000000E+00 0.  1.
         21    1    1    2  503  502  0.90658565996E+00 -0.25460216422E+02 -0.34020667873E+02  0.42502357115E+02  0.00000000000E+00 0.  1.
         21    1    1    2  504  501 -0.90658565996E+00  0.25460216422E+02 -0.96299795055E+01  0.27235657199E+02  0.00000000000E+00 0. -1.
</event>
<event>
 4    1  0.3080871E+006  0.2331996E+02  0.7546771E-02  0.1488519E+00
         21   -1    0    0  504  501  0.00000000000E+00  0.00000000000E+00  0.11804909919E+02  0.11804909919E+02  0.00000000000E+00 0.  1.
         21   -1    0    0  501  502 -0.00000000000E+00 -0.00000000000E+00 -0.10608614961E+04  0.10608614961E+04  0.00000000000E+00 0. -1.
         21    1    1    2  503  502  0.15810375093E+01  0.23266302489E+02 -0.10490872709E+04  0.10493464264E+04  0.00000000000E+00 0. -1.
         21    1    1    2  504  503 -0.15810375093E+01 -0.23266302489E+02  0.30684709010E-01  0.23319979688E+02  0.00000000000E+00 0.  1.
</event>
<event>
 4    1  0.3080871E+006  0.3173068E+02  0.7546771E-02  0.1405130E+00
         21   -1    0    0  503  501  0.00000000000E+00  0.00000000000E+00  0.60701558681E+02  0.60701558681E+02  0.00000000000E+00 0. -1.
         21   -1    0    0  504  502 -0.00000000000E+00 -0.00000000000E+00 -0.16599117161E+02  0.16599117161E+02  0.00000000000E+00 0. -1.
         21    1    1    2  503  502  0.31730582068E+02 -0.77326332824E-01  0.20992196804E+02  0.38046131793E+02  0.00000000000E+00 0. -1.
         21    1    1    2  504  501 -0.31730582068E+02  0.77326332824E-01  0.23110244716E+02  0.39254544050E+02  0.00000000000E+00 0. -1.
</event>
<event>
 4    1  0.3080871E+006  0.2055854E+02  0.7546771E-02  0.1525662E+00
         21   -1    0    0  504  501  0.00000000000E+00  0.00000000000E+00  0.86348679704E+02  0.86348679704E+02  0.00000000000E+00 0.  1.
         21   -1    0    0  503  502 -0.00000000000E+00 -0.00000000000E+00 -0.49654926842E+01  0.49654926842E+01  0.00000000000E+00 0.  1.
         21    1    1    2  503  501  0.19930078801E+02 -0.50443495548E+01  0.46141989876E+02  0.50514717985E+02  0.00000000000E+00 0.  1.
         21    1    1    2  504  502 -0.19930078801E+02  0.50443495548E+01  0.35241197144E+02  0.40799454403E+02  0.00000000000E+00 0.  1.
</event>
<event>
 4    1  0.3080871E+006  0.2585103E+02  0.7546771E-02  0.1459504E+00
         21   -1    0    0  504  501  0.00000000000E+00  0.00000000000E+00  0.65256632798E+01  0.65256632798E+01  0.00000000000E+00 0.  1.
         21   -1    0    0  503  502 -0.00000000000E+00 -0.00000000000E+00 -0.10817595580E+03  0.10817595580E+03  0.00000000000E+00 0. -1.
         21    1    1    2  503  501  0.23526669257E+02  0.10713145204E+02 -0.64068896448E+02  0.69087619285E+02  0.00000000000E+00 0.  1.
         21    1    1    2  504  502 -0.23526669257E+02 -0.10713145204E+02 -0.37581396075E+02  0.45613999796E+02  0.00000000000E+00 0. -1.
</event>
<event>
 4    1  0.3080871E+006  0.2919819E+02  0.7546771E-02  0.1426694E+00
         21   -1    0    0  503  501  0.00000000000E+00  0.00000000000E+00  0.20035181668E+03  0.20035181668E+03  0.00000000000E+00 0.  1.
         21   -1    0    0  504  502 -0.00000000000E+00 -0.00000000000E+00 -0.68628008845E+01  0.68628008845E+01  0.00000000000E+00 0.  1.
         21    1    1    2  503  502  0.30114782987E+01  0.29042470372E+02  0.16060929743E+03  0.16324178542E+03  0.00000000000E+00 0.  1.
         21    1    1    2  504  501 -0.30114782987E+01 -0.29042470372E+02  0.32879718365E+02  0.43972832142E+02  0.00000000000E+00 0.  1.
</event>
<event>
 4    1  0.3080871E+006  0.2623219E+02  0.7546771E-02  0.1455477E+00
         21   -1    0    0  503  501  0.00000000000E+00  0.00000000000E+00  0.19565004916E+01  0.19565004916E+01  0.00000000000E+00 0. -1.
         21   -1    0    0  501  502 -0.00000000000E+00 -0.00000000000E+00 -0.40240240214E+03  0.40240240214E+03  0.00000000000E+00 0.  1.
         21    1    1    2  503  504  0.17851112412E+02 -0.19221494097E+02 -0.12846628231E+03  0.13111717561E+03  0.00000000000E+00 0. -1.
         21    1    1    2  504  502 -0.17851112412E+02  0.19221494097E+02 -0.27197961934E+03  0.27324172702E+03  0.00000000000E+00 0.  1.
</event>
<event>
 4    1  0.3080871E+006  0.2432609E+02  0.7546771E-02  0.1476485E+00
         21   -1    0    0  503  501  0.00000000000E+00  0.00000000000E+00  0.27386684780E+03  0.27386684780E+03  0.00000000000E+00 0.  1.
         21   -1    0    0  504  502 -0.00000000000E+00 -0.00000000000E+00 -0.25612484071E+01  0.25612484071E+01  0.00000000000E+00 0.  1.
         21    1    1    2  503  502  0.24280854811E+02  0.14828759319E+01  0.80998457211E+02  0.84572506773E+02  0.00000000000E+00 0.  1.
         21    1    1    2  504  501 -0.24280854811E+02 -0.14828759319E+01  0.19030714218E+03  0.19185558943E+03  0.00000000000E+00 0.  1.
</event>
<event>
 4    1  0.3080871E+006  0.2487689E+02  0.7546771E-02  0.1470185E+00
         21   -1    0    0  503  501  0.00000000000E+00  0.00000000000E+00  0.35511004449E+02  0.35511004449E+02  0.00000000000E+00 0.  1.
         21   -1    0    0  504  502 -0.00000000000E+00 -0.00000000000E+00 -0.10224361140E+03  0.10224361140E+03  0.00000000000E+00 0.  1.
         21    1    1    2  503  502  0.24508449875E+02  0.42656065883E+01  0.29366957925E+02  0.38487371079E+02  0.00000000000E+00 0.  1.
         21    1    1    2  504  501 -0.24508449875E+02 -0.42656065883E+01 -0.96099564881E+02  0.99267244774E+02  0.00000000000E+00 0.  1.
</event>
<event>
 4    1  0.3080871E+006  0.3966491E+02  0.7546771E-02  0.1350461E+00
         21   -1    0    0  503  501  0.00000000000E+00  0.00000000000E+00  0.57471578521E+02  0.57471578521E+02  0.00000000000E+00 0.  1.
         21   -1    0    0  504  502 -0.00000000000E+00 -0.00000000000E+00 -0.70018570631E+02  0.70018570631E+02  0.00000000000E+00 0.  1.
         21    1    1    2  503  502 -0.36953180279E+02 -0.14414135521E+02  0.43473285535E+02  0.58849225914E+02  0.00000000000E+00 0.  1.
         21    1    1    2  504  501  0.36953180279E+02  0.14414135521E+02 -0.56020277645E+02  0.68640923238E+02  0.00000000000E+00 0.  1.
</event>
<event>
 4    1  0.3080871E+006  0.2112280E+02  0.7546771E-02  0.1517519E+00
         21   -1    0    0  504  501  0.00000000000E+00  0.00000000000E+00  0.80858186677E+02  0.80858186677E+02  0.00000000000E+00 0. -1.
         21   -1    0    0  503  502 -0.00000000000E+00 -0.00000000000E+00 -0.12117575511E+02  0.12117575511E+02  0.00000000000E+00 0. -1.
         21    1    1    2  503  501 -0.20613887716E+02 -0.46087341823E+01  0.62655288154E-01  0.21122895711E+02  0.00000000000E+00 0. -1.
         21    1    1    2  504  502  0.20613887716E+02  0.46087341823E+01  0.68677955877E+02  0.71852866478E+02  0.00000000000E+00 0. -1.
</event>
<event>
 4    1  0.3080871E+006  0.2771870E+02  0.7546771E-02  0.1440519E+00
         21   -1    0    0  504  501  0.00000000000E+00  0.00000000000E+00  0.26765674121E+02  0.26765674121E+02  0.00000000000E+00 0.  1.
         21   -1    0    0  503  502 -0.00000000000E+00 -0.00000000000E+00 -0.29356522099E+02  0.29356522099E+02  0.00000000000E+00 0.  1.
         21    1    1    2  503  501  0.26890345287E+02 -0.67257279812E+01  0.28828799061E+01  0.27868209183E+02  0.00000000000E+00 0.  1.
         21    1    1    2  504  502 -0.26890345287E+02  0.67257279812E+01 -0.54737278839E+01  0.28253987037E+02  0.00000000000E+00 0.  1.
</event>
<event>
 4    1  0.3080871E+006  0.3679481E+02  0.7546771E-02  0.1368366E+00
         21   -1    0    0  504  501  0.00000000000E+00  0.00000000000E+00  0.11319042387E+03  0.11319042387E+03  0.00000000000E+00 0.  1.
         21   -1    0    0  503  502 -0.00000000000E+00 -0.00000000000E+00 -0.24648534495E+02  0.24648534495E+02  0.00000000000E+00 0.  1.
         21    1    1    2  503  501  0.36672443982E+02  0.29983086132E+01 -0.51757159883E+01  0.37157045605E+02  0.00000000000E+00 0.  1.
         21    1    1    2  504  502 -0.36672443982E+02 -0.29983086132E+01  0.93717605367E+02  0.10068191276E+03  0.00000000000E+00 0.  1.
</event>
<event>
 4    1  0.3080871E+006  0.2013477E+02  0.7546771E-02  0.1531985E+00
         21   -1    0    0  502  501  0.00000000000E+00  0.00000000000E+00  0.11158024875E+02  0.11158024875E+02  0.00000000000E+00 0.  1.
         21   -1    0    0  504  502 -0.00000000000E+00 -0.00000000000E+00 -0.37184880195E+03  0.37184880195E+03  0.00000000000E+00 0.  1.
         21    1    1    2  503  501 -0.58195594181E+01  0.19275418144E+02  0.15616714254E+01  0.20195242857E+02  0.00000000000E+00 0.  1.
         21    1    1    2  504  503  0.58195594181E+01 -0.19275418144E+02 -0.36225244850E+03  0.36281158397E+03  0.00000000000E+00 0.  1.
</event>
<event>
 4    1  0.3080871E+006  0.3772603E+02  0.7546771E-02  0.1362352E+00
         21   -1    0    0  502  501  0.00000000000E+00  0.00000000000E+00  0.29706108274E+03  0.29706108274E+03  0.00000000000E+00 0. -1.
         21   -1    0    0  503  502 -0.00000000000E+00 -0.00000000000E+00 -0.10817089472E+02  0.10817089472E+02  0.00000000000E+00 0. -1.
         21    1    1    2  503  504 -0.10489508251E+02 -0.36238422339E+02  0.28225329662E+02  0.47116051102E+02  0.00000000000E+00 0. -1.
         21    1    1    2  504  501  0.10489508251E+02  0.36238422339E+02  0.25801866361E+03  0.26076212111E+03  0.00000000000E+00 0. -1.
</event>
<event>
 4    1  0.3080871E+006  0.2500458E+02  0.7546771E-02  0.1468752E+00
         21   -1    0    0  504  501  0.00000000000E+00  0.00000000000E+00  0.68059189181E+01  0.68059189181E+01  0.00000000000E+00 0. -1.
         21   -1    0    0  503  502 -0.00000000000E+00 -0.00000000000E+00 -0.14986160090E+03  0.14986160090E+03  0.00000000000E+00 0. -1.
         21    1    1    2  503  501  0.24948275927E+02 -0.16769934162E+01 -0.12025862385E+03  0.12283063701E+03  0.00000000000E+00 0. -1.
         21    1    1    2  504  502 -0.24948275927E+02  0.16769934162E+01 -0.22797058137E+02  0.33836882810E+02  0.00000000000E+00 0. -1.
</event>
<event>
 4    1  0.3080871E+006  0.2065439E+02  0.7546771E-02  0.1524257E+00
         21   -1    0    0  502  501  0.00000000000E+00  0.00000000000E+00  0.26679958697E+01  0.26679958697E+01  0.00000000000E+00 0. -1.
         21   -1    0    0  503  502 -0.00000000000E+00 -0.00000000000E+00 -0.21480789924E+03  0.21480789924E+03  0.00000000000E+00 0. -1.
         21    1    1    2  503  504  0.16167652630E+02  0.12853444692E+02 -0.16104758392E+03  0.16236664780E+03  0.00000000000E+00 0. -1.
         21    1    1    2  504  501 -0.16167652630E+02 -0.12853444692E+02 -0.51092319454E+02  0.55109247311E+02  0.00000000000E+00 0. -1.
</event>
<event>
 4    1  0.3080871E+006  0.2409088E+02  0.7546771E-02  0.1479236E+00
         21   -1    0    0  503  501  0.00000000000E+00  0.00000000000E+00  0.24373979692E+02  0.24373979692E+02  0.00000000000E+00 0. -1.
         21   -1    0    0  504  502 -0.00000000000E+00 -0.00000000000E+00 -0.24123335177E+02  0.24123335177E+02  0.00000000000E+00 0. -1.
         21    1    1    2  503  502  0.22742338450E+02  0.79471234599E+01  0.28841545420E+01  0.24262915671E+02  0.00000000000E+00 0. -1.
         21    1    1    2  504  501 -0.22742338450E+02 -0.79471234599E+01 -0.26335100272E+01  0.24234399198E+02  0.00000000000E+00 0. -1.
</event>
<event>
 4    1  0.3080871E+006  0.2130687E+02  0.7546771E-02  0.1514928E+00
         21   -1    0    0  503  501  0.00000000000E+00  0.00000000000E+00  0.11932965136E+03  0.11932965136E+03  0.00000000000E+00 0.  1.
         21   -1    0    0  504  502 -0.00000000000E+00 -0.00000000000E+00 -0.46163743188E+01  0.46163743188E+01  0.00000000000E+00 0.  1.
         21    1    1    2  503  502  0.15772960218E+02 -0.14324682192E+02  0.31366302783E+02  0.37918699137E+02  0.00000000000E+00 0.  1.
         21    1    1    2  504  501 -0.15772960218E+02  0.14324682192E+02  0.83346974261E+02  0.86027326545E+02  0.00000000000E+00 0.  1.
</event>
<event>
 4    1  0.3080871E+006  0.2398609E+02  0.7546771E-02  0.1480474E+00
         21   -1    0    0  503  501  0.00000000000E+00  0.00000000000E+00  0.10279086425E+03  0.10279086425E+03  0.00000000000E+00 0. -1.
         21   -1    0    0  504  502 -0.00000000000E+00 -0.00000000000E+00 -0.10264102712E+02  0.10264102712E+02  0.00000000000E+00 0. -1.
         21    1    1    2  503  502 -0.14122838105E+02 -0.19387572587E+02  0.84380263643E+02  0.87723209126E+02  0.00000000000E+00 0. -1.
         21    1    1    2  504  501  0.14122838105E+02  0.19387572587E+02  0.81464978908E+01  0.25331757832E+02  0.00000000000E+00 0. -1.
</event>
<event>
 4    1  0.3080871E+006  0.3005167E+02  0.7546771E-02  0.1419148E+00
         21   -1    0    0  502  501  0.00000000000E+00  0.00000000000E+00  0.15025832540E+02  0.15025832540E+02  0.00000000000E+00 0.  1.
         21   -1    0    0  503  502 -0.00000000000E+00 -0.00000000000E+00 -0.19009082962E+03  0.19009082962E+03  0.00000000000E+00 0.  1.
         21    1    1    2  503  504  0.14287564466E+02  0.26438013883E+02 -0.17234133420E+03  0.17494181476E+03  0.00000000000E+00 0.  1.
         21    1    1    2  504  501 -0.14287564466E+02 -0.26438013883E+02 -0.27236628835E+01  0.30174847406E+02  0.00000000000E+00 0.  1.
</event>
<event>
 4    1  0.3080871E+006  0.2086772E+02  0.7546771E-02  0.1521162E+00
         21   -1    0    0  503  501  0.00000000000E+00  0.00000000000E+00  0.16854823217E+02  0.16854823217E+02  0.00000000000E+00 0. -1.
         21   -1    0    0  504  502 -0.00000000000E+00 -0.00000000000E+00 -0.29693289585E+02  0.29693289585E+02  0.00000000000E+00 0. -1.
         21    1    1    2  503  502  0.13248794033E+01  0.20825621256E+02  0.19692234860E+01  0.20960430513E+02  0.00000000000E+00 0. -1.
         21    1    1    2  504  501 -0.13248794033E+01 -0.20825621256E+02 -0.14807689854E+02  0.25587682290E+02  0.00000000000E+00 0. -1.
</event>
<event>
 4    1  0.3080871E+006  0.2048018E+02  0.7546771E-02  0.1526818E+00
         21   -1    0    0  504  501  0.00000000000E+00  0.00000000000E+00  0.62279890564E+01  0.62279890564E+01  0.00000000000E+00 0.  1.
         21   -1    0    0  501  502 -0.00000000000E+00 -0.00000000000E+00 -0.29644536930E+03  0.29644536930E+03  0.00000000000E+00 0. -1.
         21    1    1    2  503  502 -0.20387565991E+02  0.19454548729E+01 -0.27814882341E+03  0.27890178487E+03  0.00000000000E+00 0. -1.
         21    1    1    2  504  503  0.20387565991E+02 -0.19454548729E+01 -0.12068556831E+02  0.23771573480E+02  0.00000000000E+00 0.  1.
</event>
<event>
 4    1  0.3080871E+006  0.2158815E+02  0.7546771E-02  0.1511031E+00
         21   -1    0    0  502  501  0.00000000000E+00  0.00000000000E+00  0.41950988356E+01  0.41950988356E+01  0.00000000000E+00 0.  1.
         21   -1    0    0  503  502 -0.00000000000E+00 -0.00000000000E+00 -0.60286031279E+03  0.60286031279E+03  0.00000000000E+00 0.  1.
         21    1    1    2  503  504 -0.20301261323E+02 -0.73421494466E+01 -0.57347082403E+03  0.57387702026E+03  0.00000000000E+00 0.  1.
         21    1    1    2  504  501  0.20301261323E+02  0.73421494466E+01 -0.25194389918E+02  0.33178391358E+02  0.00000000000E+00 0.  1.
</event>
<event>
 4    1  0.3080871E+006  0.2224519E+02  0.7546771E-02  0.1502200E+00
         21   -1    0    0  504  501  0.00000000000E+00  0.00000000000E+00  0.11394021477E+02  0.11394021477E+02  0.00000000000E+00 0. -1.
         21   -1    0    0  503  502 -0.00000000000E+00 -0.00000000000E+00 -0.50722118143E+02  0.50722118143E+02  0.00000000000E+00 0. -1.
         21    1    1    2  503  501  0.21752693932E+02 -0.46549596632E+01 -0.78883420749E+01  0.23602421135E+02  0.00000000000E+00 0. -1.
         21    1    1    2  504  502 -0.21752693932E+02  0.46549596632E+01 -0.31439754591E+02  0.38513718484E+02  0.00000000000E+00 0. -1.
</event>
<event>
 4    1  0.3080871E+006  0.2301804E+02  0.7546771E-02  0.1492272E+00
         21   -1    0    0  504  501  0.00000000000E+00  0.00000000000E+00  0.72526539892E+02  0.72526539892E+02  0.00000000000E+00 0.  1.
         21   -1    0    0  503  502 -0.00000000000E+00 -0.00000000000E+00 -0.47430080142E+02  0.47430080142E+02  0.00000000000E+00 0.  1.
         21    1    1    2  503  501  0.22774007828E+02 -0.33428304819E+01  0.67714483632E+02  0.71519796153E+02  0.00000000000E+00 0.  1.
         21    1    1    2  504  502 -0.22774007828E+02  0.33428304819E+01 -0.42618023882E+02  0.48436823882E+02  0.00000000000E+00 0.  1.
</event>
<event>
 4    1  0.3080871E+006  0.3176469E+02  0.7546771E-02  0.1404857E+00
         21   -1    0    0  504  501  0.00000000000E+00  0.00000000000E+00  0.22949249830E+02  0.22949249830E+02  0.00000000000E+00 0. -1.
         21   -1    0    0  503  502 -0.00000000000E+00 -0.00000000000E+00 -0.14952568950E+03  0.14952568950E+03  0.00000000000E+00 0.  1.
         21    1    1    2  503  501 -0.22167936876E+02 -0.22750336888E+02  0.91697873148E+01  0.33061764219E+02  0.00000000000E+00 0. -1.
         21    1    1    2  504  502  0.22167936876E+02  0.22750336888E+02 -0.13574622698E+03  0.13941317511E+03  0.00000000000E+00 0.  1.
</event>
<event>
 4    1  0.3080871E+006  0.3361839E+02  0.7546771E-02  0.1390545E+00
         21   -1    0    0  503  501  0.00000000000E+00  0.00000000000E+00  0.83995822885E+02  0.83995822885E+02  0.00000000000E+00 0. -1.
         21   -1    0    0  501  502 -0.00000000000E+00 -0.00000000000E+00 -0.13606866099E+02  0.13606866099E+02  0.00000000000E+00 0. -1.
         21    1    1    2  503  504  0.54014574232E+00  0.33614050895E+02  0.40343577825E+02  0.52514764083E+02  0.00000000000E+00 0. -1.
         21    1    1    2  504  502 -0.54014574232E+00 -0.33614050895E+02  0.30045378961E+02  0.45087924901E+02  0.00000000000E+00 0. -1.
</event>
<event>
 4    1  0.3080871E+006  0.2295130E+02  0.7546771E-02  0.1493111E+00
         21   -1    0    0  503  501  0.00000000000E+00  0.00000000000E+00  0.20339101907E+03  0.20339101907E+03  0.00000000000E+00 0.  1.
         21   -1    0    0  504  502 -0.00000000000E+00 -0.00000000000E+00 -0.10186057047E+02  0.10186057047E+02  0.00000000000E+00 0.  1.
         21    1    1    2  503  502  0.19620419711E+01  0.22867286128E+02  0.43838737814E+01  0.23366230610E+02  0.00000000000E+00 0.  1.
         21    1    1    2  504  501 -0.19620419711E+01 -0.22867286128E+02  0.18882108824E+03  0.19021084551E+03  0.00000000000E+00 0.  1.
</event>
<event>
 4    1  0.3080871E+006  0.2009782E+02  0.7546771E-02  0.1532546E+00
         21   -1    0    0  504  501  0.00000000000E+00  0.00000000000E+00  0.10173114012E+02  0.10173114012E+02  0.00000000000E+00 0.  1.
         21   -1    0    0  503  502 -0.00000000000E+00 -0.00000000000E+00 -0.45200909844E+02  0.45200909844E+02  0.00000000000E+00 0.  1.
         21    1    1    2  503  501 -0.71337736649E+01 -0.18789138272E+02 -0.78594738709E+01  0.21579939139E+02  0.00000000000E+00 0.  1.
         21    1    1    2  504  502  0.71337736649E+01  0.18789138272E+02 -0.27168321960E+02  0.33794084717E+02  0.00000000000E+00 0.  1.
</event>
<event>
 4    1  0.3080871E+006  0.3395190E+02  0.7546771E-02  0.1388085E+00
         21   -1    0    0  503  501  0.00000000000E+00  0.00000000000E+00  0.73209824963E+02  0.73209824963E+02  0.00000000000E+00 0.  1.
         21   -1    0    0  501  502 -0.00000000000E+00 -0.00000000000E+00 -0.18107046774E+02  0.18107046774E+02  0.00000000000E+00 0.  1.
         21    1    1    2  503  504  0.33935734096E+02 -0.10474520763E+01  0.44040152120E+02  0.55608148713E+02  0.00000000000E+00 0.  1.
         21    1    1    2  504  502 -0.33935734096E+02  0.10474520763E+01  0.11062626068E+02  0.35708723024E+02  0.00000000000E+00 0.  1.
</event>
<event>
 4    1  0.3080871E+006  0.3465863E+02  0.7546771E-02  0.1382979E+00
         21   -1    0    0  504  501  0.00000000000E+00  0.00000000000E+00  0.15923763310E+03  0.15923763310E+03  0.00000000000E+00 0.  1.
         21   -1    0    0  501  502 -0.00000000000E+00 -0.00000000000E+00 -0.15838894753E+02  0.15838894753E+02  0.00000000000E+00 0.  1.
         21    1    1    2  503  502 -0.29465429481E+02 -0.18248530864E+02  0.83485610168E+01  0.35649949289E+02  0.00000000000E+00 0.  1.
         21    1    1    2  504  503  0.29465429481E+02  0.18248530864E+02  0.13505017733E+03  0.13942657856E+03  0.00000000000E+00 0.  1.
</event>
<event>
 4    1  0.3080871E+006  0.2369262E+02  0.7546771E-02  0.1483979E+00
         21   -1    0    0  504  501  0.00000000000E+00  0.00000000000E+00  0.37998108954E+02  0.37998108954E+02  0.00000000000E+00 0.  1.
         21   -1    0    0  503  502 -0.00000000000E+00 -0.00000000000E+00 -0.11058261277E+03  0.11058261277E+03  0.00000000000E+00 0.  1.
         21    1    1    2  503  501 -0.23075723257E+02  0.53713296743E+01  0.32858027214E+02  0.40509136484E+02  0.00000000000E+00 0.  1.
         21    1    1    2  504  502  0.23075723257E+02 -0.53713296743E+01 -0.10544253103E+03  0.10807158524E+03  0.00000000000E+00 0.  1.
</event>
<event>
 4    1  0.3080871E+006  0.2046522E+02  0.7546771E-02  0.1527039E+00
         21   -1    0    0  502  501  0.00000000000E+00  0.00000000000E+00  0.69437096206E+01  0.69437096206E+01  0.00000000000E+00 0. -1.
         21   -1    0    0  504  502 -0.00000000000E+00 -0.00000000000E+00 -0.19530250462E+03  0.19530250462E+03  0.00000000000E+00 0. -1.
         21    1    1    2  503  501 -0.18711048494E+02 -0.82898650499E+01 -0.10109653165E+02  0.22826087825E+02  0.00000000000E+00 0. -1.
         21    1    1    2  504  503  0.18711048494E+02  0.82898650499E+01 -0.17824914183E+03  0.17942012641E+03  0.00000000000E+00 0. -1.
</event>
<event>
 4    1  0.3080871E+006  0.3074755E+02  0.7546771E-02  0.1413209E+00
         21   -1    0    0  504  501  0.00000000000E+00  0.00000000000E+00  0.54152793826E+01  0.54152793826E+01  0.00000000000E+00 0. -1.
         21   -1    0    0  503  502 -0.00000000000E+00 -0.00000000000E+00 -0.17695031325E+03  0.17695031325E+03  0.00000000000E+00 0. -1.
         21    1    1    2  503  501 -0.23149649794E+02 -0.20236249946E+02 -0.96315670948E+02  0.10110450320E+03  0.00000000000E+00 0. -1.
         21    1    1    2  504  502  0.23149649794E+02  0.20236249946E+02 -0.75219362920E+02  0.81261089431E+02  0.00000000000E+00 0. -1.
</event>
<event>
 4    1  0.3080871E+006  0.2020187E+02  0.7546771E-02  0.1530972E+00
         21   -1    0    0  503  501  0.00000000000E+00  0.00000000000E+00  0.31972045128E+03  0.31972045128E+03  0.00000000000E+00 0.  1.
         21   -1    0    0  504  502 -0.00000000000E+00 -0.00000000000E+00 -0.70382023344E+01  0.70382023344E+01  0.00000000000E+00 0.  1.
         21    1    1    2  503  502 -0.19432069482E+02  0.55236123053E+01  0.30416429942E+03  0.30483444139E+03  0.00000000000E+00 0.  1.
         21    1    1    2  504  501  0.19432069482E+02 -0.55236123053E+01  0.85179495184E+01  0.21924212215E+02  0.00000000000E+00 0.  1.
</event>
<event>
 4    1  0.3080871E+006  0.2791822E+02  0.7546771E-02  0.1438596E+00
         21   -1    0    0  503  501  0.00000000000E+00  0.00000000000E+00  0.24147110956E+03  0.24147110956E+03  0.00000000000E+00 0. -1.
         21   -1    0    0  501  502 -0.00000000000E+00 -0.00000000000E+00 -0.36731311318E+03  0.36731311318E+03  0.00000000000E+00 0.  1.
         21    1    1    2  503  504  0.27768381569E+02  0.28885951969E+01  0.24013070931E+03  0.24174818417E+03  0.00000000000E+00 0. -1.
         21    1    1    2  504  502 -0.27768381569E+02 -0.28885951969E+01 -0.36597271293E+03  0.36703603857E+03  0.00000000000E+00 0.  1.
</event>
<event>
 4    1  0.3080871E+006  0.2106604E+02  0.7546771E-02  0.1518324E+00
         21   -1    0    0  504  501  0.00000000000E+00  0.00000000000E+00  0.48383750088E+02  0.48383750088E+02  0.00000000000E+00 0.  1.
         21   -1    0    0  503  502 -0.00000000000E+00 -0.00000000000E+00 -0.17115240630E+02  0.17115240630E+02  0.00000000000E+00 0.  1.
         21    1    1    2  503  501  0.18632503891E+02 -0.98289206439E+01  0.37944829850E+02  0.43400322517E+02  0.00000000000E+00 0.  1.
         21    1    1    2  504  502 -0.18632503891E+02  0.98289206439E+01 -0.66763203915E+01  0.22098668201E+02  0.00000000000E+00 0.  1.
</event>
<event>
 4    1  0.3080871E+006  0.2715791E+02  0.7546771E-02  0.1446028E+00
         21   -1    0    0  504  501  0.00000000000E+00  0.00000000000E+00  0.85826665107E+01  0.85826665107E+01  0.00000000000E+00 0. -1.
         21   -1    0    0  503  502 -0.00000000000E+00 -0.00000000000E+00 -0.10273347247E+04  0.10273347247E+04  0.00000000000E+00 0. -1.
         21    1    1    2  503  501 -0.23325536622E+02 -0.13909391365E+02 -0.10051984573E+04  0.10055652591E+04  0.00000000000E+00 0. -1.
         21    1    1    2  504  502  0.23325536622E+02  0.13909391365E+02 -0.13553600965E+02  0.30352132149E+02  0.00000000000E+00 0. -1.
</event>
<event>
 4    1  0.3080871E+006  0.2308198E+02  0.7546771E-02  0.1491471E+00
         21   -1    0    0  503  501  0.00000000000E+00  0.00000000000E+00  0.40102681571E+02  0.40102681571E+02  0.00000000000E+00 0.  1.
         21   -1    0    0  504  502 -0.00000000000E+00 -0.00000000000E+00 -0.14671941949E+02  0.14671941949E+02  0.00000000000E+00 0. -1.
         21    1    1    2  503  502  0.22686265841E+02 -0.42556943372E+01  0.42959500408E+01  0.23478347021E+02  0.00000000000E+00 0. -1.
         21    1    1    2  504  501 -0.22686265841E+02  0.42556943372E+01  0.21134789582E+02  0.31296276500E+02  0.00000000000E+00 0.  1.
</event>
<event>
 4    1  0.3080871E+006  0.2200895E+02  0.7546771E-02  0.1505332E+00
         21   -1    0    0  502  501  0.00000000000E+00  0.00000000000E+00  0.62303929266E+03  0.62303929266E+03  0.00000000000E+00 0. -1.
         21   -1    0    0  504  502 -0.00000000000E+00 -0.00000000000E+00 -0.12412263962E+02  0.12412263962E+02  0.00000000000E+00 0.  1.
         21    1    1    2  503  501  0.18665191609E+02  0.11662092369E+02  0.61292766997E+03  0.61332269026E+03  0.00000000000E+00 0. -1.
         21    1    1    2  504  503 -0.18665191609E+02 -0.11662092369E+02 -0.23006412694E+01  0.22128866362E+02  0.00000000000E+00 0.  1.
</event>
<event>
 4    1  0.3080871E+006  0.3781516E+02  0.7546771E-02  0.1361787E+00
         21   -1    0    0  504  501  0.00000000000E+00  0.00000000000E+00  0.21280360397E+02  0.21280360397E+02  0.00000000000E+00 0.  1.
         21   -1    0    0  501  502 -0.00000000000E+00 -0.00000000000E+00 -0.98289270904E+02  0.98289270904E+02  0.00000000000E+00 0. -1.
         21    1    1    2  503  502  0.34667055141E+01  0.37655923122E+02 -0.72129332416E+02  0.81440942947E+02  0.00000000000E+00 0. -1.
         21    1    1    2  504  503 -0.34667055141E+01 -0.37655923122E+02 -0.48795780905E+01  0.38128688354E+02  0.00000000000E+00 0.  1.
</event>
<event>
 4    1  0.3080871E+006  0.2321573E+02  0.7546771E-02  0.1489807E+00
         21   -1    0    0  503  501  0.00000000000E+00  0.00000000000E+00  0.16457601369E+03  0.16457601369E+03  0.00000000000E+00 0. -1.
         21   -1    0    0  501  502 -0.00000000000E+00 -0.00000000000E+00 -0.42154705004E+02  0.42154705004E+02  0.00000000000E+00 0.  1.
         21    1    1    2  503  504 -0.12102121174E+02  0.19811834009E+02  0.16047974113E+03  0.16215029268E+03  0.00000000000E+00 0. -1.
         21    1    1    2  504  502  0.12102121174E+02 -0.19811834009E+02 -0.38058432441E+02  0.44580426014E+02  0.00000000000E+00 0.  1.
</event>
<event>
 4    1  0.3080871E+006  0.2568689E+02  0.7546771E-02  0.1461264E+00
         21   -1    0    0  503  501  0.00000000000E+00  0.00000000000E+00  0.22607242256E+02  0.22607242256E+02  0.00000000000E+00 0. -1.
         21   -1    0    0  504  502 -0.00000000000E+00 -0.00000000000E+00 -0.29187073101E+02  0.29187073101E+02  0.00000000000E+00 0. -1.
         21    1    1    2  503  502 -0.15418277739E+02  0.20544904900E+02 -0.34422341553E+01  0.25916507900E+02  0.00000000000E+00 0. -1.
         21    1    1    2  504  501  0.15418277739E+02 -0.20544904900E+02 -0.31375966897E+01  0.25877807456E+02  0.00000000000E+00 0. -1.
</event>
<event>
 4    1  0.3080871E+006  0.3091413E+02  0.7546771E-02  0.1411815E+00
         21   -1    0    0  502  501  0.00000000000E+00  0.00000000000E+00  0.29341553283E+03  0.29341553283E+03  0.00000000000E+00 0.  1.
         21   -1    0    0  504  502 -0.00000000000E+00 -0.00000000000E+00 -0.38240409434E+02  0.38240409434E+02  0.00000000000E+00 0. -1.
         21    1    1    2  503  501  0.30909332153E+02  0.54461698709E+00  0.28619624974E+03  0.28786103729E+03  0.00000000000E+00 0.  1.
         21    1    1    2  504  503 -0.30909332153E+02 -0.54461698709E+00 -0.31021126348E+02  0.43794904974E+02  0.00000000000E+00 0. -1.
</event>
<event>
 4    1  0.3080871E+006  0.2621360E+02  0.7546771E-02  0.1455672E+00
         21   -1    0    0  504  501  0.00000000000E+00  0.00000000000E+00  0.53316686937E+03  0.53316686937E+03  0.00000000000E+00 0. -1.
         21   -1    0    0  503  502 -0.00000000000E+00 -0.00000000000E+00 -0.27423312771E+02  0.27423312771E+02  0.00000000000E+00 0.  1.
         21    1    1    2  503  501 -0.19749194368E+02  0.17237227575E+02  0.52650109417E+03  0.52715325557E+03  0.00000000000E+00 0. -1.
         21    1    1    2  504  502  0.19749194368E+02 -0.17237227575E+02 -0.20757537571E+02  0.33436926574E+02  0.00000000000E+00 0.  1.
</event>
<event>
 4    1  0.3080871E+006  0.2076840E+02  0.7546771E-02  0.1522597E+00
         21   -1    0    0  504  501  0.00000000000E+00  0.00000000000E+00  0.25333617442E+01  0.25333617442E+01  0.00000000000E+00 0.  1.
         21   -1    0    0  503  502 -0.00000000000E+00 -0.00000000000E+00 -0.11572192227E+04  0.11572192227E+04  0.00000000000E+00 0.  1.
         21    1    1    2  503  501 -0.15950939888E+02 -0.13300146685E+02 -0.41820745036E+02  0.46693694441E+02  0.00000000000E+00 0.  1.
         21    1    1    2  504  502  0.15950939888E+02  0.13300146685E+02 -0.11128651159E+04  0.11130588900E+04  0.00000000000E+00 0.  1.
</event>
<event>
 4    1  0.3080871E+006  0.2051320E+02  0.7546771E-02  0.1526330E+00
         21   -1    0    0  503  501  0.00000000000E+00  0.00000000000E+00  0.39784522903E+01  0.39784522903E+01  0.00000000000E+00 0. -1.
         21   -1    0    0  504  502 -0.00000000000E+00 -0.00000000000E+00 -0.11794039532E+03  0.11794039532E+03  0.00000000000E+00 0. -1.
         21    1    1    2  503  502 -0.18369644322E+02 -0.91294815493E+01 -0.76565138463E+02  0.79265450820E+02  0.00000000000E+00 0. -1.
         21    1    1    2  504  501  0.18369644322E+02  0.91294815493E+01 -0.37396804564E+02  0.42653396787E+02  0.00000000000E+00 0. -1.
</event>
<event>
 4    1  0.3080871E+006  0.2211717E+02  0.7546771E-02  0.1503892E+00
         21   -1    0    0  504  501  0.00000000000E+00  0.00000000000E+00  0.21948934022E+02  0.21948934022E+02  0.00000000000E+00 0.  1.
         21   -1    0    0  503  502 -0.00000000000E+00 -0.00000000000E+00 -0.19466647888E+03  0.19466647888E+03  0.00000000000E+00 0.  1.
         21    1    1    2  503  501  0.13438198183E+02  0.17566559531E+02 -0.18827819142E+03  0.18957280013E+03  0.00000000000E+00 0.  1.
         21    1    1    2  504  502 -0.13438198183E+02 -0.17566559531E+02  0.15560646562E+02  0.27042612773E+02  0.00000000000E+00 0.  1.
</event>
<event>
 4    1  0.3080871E+006  0.2302345E+02  0.7546771E-02  0.1492204E+00
         21   -1    0    0  504  501  0.00000000000E+00  0.00000000000E+00  0.14096547811E+02  0.14096547811E+02  0.00000000000E+00 0. -1.
         21   -1    0    0  503  502 -0.00000000000E+00 -0.00000000000E+00 -0.79095608791E+02  0.79095608791E+02  0.00000000000E+00 0. -1.
         21    1    1    2  503  501 -0.12160565000E+02 -0.19549931598E+02  0.12490935351E+01  0.23057306895E+02  0.00000000000E+00 0. -1.
         21    1    1    2  504  502  0.12160565000E+02  0.19549931598E+02 -0.66248154516E+02  0.70134849706E+02  0.00000000000E+00 0. -1.
</event>
<event>
 4    1  0.3080871E+006  0.4002897E+02  0.7546771E-02  0.1348316E+00
         21   -1    0    0  503  501  0.00000000000E+00  0.00000000000E+00  0.12592027313E+01  0.12592027313E+01  0.00000000000E+00 0.  1.
         21   -1    0    0  501  502 -0.00000000000E+00 -0.00000000000E+00 -0.12769661565E+04  0.12769661565E+04  0.00000000000E+00 0.  1.
         21    1    1    2  503  504  0.25303596412E+02  0.31016876280E+02 -0.60000005687E+03  0.60133383977E+03  0.00000000000E+00 0.  1.
         21    1    1    2  504  502 -0.25303596412E+02 -0.31016876280E+02 -0.67570689694E+03  0.67689151951E+03  0.00000000000E+00 0.  1.
</event>
<event>
 4    1  0.3080871E+006  0.2607995E+02  0.7546771E-02  0.1457076E+00
         21   -1    0    0  503  501  0.00000000000E+00  0.00000000000E+00  0.17086039054E+03  0.17086039054E+03  0.00000000000E+00 0.  1.
         21   -1    0    0  504  502 -0.00000000000E+00 -0.00000000000E+00 -0.78838451511E+01  0.78838451511E+01  0.00000000000E+00 0.  1.
         21    1    1    2  503  502 -0.23104672149E+02  0.12097011224E+02  0.14437137744E+03  0.14670807128E+03  0.00000000000E+00 0.  1.
         21    1    1    2  504  501  0.23104672149E+02 -0.12097011224E+02  0.18605167953E+02  0.32036164412E+02  0.00000000000E+00 0.  1.
</event>
<event>
 4    1  0.3080871E+006  0.3066263E+02  0.7546771E-02  0.1413924E+00
         21   -1    0    0  502  501  0.00000000000E+00  0.00000000000E+00  0.19999841941E+02  0.19999841941E+02  0.00000000000E+00 0.  1.
         21   -1    0    0  504  502 -0.00000000000E+00 -0.00000000000E+00 -0.24541671410E+03  0.24541671410E+03  0.00000000000E+00 0. -1.
         21    1    1    2  503  501  0.25514513977E+02 -0.17006079279E+02  0.66144850631E+01  0.31367954485E+02  0.00000000000E+00 0.  1.
         21    1    1    2  504  503 -0.25514513977E+02  0.17006079279E+02 -0.23203135722E+03  0.23404860155E+03  0.00000000000E+00 0. -1.
</event>
<event>
 4    1  0.3080871E+006  0.4007972E+02  0.7546771E-02  0.1348019E+00
         21   -1    0    0  503  501  0.00000000000E+00  0.00000000000E+00  0.16564754522E+03  0.16564754522E+03  0.00000000000E+00 0. -1.
         21   -1    0    0  504  502 -0.00000000000E+00 -0.00000000000E+00 -0.11497868162E+02  0.11497868162E+02  0.00000000000E+00 0. -1.
         21    1    1    2  503  502 -0.31360460832E+02  0.24958072860E+02  0.42027127601E+02  0.58074636106E+02  0.00000000000E+00 0. -1.
         21    1    1    2  504  501  0.31360460832E+02 -0.24958072860E+02  0.11212254946E+03  0.11907077728E+03  0.00000000000E+00 0. -1.
</event>
<event>
 4    1  0.3080871E+006  0.2071914E+02  0.7546771E-02  0.1523313E+00
         21   -1    0    0  504  501  0.00000000000E+00  0.00000000000E+00  0.23321337261E+02  0.23321337261E+02  0.00000000000E+00 0. -1.
         21   -1    0    0  503  502 -0.00000000000E+00 -0.00000000000E+00 -0.14692140455E+03  0.14692140455E+03  0.00000000000E+00 0. -1.
         21    1    1    2  503  501  0.10490357491E+02  0.17867156469E+02  0.17810671169E+02  0.27322205037E+02  0.00000000000E+00 0. -1.
         21    1    1    2  504  502 -0.10490357491E+02 -0.17867156469E+02 -0.14141073846E+03  0.14292053677E+03  0.00000000000E+00 0. -1.
</event>
<event>
 4    1  0.3080871E+006  0.2018369E+02  0.7546771E-02  0.1531246E+00
         21   -1    0    0  502  501  0.00000000000E+00  0.00000000000E+00  0.49024550116E+02  0.49024550116E+02  0.00000000000E+00 0.  1.
         21   -1    0    0  504  502 -0.00000000000E+00 -0.00000000000E+00 -0.94277731580E+01  0.94277731580E+01  0.00000000000E+00 0.  1.
         21    1    1    2  503  501  0.20164948529E+02  0.86965731678E+00  0.29862925852E+02  0.36044081255E+02  0.00000000000E+00 0.  1.
         21    1    1    2  504  503 -0.20164948529E+02 -0.86965731678E+00  0.97338511053E+01  0.22408242019E+02  0.00000000000E+00 0.  1.
</event>
<event>
 4    1  0.3080871E+006  0.4817531E+02  0.7546771E-02  0.1306284E+00
         21   -1    0    0  504  501  0.00000000000E+00  0.00000000000E+00  0.19814794277E+04  0.19814794277E+04  0.00000000000E+00 0. -1.
         21   -1    0    0  501  502 -0.00000000000E+00 -0.00000000000E+00 -0.32465105786E+01  0.32465105786E+01  0.00000000000E+00 0. -1.
         21    1    1    2  503  502  0.14824336885E+02  0.45837747088E+02  0.19571006099E+03  0.20155219670E+03  0.00000000000E+00 0. -1.
         21    1    1    2  504  503 -0.14824336885E+02 -0.45837747088E+02  0.17825228562E+04  0.17831737416E+04  0.00000000000E+00 0. -1.
</event>
<event>
 4    1  0.3080871E+006  0.3119299E+02  0.7546771E-02  0.1409505E+00
         21   -1    0    0  504  501  0.00000000000E+00  0.00000000000E+00  0.29178491682E+02  0.29178491682E+02  0.00000000000E+00 0. -1.
         21   -1    0    0  503  502 -0.00000000000E+00 -0.00000000000E+00 -0.35021131191E+02  0.35021131191E+02  0.00000000000E+00 0. -1.
         21    1    1    2  503  501  0.89294513835E+01 -0.29887580551E+02  0.40978879663E+01  0.31461011728E+02  0.00000000000E+00 0. -1.
         21    1    1    2  504  502 -0.89294513835E+01  0.29887580551E+02 -0.99405274752E+01  0.32738611145E+02  0.00000000000E+00 0. -1.
</event>
<event>
 4    1  0.3080871E+006  0.2782871E+02  0.7546771E-02  0.1439457E+00
         21   -1    0    0  503  501  0.00000000000E+00  0.00000000000E+00  0.86734879669E+02  0.86734879669E+02  0.00000000000E+00 0.  1.
         21   -1    0    0  504  502 -0.00000000000E+00 -0.00000000000E+00 -0.55527932782E+02  0.55527932782E+02  0.00000000000E+00 0.  1.
         21    1    1    2  503  502 -0.17235072105E+02  0.21849245197E+02  0.80765505871E+02  0.85425430433E+02  0.00000000000E+00 0.  1.
         21    1    1    2  504  501  0.17235072105E+02 -0.21849245197E+02 -0.49558558984E+02  0.56837382018E+02  0.00000000000E+00 0.  1.
</event>
<event>
 4    1  0.3080871E+006  0.3597220E+02  0.7546771E-02  0.1373854E+00
         21   -1    0    0  504  501  0.00000000000E+00  0.00000000000E+00  0.78887551655E+01  0.78887551655E+01  0.00000000000E+00 0.  1.
         21   -1    0    0  503  502 -0.00000000000E+00 -0.00000000000E+00 -0.27661346205E+03  0.27661346205E+03  0.00000000000E+00 0.  1.
         21    1    1    2  503  501 -0.17573659995E+02 -0.31387350796E+02 -0.43610680583E+02  0.56532210080E+02  0.00000000000E+00 0.  1.
         21    1    1    2  504  502  0.17573659995E+02  0.31387350796E+02 -0.22511402630E+03  0.22797000713E+03  0.00000000000E+00 0.  1.
</event>
<event>
 4    1  0.3080871E+006  0.6302493E+02  0.7546771E-02  0.1249887E+00
         21   -1    0    0  504  501  0.00000000000E+00  0.00000000000E+00  0.53327410814E+02  0.53327410814E+02  0.00000000000E+00 0. -1.
         21   -1    0    0  503  502 -0.00000000000E+00 -0.00000000000E+00 -0.88191654911E+02  0.88191654911E+02  0.00000000000E+00 0. -1.
         21    1    1    2  503  501 -0.60654710318E+02 -0.17121555790E+02 -0.45326859976E+02  0.77631603047E+02  0.00000000000E+00 0. -1.
         21    1    1    2  504  502  0.60654710318E+02  0.17121555790E+02  0.10462615880E+02  0.63887462678E+02  0.00000000000E+00 0. -1.
</event>
<event>
 4    1  0.3080871E+006  0.2087543E+02  0.7546771E-02  0.1521051E+00
         21   -1    0    0  503  501  0.00000000000E+00  0.00000000000E+00  0.36637534482E+03  0.36637534482E+03  0.00000000000E+00 0.  1.
         21   -1    0    0  504  502 -0.00000000000E+00 -0.00000000000E+00 -0.58966179620E+01  0.58966179620E+01  0.00000000000E+00 0. -1.
         21    1    1    2  503  502  0.67752865863E+01  0.19745356969E+02  0.34654573079E+03  0.34717391486E+03  0.00000000000E+00 0.  1.
         21    1    1    2  504  501 -0.67752865863E+01 -0.19745356969E+02  0.13932996072E+02  0.25098047926E+02  0.00000000000E+00 0. -1.
</event>
<event>
 4    1  0.3080871E+006  0.3894536E+02  0.7546771E-02  0.1354779E+00
         21   -1    0    0  504  501  0.00000000000E+00  0.00000000000E+00  0.15401010178E+02  0.15401010178E+02  0.00000000000E+00 0. -1.
         21   -1    0    0  501  502 -0.00000000000E+00 -0.00000000000E+00 -0.99633114058E+03  0.99633114058E+03  0.00000000000E+00 0. -1.
         21    1    1    2  503  502 -0.25755806489E+02 -0.29212657168E+02 -0.97067937402E+03  0.97146033787E+03  0.00000000000E+00 0. -1.
         21    1    1    2  504  503  0.25755806489E+02  0.29212657168E+02 -0.10250756380E+02  0.40271812886E+02  0.00000000000E+00 0. -1.
</event>
<event>
 4    1  0.3080871E+006  0.3616844E+02  0.7546771E-02  0.1372530E+00
         21   -1    0    0  503  501  0.00000000000E+00  0.00000000000E+00  0.78761648370E+01  0.78761648370E+01  0.00000000000E+00 0. -1.
         21   -1    0    0  501  502 -0.00000000000E+00 -0.00000000000E+00 -0.11466854923E+04  0.11466854923E+04  0.00000000000E+00 0. -1.
         21    1    1    2  503  504 -0.15041075907E+02 -0.32892580181E+02 -0.35566249740E+02  0.50725870283E+02  0.00000000000E+00 0. -1.
         21    1    1    2  504  502  0.15041075907E+02  0.32892580181E+02 -0.11032430777E+04  0.11038357868E+04  0.00000000000E+00 0. -1.
</event>
<event>
 4    1  0.3080871E+006  0.3181168E+02  0.7546771E-02  0.1404480E+00
         21   -1    0    0  502  501  0.00000000000E+00  0.00000000000E+00  0.24193285563E+02  0.24193285563E+02  0.00000000000E+00 0. -1.
         21   -1    0    0  503  502 -0.00000000000E+00 -0.00000000000E+00 -0.10527872527E+03  0.10527872527E+03  0.00000000000E+00 0. -1.
         21    1    1    2  503  504  0.29926038593E+02  0.10789587838E+02 -0.90798980514E+02  0.96210383296E+02  0.00000000000E+00 0. -1.
         21    1    1    2  504  501 -0.29926038593E+02 -0.10789587838E+02  0.97135408057E+01  0.33261627539E+02  0.00000000000E+00 0. -1.
</event>
<event>
 4    1  0.3080871E+006  0.2407843E+02  0.7546771E-02  0.1479383E+00
         21   -1    0    0  503  501  0.00000000000E+00  0.00000000000E+00  0.61619997643E+01  0.61619997643E+01  0.00000000000E+00 0.  1.
         21   -1    0    0  504  502 -0.00000000000E+00 -0.00000000000E+00 -0.13958985683E+03  0.13958985683E+03  0.00000000000E+00 0.  1.
         21    1    1    2  503  502  0.19056390413E+02 -0.14718178459E+02 -0.25106459759E+02  0.34786565142E+02  0.00000000000E+00 0.  1.
         21    1    1    2  504  501 -0.19056390413E+02  0.14718178459E+02 -0.10832139731E+03  0.11096529146E+03  0.00000000000E+00 0.  1.
</event>
<event>
 4    1  0.3080871E+006  0.2610713E+02  0.7546771E-02  0.1456789E+00
         21   -1    0    0  503  501  0.00000000000E+00  0.00000000000E+00  0.28234722256E+02  0.28234722256E+02  0.00000000000E+00 0.  1.
         21   -1    0    0  504  502 -0.00000000000E+00 -0.00000000000E+00 -0.60432242213E+02  0.60432242213E+02  0.00000000000E+00 0. -1.
         21    1    1    2  503  502  0.72903137296E+01  0.25068577470E+02 -0.50454968269E+02  0.56809207649E+02  0.00000000000E+00 0. -1.
         21    1    1    2  504  501 -0.72903137296E+01 -0.25068577470E+02  0.18257448313E+02  0.31857756819E+02  0.00000000000E+00 0.  1.
</event>
<event>
 4    1  0.3080871E+006  0.3822239E+02  0.7546771E-02  0.1359230E+00
         21   -1    0    0  503  501  0.00000000000E+00  0.00000000000E+00  0.25144051279E+03  0.25144051279E+03  0.00000000000E+00 0. -1.
         21   -1    0    0  504  502 -0.00000000000E+00 -0.00000000000E+00 -0.15373090424E+02  0.15373090424E+02  0.00000000000E+00 0. -1.
         21    1    1    2  503  502  0.13089222073E+02 -0.35911328249E+02  0.12815934514E+02  0.40313762024E+02  0.00000000000E+00 0. -1.
         21    1    1    2  504  501 -0.13089222073E+02  0.35911328249E+02  0.22325148786E+03  0.22649984119E+03  0.00000000000E+00 0. -1.
</event>
<event>
 4    1  0.3080871E+006  0.2101970E+02  0.7546771E-02  0.1518984E+00
         21   -1    0    0  503  501  0.00000000000E+00  0.00000000000E+00  0.70582069337E+03  0.70582069337E+03  0.00000000000E+00 0.  1.
         21   -1    0    0  501  502 -0.00000000000E+00 -0.00000000000E+00 -0.15403921208E+01  0.15403921208E+01  0.00000000000E+00 0.  1.
         21    1    1    2  503  504  0.54642300341E+01 -0.20297047551E+02  0.62464050992E+03  0.62499407564E+03  0.00000000000E+00 0.  1.
         21    1    1    2  504  502 -0.54642300341E+01  0.20297047551E+02  0.79639791323E+02  0.82367009847E+02  0.00000000000E+00 0.  1.
</event>
<event>
 4    1  0.3080871E+006  0.2231706E+02  0.7546771E-02  0.1501257E+00
         21   -1    0    0  504  501  0.00000000000E+00  0.00000000000E+00  0.13424805034E+02  0.13424805034E+02  0.00000000000E+00 0. -1.
         21   -1    0    0  503  502 -0.00000000000E+00 -0.00000000000E+00 -0.39673580199E+02  0.39673580199E+02  0.00000000000E+00 0. -1.
         21    1    1    2  503  501 -0.18469303502E+02  0.12527408735E+02 -0.63615832831E+01  0.23206052730E+02  0.00000000000E+00 0. -1.
         21    1    1    2  504  502  0.18469303502E+02 -0.12527408735E+02 -0.19887191882E+02  0.29892332502E+02  0.00000000000E+00 0. -1.
</event>
<event>
 4    1  0.3080871E+006  0.3910612E+02  0.7546771E-02  0.1353805E+00
         21   -1    0    0  503  501  0.00000000000E+00  0.00000000000E+00  0.54953627497E+03  0.54953627497E+03  0.00000000000E+00 0. -1.
         21   -1    0    0  501  502 -0.00000000000E+00 -0.00000000000E+00 -0.16964351840E+02  0.16964351840E+02  0.00000000000E+00 0. -1.
         21    1    1    2  503  504  0.39102932323E+02  0.49965373618E+00  0.52526376526E+03  0.52671748790E+03  0.00000000000E+00 0. -1.
         21    1    1    2  504  502 -0.39102932323E+02 -0.49965373618E+00  0.73081578779E+01  0.39783138912E+02  0.00000000000E+00 0. -1.
</event>
<event>
 4    1  0.3080871E+006  0.3403755E+02  0.7546771E-02  0.1387459E+00
         21   -1    0    0  504  501  0.00000000000E+00  0.00000000000E+00  0.14038550411E+03  0.14038550411E+03  0.00000000000E+00 0.  1.
         21   -1    0    0  503  502 -0.00000000000E+00 -0.00000000000E+00 -0.95600570090E+03  0.95600570090E+03  0.00000000000E+00 0.  1.
         21    1    1    2  503  501 -0.26503963865E+02  0.21356369773E+02 -0.95363443845E+03  0.95424168680E+03  0.00000000000E+00 0.  1.
         21    1    1    2  504  502  0.26503963865E+02 -0.21356369773E+02  0.13801424165E+03  0.14214951822E+03  0.00000000000E+00 0.  1.
</event>
<event>
 4    1  0.3080871E+006  0.2558136E+02  0.7546771E-02  0.1462404E+00
         21   -1    0    0  502  501  0.00000000000E+00  0.00000000000E+00  0.15895154542E+02  0.15895154542E+02  0.00000000000E+00 0.  1.
         21   -1    0    0  504  502 -0.00000000000E+00 -0.00000000000E+00 -0.72670728289E+02  0.72670728289E+02  0.00000000000E+00 0.  1.
         21    1    1    2  503  501  0.13573329451E+02 -0.21683419844E+02  0.76740717404E+00  0.25592867801E+02  0.00000000000E+00 0.  1.
         21    1    1    2  504  503 -0.13573329451E+02  0.21683419844E+02 -0.57542980922E+02  0.62973015030E+02  0.00000000000E+00 0.  1.
</event>
<event>
 4    1  0.3080871E+006  0.2267878E+02  0.7546771E-02  0.1496572E+00
         21   -1    0    0  504  501  0.00000000000E+00  0.00000000000E+00  0.45661598355E+01  0.45661598355E+01  0.00000000000E+00 0. -1.
         21   -1    0    0  503  502 -0.00000000000E+00 -0.00000000000E+00 -0.12168927744E+03  0.12168927744E+03  0.00000000000E+00 0. -1.
         21    1    1    2  503  501  0.75792461867E+01  0.21374802779E+02 -0.75777373150E+02  0.79098277150E+02  0.00000000000E+00 0. -1.
         21    1    1    2  504  502 -0.75792461867E+01 -0.21374802779E+02 -0.41345744456E+02  0.47157160127E+02  0.00000000000E+00 0. -1.
</event>
<event>
 4    1  0.3080871E+006  0.3854137E+02  0.7546771E-02  0.1357252E+00
         21   -1    0    0  504  501  0.00000000000E+00  0.00000000000E+00  0.13423401409E+03  0.13423401409E+03  0.00000000000E+00 0.  1.
         21   -1    0    0  503  502 -0.00000000000E+00 -0.00000000000E+00 -0.17860497044E+02  0.17860497044E+02  0.00000000000E+00 0.  1.
         21    1    1    2  503  501  0.23845322391E+02 -0.30279333583E+02  0.11282257801E+02  0.40158769693E+02  0.00000000000E+00 0.  1.
         21    1    1    2  504  502 -0.23845322391E+02  0.30279333583E+02  0.10509125924E+03  0.11193574144E+03  0.00000000000E+00 0.  1.
</event>
<event>
 4    1  0.3080871E+006  0.2269587E+02  0.7546771E-02  0.1496353E+00
         21   -1    0    0  502  501  0.00000000000E+00  0.00000000000E+00  0.10250465360E+03  0.10250465360E+03  0.00000000000E+00 0.  1.
         21   -1    0    0  503  502 -0.00000000000E+00 -0.00000000000E+00 -0.11533753372E+03  0.11533753372E+03  0.00000000000E+00 0. -1.
         21    1    1    2  503  504  0.16339143049E+02 -0.15752304191E+02 -0.11293830724E+03  0.11519619753E+03  0.00000000000E+00 0. -1.
         21    1    1    2  504  501 -0.16339143049E+02  0.15752304191E+02  0.10010542712E+03  0.10264598980E+03  0.00000000000E+00 0.  1.
</event>
<event>
 4    1  0.3080871E+006  0.2472060E+02  0.7546771E-02  0.1471953E+00
         21   -1    0    0  504  501  0.00000000000E+00  0.00000000000E+00  0.10525352825E+02  0.10525352825E+02  0.00000000000E+00 0.  1.
         21   -1    0    0  503  502 -0.00000000000E+00 -0.00000000000E+00 -0.58884780244E+02  0.58884780244E+02  0.00000000000E+00 0.  1.
         21    1    1    2  503  501  0.84041077997E+01  0.23248203386E+02 -0.28285631534E+02  0.37565741572E+02  0.00000000000E+00 0.  1.
         21    1    1    2  504  502 -0.84041077997E+01 -0.23248203386E+02 -0.20073795886E+02  0.31844391497E+02  0.00000000000E+00 0.  1.
</event>
<event>
 4    1  0.3080871E+006  0.2205778E+02  0.7546771E-02  0.1504681E+00
         21   -1    0    0  504  501  0.00000000000E+00  0.00000000000E+00  0.34914932091E+02  0.34914932091E+02  0.00000000000E+00 0.  1.
         21   -1    0    0  501  502 -0.00000000000E+00 -0.00000000000E+00 -0.42370056300E+02  0.42370056300E+02  0.00000000000E+00 0. -1.
         21    1    1    2  503  502 -0.21298973062E+02  0.57358142891E+01 -0.35383946524E+02  0.41696156786E+02  0.00000000000E+00 0. -1.
         21    1    1    2  504  503  0.21298973062E+02 -0.57358142891E+01  0.27928822316E+02  0.35588831605E+02  0.00000000000E+00 0.  1.
</event>
<event>
 4    1  0.3080871E+006  0.2833271E+02  0.7546771E-02  0.1434661E+00
         21   -1    0    0  504  501  0.00000000000E+00  0.00000000000E+00  0.42312351063E+02  0.42312351063E+02  0.00000000000E+00 0.  1.
         21   -1    0    0  501  502 -0.00000000000E+00 -0.00000000000E+00 -0.91081282050E+02  0.91081282050E+02  0.00000000000E+00 0.  1.
         21    1    1    2  503  502 -0.21190430567E+02  0.18807124689E+02 -0.83729811642E+02  0.88393572415E+02  0.00000000000E+00 0.  1.
         21    1    1    2  504  503  0.21190430567E+02 -0.18807124689E+02  0.34960880655E+02  0.45000060699E+02  0.00000000000E+00 0.  1.
</event>
<event>
 4    1  0.3080871E+006  0.2280216E+02  0.7546771E-02  0.1494998E+00
         21   -1    0    0  502  501  0.00000000000E+00  0.00000000000E+00  0.32743626351E+02  0.32743626351E+02  0.00000000000E+00 0. -1.
         21   -1    0    0  503  502 -0.00000000000E+00 -0.00000000000E+00 -0.17745091301E+02  0.17745091301E+02  0.00000000000E+00 0. -1.
         21    1    1    2  503  504 -0.13660002269E+02 -0.18257673956E+02 -0.68695556783E+00  0.22812501578E+02  0.00000000000E+00 0. -1.
         21    1    1    2  504  501  0.13660002269E+02  0.18257673956E+02  0.15685490618E+02  0.27676216074E+02  0.00000000000E+00 0. -1.
</event>
<event>
 4    1  0.3080871E+006  0.2088596E+02  0.7546771E-02  0.1520899E+00
         21   -1    0    0  502  501  0.00000000000E+00  0.00000000000E+00  0.56679094263E+01  0.56679094263E+01  0.00000000000E+00 0.  1.
         21   -1    0    0  503  502 -0.00000000000E+00 -0.00000000000E+00 -0.14953860026E+03  0.14953860026E+03  0.00000000000E+00 0.  1.
         21    1    1    2  503  504  0.46685011942E+01 -0.20357511636E+02 -0.12599789915E+03  0.12771724149E+03  0.00000000000E+00 0.  1.
         21    1    1    2  504  501 -0.46685011942E+01  0.20357511636E+02 -0.17872791682E+02  0.27489268196E+02  0.00000000000E+00 0.  1.
</event>
<event>
 4    1  0.3080871E+006  0.2631022E+02  0.7546771E-02  0.1454663E+00
         21   -1    0    0  504  501  0.00000000000E+00  0.00000000000E+00  0.66198092841E+01  0.66198092841E+01  0.00000000000E+00 0. -1.
         21   -1    0    0  503  502 -0.00000000000E+00 -0.00000000000E+00 -0.14147853052E+03  0.14147853052E+03  0.00000000000E+00 0.  1.
         21    1    1    2  503  501  0.26025992649E+02  0.38568301056E+01 -0.10525128797E+03  0.10848991221E+03  0.00000000000E+00 0.  1.
         21    1    1    2  504  502 -0.26025992649E+02 -0.38568301056E+01 -0.29607433262E+02  0.39608427591E+02  0.00000000000E+00 0. -1.
</event>
<event>
 4    1  0.3080871E+006  0.2076193E+02  0.7546771E-02  0.1522691E+00
         21   -1    0    0  504  501  0.00000000000E+00  0.00000000000E+00  0.62890288686E+02  0.62890288686E+02  0.00000000000E+00 0.  1.
         21   -1    0    0  503  502 -0.00000000000E+00 -0.00000000000E+00 -0.64420111651E+03  0.64420111651E+03  0.00000000000E+00 0.  1.
         21    1    1    2  503  501  0.15862317938E+02  0.13395698588E+02  0.61004444030E+02  0.64440670872E+02  0.00000000000E+00 0.  1.
         21    1    1    2  504  502 -0.15862317938E+02 -0.13395698588E+02 -0.64231527186E+03  0.64265073433E+03  0.00000000000E+00 0.  1.
</event>
<event>
 4    1  0.3080871E+006  0.2003836E+02  0.7546771E-02  0.1533450E+00
         21   -1    0    0  502  501  0.00000000000E+00  0.00000000000E+00  0.93440323268E+01  0.93440323268E+01  0.00000000000E+00 0.  1.
         21   -1    0    0  504  502 -0.00000000000E+00 -0.00000000000E+00 -0.59060762720E+02  0.59060762720E+02  0.00000000000E+00 0. -1.
         21    1    1    2  503  501 -0.17947709063E+02  0.89115394658E+01 -0.70073666853E+01  0.21228259093E+02  0.00000000000E+00 0.  1.
         21    1    1    2  504  503  0.17947709063E+02 -0.89115394658E+01 -0.42709363708E+02  0.47176535954E+02  0.00000000000E+00 0. -1.
</event>
<event>
 4    1  0.3080871E+006  0.2000229E+02  0.7546771E-02  0.1534001E+00
         21   -1    0    0  504  501  0.00000000000E+00  0.00000000000E+00  0.35642549964E+02  0.35642549964E+02  0.00000000000E+00 0.  1.
         21   -1    0    0  503  502 -0.00000000000E+00 -0.00000000000E+00 -0.11236062125E+02  0.11236062125E+02  0.00000000000E+00 0.  1.
         21    1    1    2  503  501 -0.11843755076E+02  0.16118837927E+02  0.12935103602E+02  0.23820335338E+02  0.00000000000E+00 0.  1.
         21    1    1    2  504  502  0.11843755076E+02 -0.16118837927E+02  0.11471384236E+02  0.23058276751E+02  0.00000000000E+00 0.  1.
</event>
<event>
 4    1  0.3080871E+006  0.4450184E+02  0.7546771E-02  0.1323949E+00
         21   -1    0    0  504  501  0.00000000000E+00  0.00000000000E+00  0.11449249193E+02  0.11449249193E+02  0.00000000000E+00 0.  1.
         21   -1    0    0  503  502 -0.00000000000E+00 -0.00000000000E+00 -0.17300103088E+03  0.17300103088E+03  0.00000000000E+00 0.  1.
         21    1    1    2  503  501  0.38672993416E+02  0.22018467774E+02 -0.81945495749E+02  0.93249544859E+02  0.00000000000E+00 0.  1.
         21    1    1    2  504  502 -0.38672993416E+02 -0.22018467774E+02 -0.79606285939E+02  0.91200735216E+02  0.00000000000E+00 0.  1.
</event>
<event>
 4    1  0.3080871E+006  0.2088446E+02  0.7546771E-02  0.1520921E+00
         21   -1    0    0  504  501  0.00000000000E+00  0.00000000000E+00  0.91429409738E+00  0.91429409738E+00  0.00000000000E+00 0.  1.
         21   -1    0    0  503  502 -0.00000000000E+00 -0.00000000000E+00 -0.51615085267E+03  0.51615085267E+03  0.00000000000E+00 0.  1.
         21    1    1    2  503  501 -0.20713652183E+02  0.26655725974E+01 -0.18645756222E+03  0.18762351445E+03  0.00000000000E+00 0.  1.
         21    1    1    2  504  502  0.20713652183E+02 -0.26655725974E+01 -0.32877899635E+03  0.32944163232E+03  0.00000000000E+00 0.  1.
</event>
<event>
 4    1  0.3080871E+006  0.3023068E+02  0.7546771E-02  0.1417602E+00
         21   -1    0    0  503  501  0.00000000000E+00  0.00000000000E+00  0.13491295267E+03  0.13491295267E+03  0.00000000000E+00 0. -1.
         21   -1    0    0  501  502 -0.00000000000E+00 -0.00000000000E+00 -0.76087462750E+01  0.76087462750E+01  0.00000000000E+00 0. -1.
         21    1    1    2  503  504 -0.12132923249E+02  0.27689103021E+02  0.40048221534E+02  0.50177228906E+02  0.00000000000E+00 0. -1.
         21    1    1    2  504  502  0.12132923249E+02 -0.27689103021E+02  0.87255984857E+02  0.92344470035E+02  0.00000000000E+00 0. -1.
</event>
<event>
 4    1  0.3080871E+006  0.2049288E+02  0.7546771E-02  0.1526630E+00
         21   -1    0    0  504  501  0.00000000000E+00  0.00000000000E+00  0.58950638215E+02  0.58950638215E+02  0.00000000000E+00 0. -1.
         21   -1    0    0  503  502 -0.00000000000E+00 -0.00000000000E+00 -0.27683129592E+03  0.27683129592E+03  0.00000000000E+00 0.  1.
         21    1    1    2  503  501 -0.20272495265E+02  0.29973206167E+01  0.56776331301E+02  0.60361492619E+02  0.00000000000E+00 0. -1.
         21    1    1    2  504  502  0.20272495265E+02 -0.29973206167E+01 -0.27465698900E+03  0.27542044151E+03  0.00000000000E+00 0.  1.
</event>
<event>
 4    1  0.3080871E+006  0.2648544E+02  0.7546771E-02  0.1452847E+00
         21   -1    0    0  504  501  0.00000000000E+00  0.00000000000E+00  0.75730700167E+03  0.75730700167E+03  0.00000000000E+00 0. -1.
         21   -1    0    0  503  502 -0.00000000000E+00 -0.00000000000E+00 -0.17018847103E+02  0.17018847103E+02  0.00000000000E+00 0. -1.
         21    1    1    2  503  501 -0.55150180356E+01  0.25904887289E+02 -0.63354397195E+01  0.27232634941E+02  0.00000000000E+00 0. -1.
         21    1    1    2  504  502  0.55150180356E+01 -0.25904887289E+02  0.74662359428E+03  0.74709321383E+03  0.00000000000E+00 0. -1.
</event>
<event>
 4    1  0.3080871E+006  0.2810244E+02  0.7546771E-02  0.1436837E+00
         21   -1    0    0  502  501  0.00000000000E+00  0.00000000000E+00  0.99484186044E+03  0.99484186044E+03  0.00000000000E+00 0. -1.
         21   -1    0    0  503  502 -0.00000000000E+00 -0.00000000000E+00 -0.49752784949E+03  0.49752784949E+03  0.00000000000E+00 0. -1.
         21    1    1    2  503  504  0.24407725925E+02  0.13928756049E+02 -0.49693231558E+03  0.49772630390E+03  0.00000000000E+00 0. -1.
         21    1    1    2  504  501 -0.24407725925E+02 -0.13928756049E+02  0.99424632653E+03  0.99464340603E+03  0.00000000000E+00 0. -1.
</event>
<event>
 4    1  0.3080871E+006  0.5760420E+02  0.7546771E-02  0.1268197E+00
         21   -1    0    0  503  501  0.00000000000E+00  0.00000000000E+00  0.32895490999E+03  0.32895490999E+03  0.00000000000E+00 0.  1.
         21   -1    0    0  504  502 -0.00000000000E+00 -0.00000000000E+00 -0.10520138643E+02  0.10520138643E+02  0.00000000000E+00 0.  1.
         21    1    1    2  503  502 -0.57566360625E+02  0.20874633837E+01  0.19364967970E+03  0.20203574393E+03  0.00000000000E+00 0.  1.
         21    1    1    2  504  501  0.57566360625E+02 -0.20874633837E+01  0.12478509165E+03  0.13743930470E+03  0.00000000000E+00 0.  1.
</event>
<event>
 4    1  0.3080871E+006  0.2054534E+02  0.7546771E-02  0.1525856E+00
         21   -1    0    0  504  501  0.00000000000E+00  0.00000000000E+00  0.40950662866E+03  0.40950662866E+03  0.00000000000E+00 0. -1.
         21   -1    0    0  503  502 -0.00000000000E+00 -0.00000000000E+00 -0.56551260277E+01  0.56551260277E+01  0.00000000000E+00 0.  1.
         21    1    1    2  503  501 -0.18664768526E+02 -0.85870377668E+01  0.14214021580E+02  0.24982978430E+02  0.00000000000E+00 0.  1.
         21    1    1    2  504  502  0.18664768526E+02  0.85870377668E+01  0.38963748105E+03  0.39017877625E+03  0.00000000000E+00 0. -1.
</event>
<event>
 4    1  0.3080871E+006  0.3071210E+02  0.7546771E-02  0.1413507E+00
         21   -1    0    0  504  501  0.00000000000E+00  0.00000000000E+00  0.31915922577E+03  0.31915922577E+03  0.00000000000E+00 0.  1.
         21   -1    0    0  503  502 -0.00000000000E+00 -0.00000000000E+00 -0.54505914258E+01  0.54505914258E+01  0.00000000000E+00 0.  1.
         21    1    1    2  503  501 -0.12200599682E+02  0.28184715892E+02  0.26667005716E+03  0.26843277040E+03  0.00000000000E+00 0.  1.
         21    1    1    2  504  502  0.12200599682E+02 -0.28184715892E+02  0.47038577188E+02  0.56177046793E+02  0.00000000000E+00 0.  1.
</event>
<event>
 4    1  0.3080871E+006  0.2622613E+02  0.7546771E-02  0.1455541E+00
         21   -1    0    0  504  501  0.00000000000E+00  0.00000000000E+00  0.13438679836E+02  0.13438679836E+02  0.00000000000E+00 0.  1.
         21   -1    0    0  503  502 -0.00000000000E+00 -0.00000000000E+00 -0.26700342374E+03  0.26700342374E+03  0.00000000000E+00 0.  1.
         21    1    1    2  503  501  0.39387644346E+01 -0.25928669305E+02 -0.25284975488E+03  0.25420623183E+03  0.00000000000E+00 0.  1.
         21    1    1    2  504  502 -0.39387644346E+01  0.25928669305E+02 -0.71498902696E+00  0.26235871750E+02  0.00000000000E+00 0.  1.
</event>
<event>
 4    1  0.3080871E+006  0.3410549E+02  0.7546771E-02  0.1386963E+00
         21   -1    0    0  504  501  0.00000000000E+00  0.00000000000E+00  0.11706065625E+02  0.11706065625E+02  0.00000000000E+00 0.  1.
         21   -1    0    0  501  502 -0.00000000000E+00 -0.00000000000E+00 -0.15721734628E+04  0.15721734628E+04  0.00000000000E+00 0.  1.
         21    1    1    2  503  502  0.81038945148E+01  0.33128706967E+02 -0.15467385618E+04  0.15471145280E+04  0.00000000000E+00 0.  1.
         21    1    1    2  504  503 -0.81038945148E+01 -0.33128706967E+02 -0.13728835362E+02  0.36765000367E+02  0.00000000000E+00 0.  1.
</event>
<event>
 4    1  0.3080871E+006  0.2968551E+02  0.7546771E-02  0.1422349E+00
         21   -1    0    0  502  501  0.00000000000E+00  0.00000000000E+00  0.27205388884E+02  0.27205388884E+02  0.00000000000E+00 0. -1.
         21   -1    0    0  504  502 -0.00000000000E+00 -0.00000000000E+00 -0.63451958796E+02  0.63451958796E+02  0.00000000000E+00 0. -1.
         21    1    1    2  503  501 -0.27774973686E+02  0.10477607222E+02  0.13590850140E+02  0.32648746131E+02  0.00000000000E+00 0. -1.
         21    1    1    2  504  503  0.27774973686E+02 -0.10477607222E+02 -0.49837420052E+02  0.58008601550E+02  0.00000000000E+00 0. -1.
</event>
<event>
 4    1  0.3080871E+006  0.2094955E+02  0.7546771E-02  0.1519986E+00
         21   -1    0    0  502  501  0.00000000000E+00  0.00000000000E+00  0.74331845189E+02  0.74331845189E+02  0.00000000000E+00 0.  1.
         21   -1    0    0  504  502 -0.00000000000E+00 -0.00000000000E+00 -0.14357571752E+03  0.14357571752E+03  0.00000000000E+00 0.  1.
         21    1    1    2  503  501  0.13656971647E+02  0.15886186891E+02  0.72068027762E+02  0.75051212076E+02  0.00000000000E+00 0.  1.
         21    1    1    2  504  503 -0.13656971647E+02 -0.15886186891E+02 -0.14131190010E+03  0.14285635064E+03  0.00000000000E+00 0.  1.
</event>
<event>
 4    1  0.3080871E+006  0.2003224E+02  0.7546771E-02  0.1533543E+00
         21   -1    0    0  503  501  0.00000000000E+00  0.00000000000E+00  0.20198030764E+03  0.20198030764E+03  0.00000000000E+00 0.  1.
         21   -1    0    0  504  502 -0.00000000000E+00 -0.00000000000E+00 -0.45741405910E+01  0.45741405910E+01  0.00000000000E+00 0. -1.
         21    1    1    2  503  502 -0.40407380872E+01 -0.19620474101E+02  0.17637754060E+03  0.17751148525E+03  0.00000000000E+00 0.  1.
         21    1    1    2  504  501  0.40407380872E+01  0.19620474101E+02  0.21028626448E+02  0.29042962978E+02  0.00000000000E+00 0. -1.
</event>
<event>
 4    1  0.3080871E+006  0.3273755E+02  0.7546771E-02  0.1397207E+00
         21   -1    0    0  504  501  0.00000000000E+00  0.00000000000E+00  0.14463654121E+02  0.14463654121E+02  0.00000000000E+00 0.  1.
         21   -1    0    0  501  502 -0.00000000000E+00 -0.00000000000E+00 -0.77695523982E+02  0.77695523982E+02  0.00000000000E+00 0.  1.
         21    1    1    2  503  502  0.32536670559E+02  0.36210481060E+01 -0.41529567469E+02  0.52881489149E+02  0.00000000000E+00 0.  1.
         21    1    1    2  504  503 -0.32536670559E+02 -0.36210481060E+01 -0.21702302393E+02  0.39277688954E+02  0.00000000000E+00 0.  1.
</event>
<event>
 4    1  0.3080871E+006  0.2636977E+02  0.7546771E-02  0.1454044E+00
         21   -1    0    0  503  501  0.00000000000E+00  0.00000000000E+00  0.78002062112E+03  0.78002062112E+03  0.00000000000E+00 0.  1.
         21   -1    0    0  501  502 -0.00000000000E+00 -0.00000000000E+00 -0.12587042846E+03  0.12587042846E+03  0.00000000000E+00 0. -1.
         21    1    1    2  503  504 -0.15294565352E+02 -0.21481177225E+02  0.77841379146E+03  0.77886031831E+03  0.00000000000E+00 0.  1.
         21    1    1    2  504  502  0.15294565352E+02  0.21481177225E+02 -0.12426359879E+03  0.12703073128E+03  0.00000000000E+00 0. -1.
</event>
<event>
 4    1  0.3080871E+006  0.2282646E+02  0.7546771E-02  0.1494689E+00
         21   -1    0    0  504  501  0.00000000000E+00  0.00000000000E+00  0.87391018174E+02  0.87391018174E+02  0.00000000000E+00 0. -1.
         21   -1    0    0  501  502 -0.00000000000E+00 -0.00000000000E+00 -0.16532570826E+02  0.16532570826E+02  0.00000000000E+00 0. -1.
         21    1    1    2  503  502  0.37917915819E+01 -0.22509319665E+02 -0.61195314585E+01  0.23632516169E+02  0.00000000000E+00 0. -1.
         21    1    1    2  504  503 -0.37917915819E+01  0.22509319665E+02  0.76977978807E+02  0.80291072831E+02  0.00000000000E+00 0. -1.
</event>
<event>
 4    1  0.3080871E+006  0.2261300E+02  0.7546771E-02  0.1497416E+00
         21   -1    0    0  503  501  0.00000000000E+00  0.00000000000E+00  0.11424794607E+03  0.11424794607E+03  0.00000000000E+00 0. -1.
         21   -1    0    0  504  502 -0.00000000000E+00 -0.00000000000E+00 -0.63759168701E+01  0.63759168701E+01  0.00000000000E+00 0. -1.
         21    1    1    2  503  502  0.15039922561E+02  0.16886342478E+02  0.21011059171E+02  0.30867660105E+02  0.00000000000E+00 0. -1.
         21    1    1    2  504  501 -0.15039922561E+02 -0.16886342478E+02  0.86860970034E+02  0.89756202839E+02  0.00000000000E+00 0. -1.
</event>
<event>
 4    1  0.3080871E+006  0.3640188E+02  0.7546771E-02  0.1370967E+00
         21   -1    0    0  503  501  0.00000000000E+00  0.00000000000E+00  0.58585351190E+02  0.58585351190E+02  0.00000000000E+00 0. -1.
         21   -1    0    0  504  502 -0.00000000000E+00 -0.00000000000E+00 -0.27109429556E+02  0.27109429556E+02  0.00000000000E+00 0. -1.
         21    1    1    2  503  502  0.35591944982E+02 -0.76361338998E+01  0.33177911271E+02  0.49253130711E+02  0.00000000000E+00 0. -1.
         21    1    1    2  504  501 -0.35591944982E+02  0.76361338998E+01 -0.17019896369E+01  0.36441650035E+02  0.00000000000E+00 0. -1.
</event>
<event>
 4    1  0.3080871E+006  0.2319082E+02  0.7546771E-02  0.1490116E+00
         21   -1    0    0  503  501  0.00000000000E+00  0.00000000000E+00  0.36049450088E+01  0.36049450088E+01  0.00000000000E+00 0.  1.
         21   -1    0    0  504  502 -0.00000000000E+00 -0.00000000000E+00 -0.14923465386E+03  0.14923465386E+03  0.00000000000E+00 0.  1.
         21    1    1    2  503  502  0.18859519346E+02  0.13495646521E+02 -0.71461297449E+02  0.75130093692E+02  0.00000000000E+00 0.  1.
         21    1    1    2  504  501 -0.18859519346E+02 -0.13495646521E+02 -0.74168411399E+02  0.77709505174E+02  0.00000000000E+00 0.  1.
</event>
<event>
 4    1  0.3080871E+006  0.3779692E+02  0.7546771E-02  0.1361903E+00
         21   -1    0    0  503  501  0.00000000000E+00  0.00000000000E+00  0.42249765290E+02  0.42249765290E+02  0.00000000000E+00 0. -1.
         21   -1    0    0  501  502 -0.00000000000E+00 -0.00000000000E+00 -0.66374401713E+03  0.66374401713E+03  0.00000000000E+00 0. -1.
         21    1    1    2  503  504 -0.91706251705E+01 -0.36667519640E+02  0.33140806902E+02  0.50268483612E+02  0.00000000000E+00 0. -1.
         21    1    1    2  504  502  0.91706251705E+01  0.36667519640E+02 -0.65463505874E+03  0.65572529881E+03  0.00000000000E+00 0. -1.
</event>
<event>
 4    1  0.3080871E+006  0.3192904E+02  0.7546771E-02  0.1403542E+00
         21   -1    0    0  504  501  0.00000000000E+00  0.00000000000E+00  0.47463475104E+02  0.47463475104E+02  0.00000000000E+00 0.  1.
         21   -1    0    0  501  502 -0.00000000000E+00 -0.00000000000E+00 -0.25997955918E+03  0.25997955918E+03  0.00000000000E+00 0.  1.
         21    1    1    2  503  502  0.14138159973E+02 -0.28628241568E+02 -0.25349262885E+03  0.25549555116E+03  0.00000000000E+00 0.  1.
         21    1    1    2  504  503 -0.14138159973E+02  0.28628241568E+02  0.40976544765E+02  0.51947483131E+02  0.00000000000E+00 0.  1.
</event>
<event>
 4    1  0.3080871E+006  0.2278875E+02  0.7546771E-02  0.1495168E+00
         21   -1    0    0  503  501  0.00000000000E+00  0.00000000000E+00  0.12453147206E+01  0.12453147206E+01  0.00000000000E+00 0. -1.
         21   -1    0    0  504  502 -0.00000000000E+00 -0.00000000000E+00 -0.42660651033E+03  0.42660651033E+03  0.00000000000E+00 0. -1.
         21    1    1    2  503  502 -0.11658466906E+02  0.19580789583E+02 -0.18062009855E+03  0.18205204523E+03  0.00000000000E+00 0. -1.
         21    1    1    2  504  501  0.11658466906E+02 -0.19580789583E+02 -0.24474109706E+03  0.24579977982E+03  0.00000000000E+00 0. -1.
</event>
<event>
 4    1  0.3080871E+006  0.2911255E+02  0.7546771E-02  0.1427468E+00
         21   -1    0    0  504  501  0.00000000000E+00  0.00000000000E+00  0.14174995523E+03  0.14174995523E+03  0.00000000000E+00 0. -1.
         21   -1    0    0  503  502 -0.00000000000E+00 -0.00000000000E+00 -0.61133245876E+01  0.61133245876E+01  0.00000000000E+00 0. -1.
         21    1    1    2  503  501  0.66202305571E+01 -0.28349832333E+02  0.78772249192E+02  0.83979805243E+02  0.00000000000E+00 0. -1.
         21    1    1    2  504  502 -0.66202305571E+01  0.28349832333E+02  0.56864381448E+02  0.63883474572E+02  0.00000000000E+00 0. -1.
</event>
<event>
 4    1  0.3080871E+006  0.2019718E+02  0.7546771E-02  0.1531042E+00
         21   -1    0    0  503  501  0.00000000000E+00  0.00000000000E+00  0.11866356581E+03  0.11866356581E+03  0.00000000000E+00 0.  1.
         21   -1    0    0  504  502 -0.00000000000E+00 -0.00000000000E+00 -0.32311487277E+02  0.32311487277E+02  0.00000000000E+00 0.  1.
         21    1    1    2  503  502 -0.20173999984E+02  0.96746831532E+00  0.11453504941E+03  0.11630220898E+03  0.00000000000E+00 0.  1.
         21    1    1    2  504  501  0.20173999984E+02 -0.96746831532E+00 -0.28182970883E+02  0.34672844102E+02  0.00000000000E+00 0.  1.
</event>
<event>
 4    1  0.3080871E+006  0.2373503E+02  0.7546771E-02  0.1483469E+00
         21   -1    0    0  503  501  0.00000000000E+00  0.00000000000E+00  0.37770198550E+02  0.37770198550E+02  0.00000000000E+00 0.  1.
         21   -1    0    0  501  502 -0.00000000000E+00 -0.00000000000E+00 -0.84088938373E+02  0.84088938373E+02  0.00000000000E+00 0. -1.
         21    1    1    2  503  504  0.17344499472E+02  0.16202468341E+02  0.32102956013E+02  0.39924321247E+02  0.00000000000E+00 0.  1.
         21    1    1    2  504  502 -0.17344499472E+02 -0.16202468341E+02 -0.78421695835E+02  0.81934815676E+02  0.00000000000E+00 0. -1.
</event>
<event>
 4    1  0.3080871E+006  0.3587226E+02  0.7546771E-02  0.1374533E+00
         21   -1    0    0  502  501  0.00000000000E+00  0.00000000000E+00  0.50917403874E+02  0.50917403874E+02  0.00000000000E+00 0. -1.
         21   -1    0    0  504  502 -0.00000000000E+00 -0.00000000000E+00 -0.46042815911E+02  0.46042815911E+02  0.00000000000E+00 0. -1.
         21    1    1    2  503  501 -0.13712449806E+02  0.33147968840E+02  0.34998640385E+02  0.50117102337E+02  0.00000000000E+00 0. -1.
         21    1    1    2  504  503  0.13712449806E+02 -0.33147968840E+02 -0.30124052423E+02  0.46843117448E+02  0.00000000000E+00 0. -1.
</event>
<event>
 4    1  0.3080871E+006  0.2009676E+02  0.7546771E-02  0.1532562E+00
         21   -1    0    0  503  501  0.00000000000E+00  0.00000000000E+00  0.27091610957E+03  0.27091610957E+03  0.00000000000E+00 0. -1.
         21   -1    0    0  504  502 -0.00000000000E+00 -0.00000000000E+00 -0.10140948057E+02  0.10140948057E+02  0.00000000000E+00 0.  1.
         21    1    1    2  503  502 -0.19834024051E+02  0.32390404882E+01  0.59879726950E+00  0.20105682071E+02  0.00000000000E+00 0.  1.
         21    1    1    2  504  501  0.19834024051E+02 -0.32390404882E+01  0.26017636425E+03  0.26095137556E+03  0.00000000000E+00 0. -1.
</event>
<event>
 4    1  0.3080871E+006  0.2435492E+02  0.7546771E-02  0.1476151E+00
         21   -1    0    0  504  501  0.00000000000E+00  0.00000000000E+00  0.17817912210E+03  0.17817912210E+03  0.00000000000E+00 0.  1.
         21   -1    0    0  501  502 -0.00000000000E+00 -0.00000000000E+00 -0.35735005186E+01  0.35735005186E+01  0.00000000000E+00 0.  1.
         21    1    1    2  503  502  0.24011593624E+02 -0.40749623885E+01  0.63533014090E+02  0.68041206825E+02  0.00000000000E+00 0.  1.
         21    1    1    2  504  503 -0.24011593624E+02  0.40749623885E+01  0.11107260749E+03  0.11371141579E+03  0.00000000000E+00 0.  1.
</event>
<event>
 4    1  0.3080871E+006  0.2545753E+02  0.7546771E-02  0.1463750E+00
         21   -1    0    0  503  501  0.00000000000E+00  0.00000000000E+00  0.81325001740E+02  0.81325001740E+02  0.00000000000E+00 0. -1.
         21   -1    0    0  504  502 -0.00000000000E+00 -0.00000000000E+00 -0.82250455201E+01  0.82250455201E+01  0.00000000000E+00 0. -1.
         21    1    1    2  503  502 -0.21870647513E+02 -0.13029220629E+02  0.28651315492E+02  0.38327323051E+02  0.00000000000E+00 0. -1.
         21    1    1    2  504  501  0.21870647513E+02  0.13029220629E+02  0.44448640728E+02  0.51222724209E+02  0.00000000000E+00 0. -1.
</event>
<event>
 4    1  0.3080871E+006  0.2160082E+02  0.7546771E-02  0.1510857E+00
         21   -1    0    0  502  501  0.00000000000E+00  0.00000000000E+00  0.16546246169E+03  0.16546246169E+03  0.00000000000E+00 0. -1.
         21   -1    0    0  504  502 -0.00000000000E+00 -0.00000000000E+00 -0.11683325059E+02  0.11683325059E+02  0.00000000000E+00 0.  1.
         21    1    1    2  503  501  0.12232391663E+02  0.17803486486E+02  0.15403624362E+03  0.15554343408E+03  0.00000000000E+00 0. -1.
         21    1    1    2  504  503 -0.12232391663E+02 -0.17803486486E+02 -0.25710698776E+00  0.21602352670E+02  0.00000000000E+00 0.  1.
</event>
<event>
 4    1  0.3080871E+006  0.2258562E+02  0.7546771E-02  0.1497768E+00
         21   -1    0    0  503  501  0.00000000000E+00  0.00000000000E+00  0.94363991571E+02  0.94363991571E+02  0.00000000000E+00 0.  1.
         21   -1    0    0  501  502 -0.00000000000E+00 -0.00000000000E+00 -0.87187696176E+01  0.87187696176E+01  0.00000000000E+00 0.  1.
         21    1    1    2  503  504  0.35849266437E+01  0.22299298238E+02  0.74594196249E+02  0.77938466208E+02  0.00000000000E+00 0.  1.
         21    1    1    2  504  502 -0.35849266437E+01 -0.22299298238E+02  0.11051025705E+02  0.25144294980E+02  0.00000000000E+00 0.  1.
</event>
<event>
 4    1  0.3080871E+006  0.3035327E+02  0.7546771E-02  0.1416551E+00
         21   -1    0    0  503  501  0.00000000000E+00  0.00000000000E+00  0.11655769671E+02  0.11655769671E+02  0.00000000000E+00 0. -1.
         21   -1    0    0  504  502 -0.00000000000E+00 -0.00000000000E+00 -0.10263022591E+03  0.10263022591E+03  0.00000000000E+00 0. -1.
         21    1    1    2  503  502  0.21029403773E+01  0.30280334599E+02 -0.72881056945E+02  0.78949157583E+02  0.00000000000E+00 0. -1.
         21    1    1    2  504  501 -0.21029403773E+01 -0.30280334599E+02 -0.18093399294E+02  0.35336837998E+02  0.00000000000E+00 0. -1.
</event>
<event>
 4    1  0.3080871E+006  0.3144502E+02  0.7546771E-02  0.1407441E+00
         21   -1    0    0  503  501  0.00000000000E+00  0.00000000000E+00  0.25003177130E+02  0.25003177130E+02  0.00000000000E+00 0.  1.
         21   -1    0    0  504  502 -0.00000000000E+00 -0.00000000000E+00 -0.42894669691E+02  0.42894669691E+02  0.00000000000E+00 0.  1.
         21    1    1    2  503  502  0.31024440873E+02 -0.51257389214E+01  0.53899554063E+00  0.31449636678E+02  0.00000000000E+00 0.  1.
         21    1    1    2  504  501 -0.31024440873E+02  0.51257389214E+01 -0.18430488102E+02  0.36448210143E+02  0.00000000000E+00 0.  1.
</event>
<event>
 4    1  0.3080871E+006  0.6256230E+02  0.7546771E-02  0.1251367E+00
         21   -1    0    0  504  501  0.00000000000E+00  0.00000000000E+00  0.69781625783E+02  0.69781625783E+02  0.00000000000E+00 0.  1.
         21   -1    0    0  503  502 -0.00000000000E+00 -0.00000000000E+00 -0.28462871202E+03  0.28462871202E+03  0.00000000000E+00 0.  1.
         21    1    1    2  503  501  0.21696869152E+01  0.62524663999E+02 -0.26621131660E+03  0.27346390299E+03  0.00000000000E+00 0.  1.
         21    1    1    2  504  502 -0.21696869152E+01 -0.62524663999E+02  0.51364230362E+02  0.80946434821E+02  0.00000000000E+00 0.  1.
</event>
<event>
 4    1  0.3080871E+006  0.2110677E+02  0.7546771E-02  0.1517746E+00
         21   -1    0    0  502  501  0.00000000000E+00  0.00000000000E+00  0.10836085130E+02  0.10836085130E+02  0.00000000000E+00 0. -1.
         21   -1    0    0  503  502 -0.00000000000E+00 -0.00000000000E+00 -0.41869082812E+02  0.41869082812E+02  0.00000000000E+00 0. -1.
         21    1    1    2  503  504  0.21324942420E+01 -0.20998765556E+02 -0.19059575465E+02  0.28438760582E+02  0.00000000000E+00 0. -1.
         21    1    1    2  504  501 -0.21324942420E+01  0.20998765556E+02 -0.11973422217E+02  0.24266407359E+02  0.00000000000E+00 0. -1.
</event>
<event>
 4    1  0.3080871E+006  0.2030539E+02  0.7546771E-02  0.1529417E+00
         21   -1    0    0  504  501  0.00000000000E+00  0.00000000000E+00  0.11758111325E+02  0.11758111325E+02  0.00000000000E+00 0. -1.
         21   -1    0    0  503  502 -0.00000000000E+00 -0.00000000000E+00 -0.39055758767E+02  0.39055758767E+02  0.00000000000E+00 0. -1.
         21    1    1    2  503  501  0.24613126490E+01  0.20155664620E+02 -0.55282270268E+01  0.21044480756E+02  0.00000000000E+00 0. -1.
         21    1    1    2  504  502 -0.24613126490E+01 -0.20155664620E+02 -0.21769420414E+02  0.29769389336E+02  0.00000000000E+00 0. -1.
</event>
<event>
 4    1  0.3080871E+006  0.2771370E+02  0.7546771E-02  0.1440568E+00
         21   -1    0    0  502  501  0.00000000000E+00  0.00000000000E+00  0.51232363558E+03  0.51232363558E+03  0.00000000000E+00 0.  1.
         21   -1    0    0  504  502 -0.00000000000E+00 -0.00000000000E+00 -0.15120927768E+03  0.15120927768E+03  0.00000000000E+00 0.  1.
         21    1    1    2  503  501 -0.12211503669E+02  0.24878274198E+02  0.51067490672E+03  0.51142634827E+03  0.00000000000E+00 0.  1.
         21    1    1    2  504  503  0.12211503669E+02 -0.24878274198E+02 -0.14956054882E+03  0.15210656499E+03  0.00000000000E+00 0.  1.
</event>
<event>
 4    1  0.3080871E+006  0.2500913E+02  0.7546771E-02  0.1468701E+00
         21   -1    0    0  503  501  0.00000000000E+00  0.00000000000E+00  0.18905219919E+03  0.18905219919E+03  0.00000000000E+00 0. -1.
         21   -1    0    0  504  502 -0.00000000000E+00 -0.00000000000E+00 -0.34862776966E+01  0.34862776966E+01  0.00000000000E+00 0. -1.
         21    1    1    2  503  502 -0.63610903624E+00 -0.25001035455E+02  0.71036309198E+02  0.75310116406E+02  0.00000000000E+00 0. -1.
         21    1    1    2  504  501  0.63610903624E+00  0.25001035455E+02  0.11452961230E+03  0.11722836048E+03  0.00000000000E+00 0. -1.
</event>
<event>
 4    1  0.3080871E+006  0.2475507E+02  0.7546771E-02  0.1471562E+00
         21   -1    0    0  503  501  0.00000000000E+00  0.00000000000E+00  0.13901753496E+03  0.13901753496E+03  0.00000000000E+00 0. -1.
         21   -1    0    0  501  502 -0.00000000000E+00 -0.00000000000E+00 -0.97862598164E+02  0.97862598164E+02  0.00000000000E+00 0.  1.
         21    1    1    2  503  504  0.16955542203E+02  0.18036717349E+02  0.13631926067E+03  0.13854874382E+03  0.00000000000E+00 0. -1.
         21    1    1    2  504  502 -0.16955542203E+02 -0.18036717349E+02 -0.95164323874E+02  0.98331389304E+02  0.00000000000E+00 0.  1.
</event>
<event>
 4    1  0.3080871E+006  0.3043008E+02  0.7546771E-02  0.1415895E+00
         21   -1    0    0  503  501  0.00000000000E+00  0.00000000000E+00  0.94579452700E+03  0.94579452700E+03  0.00000000000E+00 0.  1.
         21   -1    0    0  504  502 -0.00000000000E+00 -0.00000000000E+00 -0.10060247216E+01  0.10060247216E+01  0.00000000000E+00 0.  1.
         21    1    1    2  503  502 -0.89743976286E+01  0.29076620815E+02  0.54989774636E+03  0.55073906811E+03  0.00000000000E+00 0.  1.
         21    1    1    2  504  501  0.89743976286E+01 -0.29076620815E+02  0.39489075591E+03  0.39606148361E+03  0.00000000000E+00 0.  1.
</event>
<event>
 4    1  0.3080871E+006  0.5129566E+02  0.7546771E-02  0.1292651E+00
         21   -1    0    0  502  501  0.00000000000E+00  0.00000000000E+00  0.22017601706E+03  0.22017601706E+03  0.00000000000E+00 0.  1.
         21   -1    0    0  503  502 -0.00000000000E+00 -0.00000000000E+00 -0.89336215605E+02  0.89336215605E+02  0.00000000000E+00 0. -1.
         21    1    1    2  503  504  0.46655702176E+02  0.21318772325E+02 -0.78613777591E+02  0.93868901273E+02  0.00000000000E+00 0. -1.
         21    1    1    2  504  501 -0.46655702176E+02 -0.21318772325E+02  0.20945357904E+03  0.21564333139E+03  0.00000000000E+00 0.  1.
</event>
<event>
 4    1  0.3080871E+006  0.2356311E+02  0.7546771E-02  0.1485546E+00
         21   -1    0    0  503  501  0.00000000000E+00  0.00000000000E+00  0.84052596214E+01  0.84052596214E+01  0.00000000000E+00 0.  1.
         21   -1    0    0  501  502 -0.00000000000E+00 -0.00000000000E+00 -0.23760793014E+03  0.23760793014E+03  0.00000000000E+00 0.  1.
         21    1    1    2  503  504  0.55234453825E+01  0.22906589520E+02 -0.10082306772E+02  0.25629537689E+02  0.00000000000E+00 0.  1.
         21    1    1    2  504  502 -0.55234453825E+01 -0.22906589520E+02 -0.21912036374E+03  0.22038365207E+03  0.00000000000E+00 0.  1.
</event>
<event>
 4    1  0.3080871E+006  0.2026511E+02  0.7546771E-02  0.1530021E+00
         21   -1    0    0  502  501  0.00000000000E+00  0.00000000000E+00  0.12569505388E+03  0.12569505388E+03  0.00000000000E+00 0.  1.
         21   -1    0    0  504  502 -0.00000000000E+00 -0.00000000000E+00 -0.88671029761E+01  0.88671029761E+01  0.00000000000E+00 0. -1.
         21    1    1    2  503  501  0.24010906704E+01 -0.20122363121E+02  0.11188162961E+03  0.11370212742E+03  0.00000000000E+00 0.  1.
         21    1    1    2  504  503 -0.24010906704E+01  0.20122363121E+02  0.49463212922E+01  0.20860029442E+02  0.00000000000E+00 0. -1.
</event>
<event>
 4    1  0.3080871E+006  0.2817586E+02  0.7546771E-02  0.1436141E+00
         21   -1    0    0  503  501  0.00000000000E+00  0.00000000000E+00  0.17964262933E+03  0.17964262933E+03  0.00000000000E+00 0. -1.
         21   -1    0    0  501  502 -0.00000000000E+00 -0.00000000000E+00 -0.93236519502E+02  0.93236519502E+02  0.00000000000E+00 0. -1.
         21    1    1    2  503  504  0.12401289399E+02  0.25299947146E+02  0.17636990443E+03  0.17860633386E+03  0.00000000000E+00 0. -1.
         21    1    1    2  504  502 -0.12401289399E+02 -0.25299947146E+02 -0.89963794603E+02  0.94272814977E+02  0.00000000000E+00 0. -1.
</event>
<event>
 4    1  0.3080871E+006  0.2401641E+02  0.7546771E-02  0.1480115E+00
         21   -1    0    0  503  501  0.00000000000E+00  0.00000000000E+00  0.32163883957E+02  0.32163883957E+02  0.00000000000E+00 0. -1.
         21   -1    0    0  501  502 -0.00000000000E+00 -0.00000000000E+00 -0.11022717859E+03  0.11022717859E+03  0.00000000000E+00 0.  1.
         21    1    1    2  503  504  0.20892080954E+01 -0.23925365266E+02  0.26115598311E+02  0.35479745894E+02  0.00000000000E+00 0. -1.
         21    1    1    2  504  502 -0.20892080954E+01  0.23925365266E+02 -0.10417889294E+03  0.10691131665E+03  0.00000000000E+00 0.  1.
</event>
<event>
 4    1  0.3080871E+006  0.2482497E+02  0.7546771E-02  0.1470771E+00
         21   -1    0    0  502  501  0.00000000000E+00  0.00000000000E+00  0.23490845757E+02  0.23490845757E+02  0.00000000000E+00 0.  1.
         21   -1    0    0  503  502 -0.00000000000E+00 -0.00000000000E+00 -0.48633559770E+03  0.48633559770E+03  0.00000000000E+00 0.  1.
         21    1    1    2  503  504  0.23453553339E+02  0.81369556737E+01 -0.47936477201E+03  0.48000714979E+03  0.00000000000E+00 0.  1.
         21    1    1    2  504  501 -0.23453553339E+02 -0.81369556737E+01  0.16520020062E+02  0.29819293665E+02  0.00000000000E+00 0.  1.
</event>
<event>
 4    1  0.3080871E+006  0.2991909E+02  0.7546771E-02  0.1420301E+00
         21   -1    0    0  504  501  0.00000000000E+00  0.00000000000E+00  0.32859557890E+02  0.32859557890E+02  0.00000000000E+00 0.  1.
         21   -1    0    0  503  502 -0.00000000000E+00 -0.00000000000E+00 -0.14434686569E+03  0.14434686569E+03  0.00000000000E+00 0.  1.
         21    1    1    2  503  501  0.98309577075E+01 -0.28257813792E+02 -0.13554931963E+03  0.13881199452E+03  0.00000000000E+00 0.  1.
         21    1    1    2  504  502 -0.98309577075E+01  0.28257813792E+02  0.24062011829E+02  0.38394429063E+02  0.00000000000E+00 0.  1.
</event>
<event>
 4    1  0.3080871E+006  0.2286882E+02  0.7546771E-02  0.1494152E+00
         21   -1    0    0  504  501  0.00000000000E+00  0.00000000000E+00  0.13030050047E+02  0.13030050047E+02  0.00000000000E+00 0.  1.
         21   -1    0    0  503  502 -0.00000000000E+00 -0.00000000000E+00 -0.49368496534E+02  0.49368496534E+02  0.00000000000E+00 0.  1.
         21    1    1    2  503  501 -0.23436767298E+01  0.22748404251E+02 -0.31660825518E+02  0.39056249040E+02  0.00000000000E+00 0.  1.
         21    1    1    2  504  502  0.23436767298E+01 -0.22748404251E+02 -0.46776209689E+01  0.23342297541E+02  0.00000000000E+00 0.  1.
</event>
<event>
 4    1  0.3080871E+006  0.2279008E+02  0.7546771E-02  0.1495151E+00
         21   -1    0    0  504  501  0.00000000000E+00  0.00000000000E+00  0.20475111947E+01  0.20475111947E+01  0.00000000000E+00 0.  1.
         21   -1    0    0  503  502 -0.00000000000E+00 -0.00000000000E+00 -0.71311278613E+03  0.71311278613E+03  0.00000000000E+00 0.  1.
         21    1    1    2  503  501  0.45234893367E+00  0.22785585370E+02 -0.68513351661E+02  0.72204341116E+02  0.00000000000E+00 0.  1.
         21    1    1    2  504  502 -0.45234893367E+00 -0.22785585370E+02 -0.64255192327E+03  0.64295595621E+03  0.00000000000E+00 0.  1.
</event>
<event>
 4    1  0.3080871E+006  0.2729996E+02  0.7546771E-02  0.1444618E+00
         21   -1    0    0  502  501  0.00000000000E+00  0.00000000000E+00  0.17124324230E+03  0.17124324230E+03  0.00000000000E+00 0.  1.
         21   -1    0    0  504  502 -0.00000000000E+00 -0.00000000000E+00 -0.83652571149E+01  0.83652571149E+01  0.00000000000E+00 0.  1.
         21    1    1    2  503  501  0.22387023298E+02  0.15623979410E+02  0.14363951858E+03  0.14621080275E+03  0.00000000000E+00 0.  1.
         21    1    1    2  504  503 -0.22387023298E+02 -0.15623979410E+02  0.19238466604E+02  0.33397696657E+02  0.00000000000E+00 0.  1.
</event>
<event>
 4    1  0.3080871E+006  0.2070388E+02  0.7546771E-02  0.1523535E+00
         21   -1    0    0  502  501  0.00000000000E+00  0.00000000000E+00  0.91727133608E+01  0.91727133608E+01  0.00000000000E+00 0. -1.
         21   -1    0    0  503  502 -0.00000000000E+00 -0.00000000000E+00 -0.78434492160E+03  0.78434492160E+03  0.00000000000E+00 0. -1.
         21    1    1    2  503  504 -0.22959106641E+01 -0.20576185325E+02 -0.77234403259E+03  0.77262148254E+03  0.00000000000E+00 0. -1.
         21    1    1    2  504  501  0.22959106641E+01  0.20576185325E+02 -0.28281756465E+01  0.20896152416E+02  0.00000000000E+00 0. -1.
</event>
<event>
 4    1  0.3080871E+006  0.2143646E+02  0.7546771E-02  0.1513124E+00
         21   -1    0    0  504  501  0.00000000000E+00  0.00000000000E+00  0.33532989807E+03  0.33532989807E+03  0.00000000000E+00 0. -1.
         21   -1    0    0  501  502 -0.00000000000E+00 -0.00000000000E+00 -0.10309853783E+03  0.10309853783E+03  0.00000000000E+00 0.  1.
         21    1    1    2  503  502  0.13433343004E+02 -0.16705304150E+02 -0.10163679651E+03  0.10387280826E+03  0.00000000000E+00 0.  1.
         21    1    1    2  504  503 -0.13433343004E+02  0.16705304150E+02  0.33386815676E+03  0.33455562764E+03  0.00000000000E+00 0. -1.
</event>
<event>
 4    1  0.3080871E+006  0.2524659E+02  0.7546771E-02  0.1466064E+00
         21   -1    0    0  502  501  0.00000000000E+00  0.00000000000E+00  0.84760984402E+02  0.84760984402E+02  0.00000000000E+00 0. -1.
         21   -1    0    0  504  502 -0.00000000000E+00 -0.00000000000E+00 -0.75359332986E+01  0.75359332986E+01  0.00000000000E+00 0. -1.
         21    1    1    2  503  501  0.14774635522E+02 -0.20471939299E+02  0.36480786521E+02  0.44364827721E+02  0.00000000000E+00 0. -1.
         21    1    1    2  504  503 -0.14774635522E+02  0.20471939299E+02  0.40744264582E+02  0.47932089980E+02  0.00000000000E+00 0. -1.
</event>
<event>
 4    1  0.3080871E+006  0.2415346E+02  0.7546771E-02  0.1478501E+00
         21   -1    0    0  502  501  0.00000000000E+00  0.00000000000E+00  0.63007561250E+02  0.63007561250E+02  0.00000000000E+00 0. -1.
         21   -1    0    0  504  502 -0.00000000000E+00 -0.00000000000E+00 -0.23716237435E+02  0.23716237435E+02  0.00000000000E+00 0. -1.
         21    1    1    2  503  501  0.18736746821E+02  0.15242180260E+02  0.53501019704E+02  0.58700501274E+02  0.00000000000E+00 0. -1.
         21    1    1    2  504  503 -0.18736746821E+02 -0.15242180260E+02 -0.14209695889E+02  0.28023297410E+02  0.00000000000E+00 0. -1.
</event>
<event>
 4    1  0.3080871E+006  0.3587837E+02  0.7546771E-02  0.1374491E+00
         21   -1    0    0  503  501  0.00000000000E+00  0.00000000000E+00  0.51130864983E+03  0.51130864983E+03  0.00000000000E+00 0. -1.
         21   -1    0    0  504  502 -0.00000000000E+00 -0.00000000000E+00 -0.28606697806E+01  0.28606697806E+01  0.00000000000E+00 0. -1.
         21    1    1    2  503  502  0.17105958392E+02  0.31537966759E+02  0.34325683248E+03  0.34512680308E+03  0.00000000000E+00 0. -1.
         21    1    1    2  504  501 -0.17105958392E+02 -0.31537966759E+02  0.16519114757E+03  0.16904251654E+03  0.00000000000E+00 0. -1.
</event>
<event>
 4    1  0.3080871E+006  0.2587968E+02  0.7546771E-02  0.1459199E+00
         21   -1    0    0  504  501  0.00000000000E+00  0.00000000000E+00  0.98057591939E+03  0.98057591939E+03  0.00000000000E+00 0.  1.
         21   -1    0    0  503  502 -0.00000000000E+00 -0.00000000000E+00 -0.68707124930E+00  0.68707124930E+00  0.00000000000E+00 0.  1.
         21    1    1    2  503  501 -0.38674888058E+01 -0.25589064660E+02  0.45229225321E+03  0.45303205187E+03  0.00000000000E+00 0.  1.
         21    1    1    2  504  502  0.38674888058E+01  0.25589064660E+02  0.52759659493E+03  0.52823093878E+03  0.00000000000E+00 0.  1.
</event>
<event>
 4    1  0.3080871E+006  0.2654590E+02  0.7546771E-02  0.1452224E+00
         21   -1    0    0  503  501  0.00000000000E+00  0.00000000000E+00  0.74522702146E+01  0.74522702146E+01  0.00000000000E+00 0.  1.
         21   -1    0    0  504  502 -0.00000000000E+00 -0.00000000000E+00 -0.10790382259E+03  0.10790382259E+03  0.00000000000E+00 0.  1.
         21    1    1    2  503  502  0.39782843383E+00  0.26542923558E+02 -0.29942608605E+02  0.40015557831E+02  0.00000000000E+00 0.  1.
         21    1    1    2  504  501 -0.39782843383E+00 -0.26542923558E+02 -0.70508943773E+02  0.75340534976E+02  0.00000000000E+00 0.  1.
</event>
<event>
 4    1  0.3080871E+006  0.3002695E+02  0.7546771E-02  0.1419362E+00
         21   -1    0    0  504  501  0.00000000000E+00  0.00000000000E+00  0.10985965068E+02  0.10985965068E+02  0.00000000000E+00 0.  1.
         21   -1    0    0  503  502 -0.00000000000E+00 -0.00000000000E+00 -0.86446693093E+02  0.86446693093E+02  0.00000000000E+00 0.  1.
         21    1    1    2  503  501 -0.29783841792E+02  0.38132326199E+01 -0.48691970699E+02  0.57205996062E+02  0.00000000000E+00 0.  1.
         21    1    1    2  504  502  0.29783841792E+02 -0.38132326199E+01 -0.26768757326E+02  0.40226662100E+02  0.00000000000E+00 0.  1.
</event>
<event>
 4    1  0.3080871E+006  0.2081237E+02  0.7546771E-02  0.1521961E+00
         21   -1    0    0  503  501  0.00000000000E+00  0.00000000000E+00  0.59393728934E+01  0.59393728934E+01  0.00000000000E+00 0. -1.
         21   -1    0    0  504  502 -0.00000000000E+00 -0.00000000000E+00 -0.19977123592E+03  0.19977123592E+03  0.00000000000E+00 0. -1.
         21    1    1    2  503  502 -0.17057618347E+02 -0.11924438243E+02 -0.14957890245E+02  0.25629924925E+02  0.00000000000E+00 0. -1.
         21    1    1    2  504  501  0.17057618347E+02  0.11924438243E+02 -0.17887397279E+03  0.18008068389E+03  0.00000000000E+00 0. -1.
</event>
<event>
 4    1  0.3080871E+006  0.2601050E+02  0.7546771E-02  0.1457809E+00
         21   -1    0    0  503  501  0.00000000000E+00  0.00000000000E+00  0.12315209349E+01  0.12315209349E+01  0.00000000000E+00 0.  1.
         21   -1    0    0  501  502 -0.00000000000E+00 -0.00000000000E+00 -0.56337129280E+03  0.56337129280E+03  0.00000000000E+00 0.  1.
         21    1    1    2  503  504 -0.41698917275E+01  0.25674074246E+02 -0.23654701395E+03  0.23797276293E+03  0.00000000000E+00 0.  1.
         21    1    1    2  504  502  0.41698917275E+01 -0.25674074246E+02 -0.32559275792E+03  0.32663005081E+03  0.00000000000E+00 0.  1.
</event>
<event>
 4    1  0.3080871E+006  0.2276369E+02  0.7546771E-02  0.1495487E+00
         21   -1    0    0  504  501  0.00000000000E+00  0.00000000000E+00  0.18621465151E+02  0.18621465151E+02  0.00000000000E+00 0.  1.
         21   -1    0    0  503  502 -0.00000000000E+00 -0.00000000000E+00 -0.27974546229E+02  0.27974546229E+02  0.00000000000E+00 0.  1.
         21    1    1    2  503  501 -0.22427290557E+02  0.38990236354E+01 -0.63666227947E+01  0.23637250958E+02  0.00000000000E+00 0.  1.
         21    1    1    2  504  502  0.22427290557E+02 -0.38990236354E+01 -0.29864582833E+01  0.22958760422E+02  0.00000000000E+00 0.  1.
</event>
<event>
 4    1  0.3080871E+006  0.4576345E+02  0.7546771E-02  0.1317665E+00
         21   -1    0    0  502  501  0.00000000000E+00  0.00000000000E+00  0.56097454016E+03  0.56097454016E+03  0.00000000000E+00 0. -1.
         21   -1    0    0  503  502 -0.00000000000E+00 -0.00000000000E+00 -0.54498954589E+02  0.54498954589E+02  0.00000000000E+00 0. -1.
         21    1    1    2  503  504  0.14599820478E+02  0.43372098617E+02 -0.43771619121E+02  0.63326521592E+02  0.00000000000E+00 0. -1.
         21    1    1    2  504  501 -0.14599820478E+02 -0.43372098617E+02  0.55024720469E+03  0.55214697315E+03  0.00000000000E+00 0. -1.
</event>
<event>
 4    1  0.3080871E+006  0.2700260E+02  0.7546771E-02  0.1447582E+00
         21   -1    0    0  504  501  0.00000000000E+00  0.00000000000E+00  0.73451519795E+02  0.73451519795E+02  0.00000000000E+00 0. -1.
         21   -1    0    0  501  502 -0.00000000000E+00 -0.00000000000E+00 -0.39677397803E+02  0.39677397803E+02  0.00000000000E+00 0.  1.
         21    1    1    2  503  502  0.23013671051E+02 -0.14124844890E+02 -0.32093044894E+02  0.41941671747E+02  0.00000000000E+00 0.  1.
         21    1    1    2  504  503 -0.23013671051E+02  0.14124844890E+02  0.65867166886E+02  0.71187245851E+02  0.00000000000E+00 0. -1.
</event>
<event>
 4    1  0.3080871E+006  0.2355136E+02  0.7546771E-02  0.1485688E+00
         21   -1    0    0  503  501  0.00000000000E+00  0.00000000000E+00  0.86347893266E+01  0.86347893266E+01  0.00000000000E+00 0. -1.
         21   -1    0    0  504  502 -0.00000000000E+00 -0.00000000000E+00 -0.73720989572E+02  0.73720989572E+02  0.00000000000E+00 0. -1.
         21    1    1    2  503  502  0.21838866794E+02  0.88164981940E+01 -0.17773099007E+02  0.29505080776E+02  0.00000000000E+00 0. -1.
         21    1    1    2  504  501 -0.21838866794E+02 -0.88164981940E+01 -0.47313101239E+02  0.52850698123E+02  0.00000000000E+00 0. -1.
</event>
<event>
 4    1  0.3080871E+006  0.2899742E+02  0.7546771E-02  0.1428513E+00
         21   -1    0    0  504  501  0.00000000000E+00  0.00000000000E+00  0.99198159197E+02  0.99198159197E+02  0.00000000000E+00 0. -1.
         21   -1    0    0  503  502 -0.00000000000E+00 -0.00000000000E+00 -0.85259427525E+01  0.85259427525E+01  0.00000000000E+00 0. -1.
         21    1    1    2  503  501 -0.28377302396E+02  0.59648296507E+01  0.41233282631E+02  0.50408670689E+02  0.00000000000E+00 0. -1.
         21    1    1    2  504  502  0.28377302396E+02 -0.59648296507E+01  0.49438933813E+02  0.57315431261E+02  0.00000000000E+00 0. -1.
</event>
<event>
 4    1  0.3080871E+006  0.2494103E+02  0.7546771E-02  0.1469464E+00
         21   -1    0    0  503  501  0.00000000000E+00  0.00000000000E+00  0.40142909017E+02  0.40142909017E+02  0.00000000000E+00 0. -1.
         21   -1    0    0  504  502 -0.00000000000E+00 -0.00000000000E+00 -0.34173136476E+02  0.34173136476E+02  0.00000000000E+00 0.  1.
         21    1    1    2  503  502  0.20134498102E+02  0.14719279241E+02  0.30455295283E+02  0.39364707619E+02  0.00000000000E+00 0. -1.
         21    1    1    2  504  501 -0.20134498102E+02 -0.14719279241E+02 -0.24485522742E+02  0.34951337873E+02  0.00000000000E+00 0.  1.
</event>
<event>
 4    1  0.3080871E+006  0.4309735E+02  0.7546771E-02  0.1331233E+00
         21   -1    0    0  504  501  0.00000000000E+00  0.00000000000E+00  0.14621744673E+02  0.14621744673E+02  0.00000000000E+00 0.  1.
         21   -1    0    0  503  502 -0.00000000000E+00 -0.00000000000E+00 -0.16861113271E+03  0.16861113271E+03  0.00000000000E+00 0. -1.
         21    1    1    2  503  501  0.30887408527E+02  0.30055775758E+02 -0.31497452019E+02  0.53380437855E+02  0.00000000000E+00 0.  1.
         21    1    1    2  504  502 -0.30887408527E+02 -0.30055775758E+02 -0.12249193602E+03  0.12985243953E+03  0.00000000000E+00 0. -1.
</event>
<event>
 4    1  0.3080871E+006  0.2853491E+02  0.7546771E-02  0.1432770E+00
         21   -1    0    0  504  501  0.00000000000E+00  0.00000000000E+00  0.41774915712E+03  0.41774915712E+03  0.00000000000E+00 0.  1.
         21   -1    0    0  503  502 -0.00000000000E+00 -0.00000000000E+00 -0.10550135273E+02  0.10550135273E+02  0.00000000000E+00 0. -1.
         21    1    1    2  503  501 -0.24879626288E+02  0.13973021954E+02  0.10240982174E+02  0.30316973178E+02  0.00000000000E+00 0. -1.
         21    1    1    2  504  502  0.24879626288E+02 -0.13973021954E+02  0.39695803967E+03  0.39798231921E+03  0.00000000000E+00 0.  1.
</event>
<event>
 4    1  0.3080871E+006  0.2805477E+02  0.7546771E-02  0.1437291E+00
         21   -1    0    0  502  501  0.00000000000E+00  0.00000000000E+00  0.62340910317E+02  0.62340910317E+02  0.00000000000E+00 0.  1.
         21   -1    0    0  504  502 -0.00000000000E+00 -0.00000000000E+00 -0.86834520478E+02  0.86834520478E+02  0.00000000000E+00 0.  1.
         21    1    1    2  503  501  0.65577255374E+00 -0.28047106992E+02  0.56705715967E+02  0.63266171621E+02  0.00000000000E+00 0.  1.
         21    1    1    2  504  503 -0.65577255374E+00  0.28047106992E+02 -0.81199326128E+02  0.85909259174E+02  0.00000000000E+00 0.  1.
</event>
<event>
 4    1  0.3080871E+006  0.2125660E+02  0.7546771E-02  0.1515633E+00
         21   -1    0    0  504  501  0.00000000000E+00  0.00000000000E+00  0.17603891560E+02  0.17603891560E+02  0.00000000000E+00 0.  1.
         21   -1    0    0  503  502 -0.00000000000E+00 -0.00000000000E+00 -0.30972429853E+02  0.30972429853E+02  0.00000000000E+00 0. -1.
         21    1    1    2  503  501  0.20039641894E+02  0.70891387352E+01  0.33678553650E+01  0.21521746792E+02  0.00000000000E+00 0.  1.
         21    1    1    2  504  502 -0.20039641894E+02 -0.70891387352E+01 -0.16736393658E+02  0.27054574621E+02  0.00000000000E+00 0. -1.
</event>
<event>
 4    1  0.3080871E+006  0.4137331E+02  0.7546771E-02  0.1340621E+00
         21   -1    0    0  502  501  0.00000000000E+00  0.00000000000E+00  0.96549139304E+01  0.96549139304E+01  0.00000000000E+00 0. -1.
         21   -1    0    0  504  502 -0.00000000000E+00 -0.00000000000E+00 -0.31970175858E+03  0.31970175858E+03  0.00000000000E+00 0. -1.
         21    1    1    2  503  501  0.31090241336E+02  0.27297391859E+02 -0.45114744332E+02  0.61213485971E+02  0.00000000000E+00 0. -1.
         21    1    1    2  504  503 -0.31090241336E+02 -0.27297391859E+02 -0.26493210032E+03  0.26814318654E+03  0.00000000000E+00 0. -1.
</event>
<event>
 4    1  0.3080871E+006  0.2555869E+02  0.7546771E-02  0.1462649E+00
         21   -1    0    0  504  501  0.00000000000E+00  0.00000000000E+00  0.26567561683E+01  0.26567561683E+01  0.00000000000E+00 0.  1.
         21   -1    0    0  501  502 -0.00000000000E+00 -0.00000000000E+00 -0.86961580912E+03  0.86961580912E+03  0.00000000000E+00 0.  1.
         21    1    1    2  503  502 -0.36977377074E+01 -0.25289790197E+02 -0.80284677028E+03  0.80325349878E+03  0.00000000000E+00 0.  1.
         21    1    1    2  504  503  0.36977377074E+01  0.25289790197E+02 -0.64112282671E+02  0.69019066508E+02  0.00000000000E+00 0.  1.
</event>
<event>
 4    1  0.3080871E+006  0.2880442E+02  0.7546771E-02  0.1430278E+00
         21   -1    0    0  503  501  0.00000000000E+00  0.00000000000E+00  0.53948263312E+01  0.53948263312E+01  0.00000000000E+00 0.  1.
         21   -1    0    0  501  502 -0.00000000000E+00 -0.00000000000E+00 -0.89265983837E+03  0.89265983837E+03  0.00000000000E+00 0. -1.
         21    1    1    2  503  504  0.80511552970E+01  0.27656349759E+02 -0.35113358350E+02  0.45416326560E+02  0.00000000000E+00 0.  1.
         21    1    1    2  504  502 -0.80511552970E+01 -0.27656349759E+02 -0.85215165368E+03  0.85263833814E+03  0.00000000000E+00 0. -1.
</event>
<event>
 4    1  0.3080871E+006  0.2989894E+02  0.7546771E-02  0.1420477E+00
         21   -1    0    0  504  501  0.00000000000E+00  0.00000000000E+00  0.23683406076E+01  0.23683406076E+01  0.00000000000E+00 0. -1.
         21   -1    0    0  503  502 -0.00000000000E+00 -0.00000000000E+00 -0.49374307593E+03  0.49374307593E+03  0.00000000000E+00 0.  1.
         21    1    1    2  503  501  0.25124294404E+02 -0.16208522465E+02 -0.36606973140E+03  0.36728870745E+03  0.00000000000E+00 0.  1.
         21    1    1    2  504  502 -0.25124294404E+02  0.16208522465E+02 -0.12530500392E+03  0.12882270909E+03  0.00000000000E+00 0. -1.
</event>
<event>
 4    1  0.3080871E+006  0.2396761E+02  0.7546771E-02  0.1480693E+00
         21   -1    0    0  504  501  0.00000000000E+00  0.00000000000E+00  0.76448574485E+02  0.76448574485E+02  0.00000000000E+00 0. -1.
         21   -1    0    0  503  502 -0.00000000000E+00 -0.00000000000E+00 -0.15092713955E+02  0.15092713955E+02  0.00000000000E+00 0. -1.
         21    1    1    2  503  501  0.23013059946E+02 -0.66966828695E+01 -0.17557814384E+01  0.24031838423E+02  0.00000000000E+00 0. -1.
         21    1    1    2  504  502 -0.23013059946E+02  0.66966828695E+01  0.63111641968E+02  0.67509450016E+02  0.00000000000E+00 0. -1.
</event>
<event>
 4    1  0.3080871E+006  0.2672300E+02  0.7546771E-02  0.1450411E+00
         21   -1    0    0  504  501  0.00000000000E+00  0.00000000000E+00  0.59865922650E+02  0.59865922650E+02  0.00000000000E+00 0. -1.
         21   -1    0    0  503  502 -0.00000000000E+00 -0.00000000000E+00 -0.21999922427E+02  0.21999922427E+02  0.00000000000E+00 0. -1.
         21    1    1    2  503  501 -0.23056676954E+02 -0.13509559078E+02 -0.87622152595E+01  0.28122854672E+02  0.00000000000E+00 0. -1.
         21    1    1    2  504  502  0.23056676954E+02  0.13509559078E+02  0.46628215482E+02  0.53742990405E+02  0.00000000000E+00 0. -1.
</event>
<event>
 4    1  0.3080871E+006  0.2087523E+02  0.7546771E-02  0.1521054E+00
         21   -1    0    0  504  501  0.00000000000E+00  0.00000000000E+00  0.10233032779E+02  0.10233032779E+02  0.00000000000E+00 0. -1.
         21   -1    0    0  503  502 -0.00000000000E+00 -0.00000000000E+00 -0.71046918808E+02  0.71046918808E+02  0.00000000000E+00 0. -1.
         21    1    1    2  503  501  0.15181217400E+02  0.14328505250E+02 -0.46845352104E+01  0.21394398673E+02  0.00000000000E+00 0. -1.
         21    1    1    2  504  502 -0.15181217400E+02 -0.14328505250E+02 -0.56129350818E+02  0.59885552913E+02  0.00000000000E+00 0. -1.
</event>
<event>
 4    1  0.3080871E+006  0.2090427E+02  0.7546771E-02  0.1520636E+00
         21   -1    0    0  503  501  0.00000000000E+00  0.00000000000E+00  0.60284671297E+03  0.60284671297E+03  0.00000000000E+00 0. -1.
         21   -1    0    0  501  502 -0.00000000000E+00 -0.00000000000E+00 -0.69955202665E+01  0.69955202665E+01  0.00000000000E+00 0.  1.
         21    1    1    2  503  504 -0.19396852509E+02  0.77942705618E+01  0.58661683695E+03  0.58698918384E+03  0.00000000000E+00 0. -1.
         21    1    1    2  504  502  0.19396852509E+02 -0.77942705618E+01  0.92343557492E+01  0.22853049402E+02  0.00000000000E+00 0.  1.
</event>
<event>
 4    1  0.3080871E+006  0.3752352E+02  0.7546771E-02  0.1363643E+00
         21   -1    0    0  504  501  0.00000000000E+00  0.00000000000E+00  0.84035639198E+01  0.84035639198E+01  0.00000000000E+00 0.  1.
         21   -1    0    0  503  502 -0.00000000000E+00 -0.00000000000E+00 -0.23968270327E+03  0.23968270327E+03  0.00000000000E+00 0.  1.
         21    1    1    2  503  501 -0.14332333480E+02 -0.34678503275E+02 -0.47590612297E+02  0.60604296474E+02  0.00000000000E+00 0.  1.
         21    1    1    2  504  502  0.14332333480E+02  0.34678503275E+02 -0.18368852706E+03  0.18748197072E+03  0.00000000000E+00 0.  1.
</event>
<event>
 4    1  0.3080871E+006  0.2316233E+02  0.7546771E-02  0.1490470E+00
         21   -1    0    0  504  501  0.00000000000E+00  0.00000000000E+00  0.46168505400E+01  0.46168505400E+01  0.00000000000E+00 0. -1.
         21   -1    0    0  503  502 -0.00000000000E+00 -0.00000000000E+00 -0.16921925613E+03  0.16921925613E+03  0.00000000000E+00 0. -1.
         21    1    1    2  503  501  0.11661690787E+02 -0.20012464056E+02 -0.13095177722E+03  0.13298444160E+03  0.00000000000E+00 0. -1.
         21    1    1    2  504  502 -0.11661690787E+02  0.20012464056E+02 -0.33650628369E+02  0.40851665073E+02  0.00000000000E+00 0. -1.
</event>
<event>
 4    1  0.3080871E+006  0.2384642E+02  0.7546771E-02  0.1482135E+00
         21   -1    0    0  503  501  0.00000000000E+00  0.00000000000E+00  0.10087877075E+03  0.10087877075E+03  0.00000000000E+00 0.  1.
         21   -1    0    0  504  502 -0.00000000000E+00 -0.00000000000E+00 -0.29114562053E+02  0.29114562053E+02  0.00000000000E+00 0.  1.
         21    1    1    2  503  502 -0.19819408327E+02  0.13260569752E+02 -0.22484258601E+02  0.32774891936E+02  0.00000000000E+00 0.  1.
         21    1    1    2  504  501  0.19819408327E+02 -0.13260569752E+02  0.94248467297E+02  0.97218440866E+02  0.00000000000E+00 0.  1.
</event>
<event>
 4    1  0.3080871E+006  0.2483677E+02  0.7546771E-02  0.1470638E+00
         21   -1    0    0  502  501  0.00000000000E+00  0.00000000000E+00  0.94633102006E+02  0.94633102006E+02  0.00000000000E+00 0.  1.
         21   -1    0    0  504  502 -0.00000000000E+00 -0.00000000000E+00 -0.10269857379E+03  0.10269857379E+03  0.00000000000E+00 0.  1.
         21    1    1    2  503  501 -0.53988530820E+01  0.24242886815E+02  0.91450509489E+02  0.94763183049E+02  0.00000000000E+00 0.  1.
         21    1    1    2  504  503  0.53988530820E+01 -0.24242886815E+02 -0.99515981276E+02  0.10256849275E+03  0.00000000000E+00 0.  1.
</event>
<event>
 4    1  0.3080871E+006  0.2069908E+02  0.7546771E-02  0.1523605E+00
         21   -1    0    0  504  501  0.00000000000E+00  0.00000000000E+00  0.23787568714E+03  0.23787568714E+03  0.00000000000E+00 0.  1.
         21   -1    0    0  503  502 -0.00000000000E+00 -0.00000000000E+00 -0.11928600652E+02  0.11928600652E+02  0.00000000000E+00 0. -1.
         21    1    1    2  503  501 -0.88502837570E+01 -0.18711606196E+02  0.22806021658E+03  0.22899762906E+03  0.00000000000E+00 0.  1.
         21    1    1    2  504  502  0.88502837570E+01  0.18711606196E+02 -0.21131300866E+01  0.20806658737E+02  0.00000000000E+00 0. -1.
</event>
<event>
 4    1  0.3080871E+006  0.2811005E+02  0.7546771E-02  0.1436765E+00
         21   -1    0    0  504  501  0.00000000000E+00  0.00000000000E+00  0.15177834181E+01  0.15177834181E+01  0.00000000000E+00 0. -1.
         21   -1    0    0  503  502 -0.00000000000E+00 -0.00000000000E+00 -0.56188004239E+03  0.56188004239E+03  0.00000000000E+00 0.  1.
         21    1    1    2  503  501 -0.35136508522E+01  0.27889583912E+02 -0.35652531126E+03  0.35763175502E+03  0.00000000000E+00 0.  1.
         21    1    1    2  504  502  0.35136508522E+01 -0.27889583912E+02 -0.20383694771E+03  0.20576607078E+03  0.00000000000E+00 0. -1.
</event>
<event>
 4    1  0.3080871E+006  0.2505461E+02  0.7546771E-02  0.1468193E+00
         21   -1    0    0  504  501  0.00000000000E+00  0.00000000000E+00  0.42740528465E+02  0.42740528465E+02  0.00000000000E+00 0.  1.
         21   -1    0    0  501  502 -0.00000000000E+00 -0.00000000000E+00 -0.20166535204E+02  0.20166535204E+02  0.00000000000E+00 0.  1.
         21    1    1    2  503  502 -0.21188718998E+02 -0.13370543905E+02 -0.51084309003E+01  0.25570086494E+02  0.00000000000E+00 0.  1.
         21    1    1    2  504  503  0.21188718998E+02  0.13370543905E+02  0.27682424162E+02  0.37336977175E+02  0.00000000000E+00 0.  1.
</event>
<event>
 4    1  0.3080871E+006  0.2405057E+02  0.7546771E-02  0.1479711E+00
         21   -1    0    0  503  501  0.00000000000E+00  0.00000000000E+00  0.18698592381E+04  0.18698592381E+04  0.00000000000E+00 0.  1.
         21   -1    0    0  504  502 -0.00000000000E+00 -0.00000000000E+00 -0.77278414777E+00  0.77278414777E+00  0.00000000000E+00 0.  1.
         21    1    1    2  503  502 -0.16320525661E+02  0.17665517914E+02  0.21023068225E+03  0.21160191360E+03  0.00000000000E+00 0.  1.
         21    1    1    2  504  501  0.16320525661E+02 -0.17665517914E+02  0.16588557717E+04  0.16590301086E+04  0.00000000000E+00 0.  1.
</event>
<event>
 4    1  0.3080871E+006  0.2123520E+02  0.7546771E-02  0.1515933E+00
         21   -1    0    0  502  501  0.00000000000E+00  0.00000000000E+00  0.38556599669E+03  0.38556599669E+03  0.00000000000E+00 0. -1.
         21   -1    0    0  504  502 -0.00000000000E+00 -0.00000000000E+00 -0.11811420681E+01  0.11811420681E+01  0.00000000000E+00 0.  1.
         21    1    1    2  503  501 -0.32485099995E+01  0.20985258765E+02  0.21135968636E+03  0.21242375320E+03  0.00000000000E+00 0. -1.
         21    1    1    2  504  503  0.32485099995E+01 -0.20985258765E+02  0.17302516826E+03  0.17432338556E+03  0.00000000000E+00 0.  1.
</event>
<event>
 4    1  0.3080871E+006  0.2295597E+02  0.7546771E-02  0.1493052E+00
         21   -1    0    0  502  501  0.00000000000E+00  0.00000000000E+00  0.14264323678E+03  0.14264323678E+03  0.00000000000E+00 0.  1.
         21   -1    0    0  504  502 -0.00000000000E+00 -0.00000000000E+00 -0.77663829119E+01  0.77663829119E+01  0.00000000000E+00 0.  1.
         21    1    1    2  503  501 -0.22692805410E+02  0.34659874260E+01  0.12189382585E+03  0.12403661261E+03  0.00000000000E+00 0.  1.
         21    1    1    2  504  503  0.22692805410E+02 -0.34659874260E+01  0.12983028016E+02  0.26373007084E+02  0.00000000000E+00 0.  1.
</event>
<event>
 4    1  0.3080871E+006  0.2138219E+02  0.7546771E-02  0.1513878E+00
         21   -1    0    0  504  501  0.00000000000E+00  0.00000000000E+00  0.81888440909E+02  0.81888440909E+02  0.00000000000E+00 0. -1.
         21   -1    0    0  503  502 -0.00000000000E+00 -0.00000000000E+00 -0.57582986469E+01  0.57582986469E+01  0.00000000000E+00 0. -1.
         21    1    1    2  503  501 -0.80580988924E+01 -0.19805686686E+02  0.30422831113E+02  0.37185304030E+02  0.00000000000E+00 0. -1.
         21    1    1    2  504  502  0.80580988924E+01  0.19805686686E+02  0.45707311149E+02  0.50461435526E+02  0.00000000000E+00 0. -1.
</event>
<event>
 4    1  0.3080871E+006  0.3030444E+02  0.7546771E-02  0.1416969E+00
         21   -1    0    0  504  501  0.00000000000E+00  0.00000000000E+00  0.40529121413E+03  0.40529121413E+03  0.00000000000E+00 0. -1.
         21   -1    0    0  503  502 -0.00000000000E+00 -0.00000000000E+00 -0.94055249782E+01  0.94055249782E+01  0.00000000000E+00 0.  1.
         21    1    1    2  503  501  0.28354984977E+02  0.10693635646E+02  0.37859621968E+03  0.37980713076E+03  0.00000000000E+00 0. -1.
         21    1    1    2  504  502 -0.28354984977E+02 -0.10693635646E+02  0.17289469471E+02  0.34889608353E+02  0.00000000000E+00 0.  1.
</event>
<event>
 4    1  0.3080871E+006  0.2066553E+02  0.7546771E-02  0.1524094E+00
         21   -1    0    0  503  501  0.00000000000E+00  0.00000000000E+00  0.44083834618E+03  0.44083834618E+03  0.00000000000E+00 0. -1.
         21   -1    0    0  504  502 -0.00000000000E+00 -0.00000000000E+00 -0.99525013473E+00  0.99525013473E+00  0.00000000000E+00 0. -1.
         21    1    1    2  503  502 -0.81440853525E+01 -0.18993099607E+02  0.25596720892E+03  0.25680007010E+03  0.00000000000E+00 0. -1.
         21    1    1    2  504  501  0.81440853525E+01  0.18993099607E+02  0.18387588712E+03  0.18503352622E+03  0.00000000000E+00 0. -1.
</event>
<event>
 4    1  0.3080871E+006  0.2325150E+02  0.7546771E-02  0.1489364E+00
         21   -1    0    0  503  501  0.00000000000E+00  0.00000000000E+00  0.12266709705E+04  0.12266709705E+04  0.00000000000E+00 0. -1.
         21   -1    0    0  504  502 -0.00000000000E+00 -0.00000000000E+00 -0.12186084860E+02  0.12186084860E+02  0.00000000000E+00 0. -1.
         21    1    1    2  503  502 -0.18137245503E+00 -0.23250796391E+02  0.12153664505E+04  0.12155888456E+04  0.00000000000E+00 0. -1.
         21    1    1    2  504  501  0.18137245503E+00  0.23250796391E+02 -0.88156490857E+00  0.23268209761E+02  0.00000000000E+00 0. -1.
</event>
<event>
 4    1  0.3080871E+006  0.2557858E+02  0.7546771E-02  0.1462434E+00
         21   -1    0    0  503  501  0.00000000000E+00  0.00000000000E+00  0.23718620406E+03  0.23718620406E+03  0.00000000000E+00 0.  1.
         21   -1    0    0  504  502 -0.00000000000E+00 -0.00000000000E+00 -0.84819206801E+01  0.84819206801E+01  0.00000000000E+00 0.  1.
         21    1    1    2  503  502 -0.10359155025E+02 -0.23386995962E+02  0.13449657023E+02  0.28899082114E+02  0.00000000000E+00 0.  1.
         21    1    1    2  504  501  0.10359155025E+02  0.23386995962E+02  0.21525462635E+03  0.21676904262E+03  0.00000000000E+00 0.  1.
</event>
<event>
 4    1  0.3080871E+006  0.2131305E+02  0.7546771E-02  0.1514842E+00
         21   -1    0    0  504  501  0.00000000000E+00  0.00000000000E+00  0.65866542319E+02  0.65866542319E+02  0.00000000000E+00 0. -1.
         21   -1    0    0  503  502 -0.00000000000E+00 -0.00000000000E+00 -0.17882130239E+03  0.17882130239E+03  0.00000000000E+00 0. -1.
         21    1    1    2  503  501 -0.12031772059E+01 -0.21279061830E+02 -0.17643893540E+03  0.17772153508E+03  0.00000000000E+00 0. -1.
         21    1    1    2  504  502  0.12031772059E+01  0.21279061830E+02  0.63484175328E+02  0.66966309626E+02  0.00000000000E+00 0. -1.
</event>
<event>
 4    1  0.3080871E+006  0.2035889E+02  0.7546771E-02  0.1528618E+00
         21   -1    0    0  503  501  0.00000000000E+00  0.00000000000E+00  0.50316919999E+03  0.50316919999E+03  0.00000000000E+00 0. -1.
         21   -1    0    0  504  502 -0.00000000000E+00 -0.00000000000E+00 -0.56267051932E+01  0.56267051932E+01  0.00000000000E+00 0.  1.
         21    1    1    2  503  502  0.17837854819E+02 -0.98130204668E+01  0.48381077519E+03  0.48423893960E+03  0.00000000000E+00 0. -1.
         21    1    1    2  504  501 -0.17837854819E+02  0.98130204668E+01  0.13731719604E+02  0.24556965580E+02  0.00000000000E+00 0.  1.
</event>
<event>
 4    1  0.3080871E+006  0.2012075E+02  0.7546771E-02  0.1532198E+00
         21   -1    0    0  503  501  0.00000000000E+00  0.00000000000E+00  0.71009452651E+02  0.71009452651E+02  0.00000000000E+00 0. -1.
         21   -1    0    0  501  502 -0.00000000000E+00 -0.00000000000E+00 -0.13281456087E+03  0.13281456087E+03  0.00000000000E+00 0. -1.
         21    1    1    2  503  504  0.19847501989E+02  0.33047105640E+01  0.68798093667E+02  0.71679998182E+02  0.00000000000E+00 0. -1.
         21    1    1    2  504  502 -0.19847501989E+02 -0.33047105640E+01 -0.13060320188E+03  0.13214401534E+03  0.00000000000E+00 0. -1.
</event>
<event>
 4    1  0.3080871E+006  0.2141676E+02  0.7546771E-02  0.1513397E+00
         21   -1    0    0  504  501  0.00000000000E+00  0.00000000000E+00  0.74489849533E+01  0.74489849533E+01  0.00000000000E+00 0.  1.
         21   -1    0    0  503  502 -0.00000000000E+00 -0.00000000000E+00 -0.12442511798E+03  0.12442511798E+03  0.00000000000E+00 0.  1.
         21    1    1    2  503  501 -0.85587212200E+01  0.19632268732E+02 -0.10535057753E+03  0.10750545042E+03  0.00000000000E+00 0.  1.
         21    1    1    2  504  502  0.85587212200E+01 -0.19632268732E+02 -0.11625555491E+02  0.24368652506E+02  0.00000000000E+00 0.  1.
</event>
<event>
 4    1  0.3080871E+006  0.3747035E+02  0.7546771E-02  0.1363983E+00
         21   -1    0    0  502  501  0.00000000000E+00  0.00000000000E+00  0.15483701509E+02  0.15483701509E+02  0.00000000000E+00 0. -1.
         21   -1    0    0  503  502 -0.00000000000E+00 -0.00000000000E+00 -0.21598642933E+03  0.21598642933E+03  0.00000000000E+00 0. -1.
         21    1    1    2  503  504  0.20761466044E+02  0.31192763327E+02 -0.18840542707E+03  0.19209537190E+03  0.00000000000E+00 0. -1.
         21    1    1    2  504  501 -0.20761466044E+02 -0.31192763327E+02 -0.12097300756E+02  0.39374758943E+02  0.00000000000E+00 0. -1.
</event>
<event>
 4    1  0.3080871E+006  0.2144329E+02  0.7546771E-02  0.1513029E+00
         21   -1    0    0  503  501  0.00000000000E+00  0.00000000000E+00  0.27670899754E+02  0.27670899754E+02  0.00000000000E+00 0.  1.
         21   -1    0    0  504  502 -0.00000000000E+00 -0.00000000000E+00 -0.22107295331E+02  0.22107295331E+02  0.00000000000E+00 0.  1.
         21    1    1    2  503  502 -0.99538681248E+01  0.18993033099E+02 -0.96212490716E+01  0.23502834524E+02  0.00000000000E+00 0.  1.
         21    1    1    2  504  501  0.99538681248E+01 -0.18993033099E+02  0.15184853494E+02  0.26275360561E+02  0.00000000000E+00 0.  1.
</event>
<event>
 4    1  0.3080871E+006  0.2777320E+02  0.7546771E-02  0.1439992E+00
         21   -1    0    0  504  501  0.00000000000E+00  0.00000000000E+00  0.10640347031E+01  0.10640347031E+01  0.00000000000E+00 0.  1.
         21   -1    0    0  503  502 -0.00000000000E+00 -0.00000000000E+00 -0.76237760010E+03  0.76237760010E+03  0.00000000000E+00 0.  1.
         21    1    1    2  503  501  0.10849910492E+02  0.25566194013E+02 -0.46525708650E+03  0.46608530053E+03  0.00000000000E+00 0.  1.
         21    1    1    2  504  502 -0.10849910492E+02 -0.25566194013E+02 -0.29605647889E+03  0.29735633427E+03  0.00000000000E+00 0.  1.
</event>
<event>
 4    1  0.3080871E+006  0.3368222E+02  0.7546771E-02  0.1390072E+00
         21   -1    0    0  504  501  0.00000000000E+00  0.00000000000E+00  0.55711405662E+01  0.55711405662E+01  0.00000000000E+00 0.  1.
         21   -1    0    0  503  502 -0.00000000000E+00 -0.00000000000E+00 -0.22571872134E+03  0.22571872134E+03  0.00000000000E+00 0.  1.
         21    1    1    2  503  501 -0.31207995917E+02 -0.12670954715E+02 -0.73903151314E+02  0.81216795533E+02  0.00000000000E+00 0.  1.
         21    1    1    2  504  502  0.31207995917E+02  0.12670954715E+02 -0.14624442946E+03  0.15007306637E+03  0.00000000000E+00 0.  1.
</event>
<event>
 4    1  0.3080871E+006  0.2030060E+02  0.7546771E-02  0.1529489E+00
         21   -1    0    0  503  501  0.00000000000E+00  0.00000000000E+00  0.47785211524E+01  0.47785211524E+01  0.00000000000E+00 0.  1.
         21   -1    0    0  504  502 -0.00000000000E+00 -0.00000000000E+00 -0.14010921442E+03  0.14010921442E+03  0.00000000000E+00 0.  1.
         21    1    1    2  503  502  0.67966410788E+01  0.19129033883E+02 -0.11258395392E+03  0.11439956708E+03  0.00000000000E+00 0.  1.
         21    1    1    2  504  501 -0.67966410788E+01 -0.19129033883E+02 -0.22746739350E+02  0.30488168497E+02  0.00000000000E+00 0.  1.
</event>
<event>
 4    1  0.3080871E+006  0.2108348E+02  0.7546771E-02  0.1518076E+00
         21   -1    0    0  503  501  0.00000000000E+00  0.00000000000E+00  0.12653923106E+01  0.12653923106E+01  0.00000000000E+00 0.  1.
         21   -1    0    0  501  502 -0.00000000000E+00 -0.00000000000E+00 -0.39642012358E+03  0.39642012358E+03  0.00000000000E+00 0. -1.
         21    1    1    2  503  504 -0.19002281407E+02  0.91338082061E+01 -0.13048239607E+03  0.13217476626E+03  0.00000000000E+00 0.  1.
         21    1    1    2  504  502  0.19002281407E+02 -0.91338082061E+01 -0.26467233519E+03  0.26551074963E+03  0.00000000000E+00 0. -1.
</event>
<event>
 4    1  0.3080871E+006  0.6626910E+02  0.7546771E-02  0.1239901E+00
         21   -1    0    0  502  501  0.00000000000E+00  0.00000000000E+00  0.25625268895E+03  0.25625268895E+03  0.00000000000E+00 0.  1.
         21   -1    0    0  504  502 -0.00000000000E+00 -0.00000000000E+00 -0.10329983897E+03  0.10329983897E+03  0.00000000000E+00 0.  1.
         21    1    1    2  503  501  0.20037307655E+02  0.63167238853E+02  0.24066413511E+03  0.24962135263E+03  0.00000000000E+00 0.  1.
         21    1    1    2  504  503 -0.20037307655E+02 -0.63167238853E+02 -0.87711285121E+02  0.10993117529E+03  0.00000000000E+00 0.  1.
</event>
<event>
 4    1  0.3080871E+006  0.2056980E+02  0.7546771E-02  0.1525497E+00
         21   -1    0    0  503  501  0.00000000000E+00  0.00000000000E+00  0.85726719408E+02  0.85726719408E+02  0.00000000000E+00 0. -1.
         21   -1    0    0  504  502 -0.00000000000E+00 -0.00000000000E+00 -0.49814059488E+02  0.49814059488E+02  0.00000000000E+00 0.  1.
         21    1    1    2  503  502 -0.13720011179E+02 -0.15325724179E+02  0.82281771147E+02  0.84813951632E+02  0.00000000000E+00 0. -1.
         21    1    1    2  504  501  0.13720011179E+02  0.15325724179E+02 -0.46369111227E+02  0.50726827264E+02  0.00000000000E+00 0.  1.
</event>
<event>
 4    1  0.3080871E+006  0.2804134E+02  0.7546771E-02  0.1437419E+00
         21   -1    0    0  504  501  0.00000000000E+00  0.00000000000E+00  0.63546467377E+02  0.63546467377E+02  0.00000000000E+00 0. -1.
         21   -1    0    0  501  502 -0.00000000000E+00 -0.00000000000E+00 -0.10073394837E+03  0.10073394837E+03  0.00000000000E+00 0.  1.
         21    1    1    2  503  502 -0.27786237838E+02  0.37738130074E+01 -0.95523766379E+02  0.99554540936E+02  0.00000000000E+00 0.  1.
         21    1    1    2  504  503  0.27786237838E+02 -0.37738130074E+01  0.58336285384E+02  0.64725874812E+02  0.00000000000E+00 0. -1.
</event>
<event>
 4    1  0.3080871E+006  0.2200076E+02  0.7546771E-02  0.1505442E+00
         21   -1    0    0  503  501  0.00000000000E+00  0.00000000000E+00  0.35647123206E+02  0.35647123206E+02  0.00000000000E+00 0. -1.
         21   -1    0    0  504  502 -0.00000000000E+00 -0.00000000000E+00 -0.34666188266E+02  0.34666188266E+02  0.00000000000E+00 0.  1.
         21    1    1    2  503  502  0.16322043036E+02  0.14752094640E+02  0.27910584767E+02  0.35539191426E+02  0.00000000000E+00 0. -1.
         21    1    1    2  504  501 -0.16322043036E+02 -0.14752094640E+02 -0.26929649827E+02  0.34774120046E+02  0.00000000000E+00 0.  1.
</event>
<event>
 4    1  0.3080871E+006  0.2794577E+02  0.7546771E-02  0.1438332E+00
         21   -1    0    0  504  501  0.00000000000E+00  0.00000000000E+00  0.18012552859E+02  0.18012552859E+02  0.00000000000E+00 0.  1.
         21   -1    0    0  503  502 -0.00000000000E+00 -0.00000000000E+00 -0.58649528685E+02  0.58649528685E+02  0.00000000000E+00 0. -1.
         21    1    1    2  503  501  0.27504827565E+02 -0.49447554466E+01 -0.39891661105E+02  0.48706373007E+02  0.00000000000E+00 0. -1.
         21    1    1    2  504  502 -0.27504827565E+02  0.49447554466E+01 -0.74531472132E+00  0.27955708538E+02  0.00000000000E+00 0.  1.
</event>
<event>
 4    1  0.3080871E+006  0.2175442E+02  0.7546771E-02  0.1508761E+00
         21   -1    0    0  503  501  0.00000000000E+00  0.00000000000E+00  0.12346305057E+03  0.12346305057E+03  0.00000000000E+00 0. -1.
         21   -1    0    0  504  502 -0.00000000000E+00 -0.00000000000E+00 -0.51230354985E+01  0.51230354985E+01  0.00000000000E+00 0. -1.
         21    1    1    2  503  502  0.37935315457E+00 -0.21751115312E+02  0.91430606337E+02  0.93983034114E+02  0.00000000000E+00 0. -1.
         21    1    1    2  504  501 -0.37935315457E+00  0.21751115312E+02  0.26909408735E+02  0.34603051955E+02  0.00000000000E+00 0. -1.
</event>
<event>
 4    1  0.3080871E+006  0.2912677E+02  0.7546771E-02  0.1427340E+00
         21   -1    0    0  503  501  0.00000000000E+00  0.00000000000E+00  0.11248596761E+02  0.11248596761E+02  0.00000000000E+00 0.  1.
         21   -1    0    0  501  502 -0.00000000000E+00 -0.00000000000E+00 -0.28502670271E+03  0.28502670271E+03  0.00000000000E+00 0. -1.
         21    1    1    2  503  504 -0.12933353314E+02 -0.26097834806E+02 -0.98534918474E+01  0.30748331843E+02  0.00000000000E+00 0.  1.
         21    1    1    2  504  502  0.12933353314E+02  0.26097834806E+02 -0.26392461410E+03  0.26552696763E+03  0.00000000000E+00 0. -1.
</event>
<event>
 4    1  0.3080871E+006  0.2282420E+02  0.7546771E-02  0.1494717E+00
         21   -1    0    0  503  501  0.00000000000E+00  0.00000000000E+00  0.46183767262E+02  0.46183767262E+02  0.00000000000E+00 0. -1.
         21   -1    0    0  504  502 -0.00000000000E+00 -0.00000000000E+00 -0.12055851073E+02  0.12055851073E+02  0.00000000000E+00 0. -1.
         21    1    1    2  503  502 -0.16713744324E+02 -0.15543329132E+02  0.24452022427E+02  0.33449151419E+02  0.00000000000E+00 0. -1.
         21    1    1    2  504  501  0.16713744324E+02  0.15543329132E+02  0.96758937618E+01  0.24790466916E+02  0.00000000000E+00 0. -1.
</event>
<event>
 4    1  0.3080871E+006  0.2559234E+02  0.7546771E-02  0.1462285E+00
         21   -1    0    0  504  501  0.00000000000E+00  0.00000000000E+00  0.31250040089E+02  0.31250040089E+02  0.00000000000E+00 0.  1.
         21   -1    0    0  503  502 -0.00000000000E+00 -0.00000000000E+00 -0.22701233747E+02  0.22701233747E+02  0.00000000000E+00 0.  1.
         21    1    1    2  503  501  0.19909448675E+02 -0.16080481162E+02  0.11747600448E+02  0.28159796470E+02  0.00000000000E+00 0.  1.
         21    1    1    2  504  502 -0.19909448675E+02  0.16080481162E+02 -0.31987941063E+01  0.25791477365E+02  0.00000000000E+00 0.  1.
</event>
<event>
 4    1  0.3080871E+006  0.3895308E+02  0.7546771E-02  0.1354732E+00
         21   -1    0    0  502  501  0.00000000000E+00  0.00000000000E+00  0.73761074410E+02  0.73761074410E+02  0.00000000000E+00 0.  1.
         21   -1    0    0  504  502 -0.00000000000E+00 -0.00000000000E+00 -0.10312480346E+04  0.10312480346E+04  0.00000000000E+00 0. -1.
         21    1    1    2  503  501 -0.38926270821E+02 -0.14450701250E+01  0.68222711847E+02  0.78560048367E+02  0.00000000000E+00 0.  1.
         21    1    1    2  504  503  0.38926270821E+02  0.14450701250E+01 -0.10257096720E+04  0.10264490606E+04  0.00000000000E+00 0. -1.
</event>
<event>
 4    1  0.3080871E+006  0.2914353E+02  0.7546771E-02  0.1427188E+00
         21   -1    0    0  502  501  0.00000000000E+00  0.00000000000E+00  0.29900076599E+03  0.29900076599E+03  0.00000000000E+00 0. -1.
         21   -1    0    0  503  502 -0.00000000000E+00 -0.00000000000E+00 -0.66547912481E+01  0.66547912481E+01  0.00000000000E+00 0. -1.
         21    1    1    2  503  504 -0.28711218205E+02  0.50011068402E+01  0.30472379690E+02  0.42165282454E+02  0.00000000000E+00 0. -1.
         21    1    1    2  504  501  0.28711218205E+02 -0.50011068402E+01  0.26187359505E+03  0.26349027478E+03  0.00000000000E+00 0. -1.
</event>
<event>
 4    1  0.3080871E+006  0.3739484E+02  0.7546771E-02  0.1364467E+00
         21   -1    0    0  503  501  0.00000000000E+00  0.00000000000E+00  0.18063278152E+02  0.18063278152E+02  0.00000000000E+00 0. -1.
         21   -1    0    0  504  502 -0.00000000000E+00 -0.00000000000E+00 -0.14384932766E+03  0.14384932766E+03  0.00000000000E+00 0. -1.
         21    1    1    2  503  502 -0.28260295864E+02  0.24489383057E+02 -0.78766435559E+01  0.38215385888E+02  0.00000000000E+00 0. -1.
         21    1    1    2  504  501  0.28260295864E+02 -0.24489383057E+02 -0.11790940595E+03  0.12369721992E+03  0.00000000000E+00 0. -1.
</event>
<event>
 4    1  0.3080871E+006  0.2989054E+02  0.7546771E-02  0.1420550E+00
         21   -1    0    0  503  501  0.00000000000E+00  0.00000000000E+00  0.37913509689E+03  0.37913509689E+03  0.00000000000E+00 0. -1.
         21   -1    0    0  504  502 -0.00000000000E+00 -0.00000000000E+00 -0.96959044251E+01  0.96959044251E+01  0.00000000000E+00 0. -1.
         21    1    1    2  503  502 -0.28281674487E+02  0.96742690469E+01  0.15571879091E+02  0.33703531147E+02  0.00000000000E+00 0. -1.
         21    1    1    2  504  501  0.28281674487E+02 -0.96742690469E+01  0.35386731338E+03  0.35512747017E+03  0.00000000000E+00 0. -1.
</event>
<event>
 4    1  0.3080871E+006  0.4269101E+02  0.7546771E-02  0.1333399E+00
         21   -1    0    0  504  501  0.00000000000E+00  0.00000000000E+00  0.10828580278E+03  0.10828580278E+03  0.00000000000E+00 0. -1.
         21   -1    0    0  501  502 -0.00000000000E+00 -0.00000000000E+00 -0.42389839902E+02  0.42389839902E+02  0.00000000000E+00 0. -1.
         21    1    1    2  503  502  0.33965473723E+02 -0.25862502393E+02 -0.25551976668E+02  0.49753652599E+02  0.00000000000E+00 0. -1.
         21    1    1    2  504  503 -0.33965473723E+02  0.25862502393E+02  0.91447939549E+02  0.10092199009E+03  0.00000000000E+00 0. -1.
</event>
<event>
 4    1  0.3080871E+006  0.2649596E+02  0.7546771E-02  0.1452738E+00
         21   -1    0    0  503  501  0.00000000000E+00  0.00000000000E+00  0.64293293239E+02  0.64293293239E+02  0.00000000000E+00 0. -1.
         21   -1    0    0  504  502 -0.00000000000E+00 -0.00000000000E+00 -0.15677519383E+02  0.15677519383E+02  0.00000000000E+00 0. -1.
         21    1    1    2  503  502  0.24165769258E+02 -0.10865159502E+02  0.22793197013E+01  0.26593822462E+02  0.00000000000E+00 0. -1.
         21    1    1    2  504  501 -0.24165769258E+02  0.10865159502E+02  0.46336454155E+02  0.53376990159E+02  0.00000000000E+00 0. -1.
</event>
<event>
 4    1  0.3080871E+006  0.2575599E+02  0.7546771E-02  0.1460521E+00
         21   -1    0    0  502  501  0.00000000000E+00  0.00000000000E+00  0.14250487109E+02  0.14250487109E+02  0.00000000000E+00 0. -1.
         21   -1    0    0  503  502 -0.00000000000E+00 -0.00000000000E+00 -0.25392841777E+03  0.25392841777E+03  0.00000000000E+00 0. -1.
         21    1    1    2  503  504 -0.20270163325E+02  0.15889983513E+02 -0.24101589374E+03  0.24238818480E+03  0.00000000000E+00 0. -1.
         21    1    1    2  504  501  0.20270163325E+02 -0.15889983513E+02  0.13379630697E+01  0.25790720084E+02  0.00000000000E+00 0. -1.
</event>
<event>
 4    1  0.3080871E+006  0.2103801E+02  0.7546771E-02  0.1518723E+00
         21   -1    0    0  503  501  0.00000000000E+00  0.00000000000E+00  0.56822792447E+03  0.56822792447E+03  0.00000000000E+00 0.  1.
         21   -1    0    0  501  502 -0.00000000000E+00 -0.00000000000E+00 -0.14018552781E+01  0.14018552781E+01  0.00000000000E+00 0. -1.
         21    1    1    2  503  504  0.12783076535E+01  0.20999141920E+02  0.47327426117E+03  0.47374162190E+03  0.00000000000E+00 0.  1.
         21    1    1    2  504  502 -0.12783076535E+01 -0.20999141920E+02  0.93551808018E+02  0.95888157847E+02  0.00000000000E+00 0. -1.
</event>
<event>
 4    1  0.3080871E+006  0.3624513E+02  0.7546771E-02  0.1372015E+00
         21   -1    0    0  504  501  0.00000000000E+00  0.00000000000E+00  0.62838740716E+03  0.62838740716E+03  0.00000000000E+00 0. -1.
         21   -1    0    0  503  502 -0.00000000000E+00 -0.00000000000E+00 -0.22479681047E+01  0.22479681047E+01  0.00000000000E+00 0. -1.
         21    1    1    2  503  501 -0.12377168455E+02  0.34066332015E+02  0.22964284171E+03  0.23248557810E+03  0.00000000000E+00 0. -1.
         21    1    1    2  504  502  0.12377168455E+02 -0.34066332015E+02  0.39649659735E+03  0.39814979717E+03  0.00000000000E+00 0. -1.
</event>
<event>
 4    1  0.3080871E+006  0.2105033E+02  0.7546771E-02  0.1518547E+00
         21   -1    0    0  504  501  0.00000000000E+00  0.00000000000E+00  0.47924705107E+01  0.47924705107E+01  0.00000000000E+00 0. -1.
         21   -1    0    0  503  502 -0.00000000000E+00 -0.00000000000E+00 -0.10840511890E+03  0.10840511890E+03  0.00000000000E+00 0. -1.
         21    1    1    2  503  501  0.17927536543E+02 -0.11032665351E+02 -0.73512510661E+02  0.76467022270E+02  0.00000000000E+00 0. -1.
         21    1    1    2  504  502 -0.17927536543E+02  0.11032665351E+02 -0.30100137732E+02  0.36730567144E+02  0.00000000000E+00 0. -1.
</event>
<event>
 4    1  0.3080871E+006  0.2462816E+02  0.7546771E-02  0.1473006E+00
         21   -1    0    0  502  501  0.00000000000E+00  0.00000000000E+00  0.48804166068E+03  0.48804166068E+03  0.00000000000E+00 0. -1.
         21   -1    0    0  504  502 -0.00000000000E+00 -0.00000000000E+00 -0.60552563978E+01  0.60552563978E+01  0.00000000000E+00 0. -1.
         21    1    1    2  503  501 -0.22090759526E+02 -0.10887819073E+02  0.46123438771E+03  0.46189144468E+03  0.00000000000E+00 0. -1.
         21    1    1    2  504  503  0.22090759526E+02  0.10887819073E+02  0.20752016569E+02  0.32205472397E+02  0.00000000000E+00 0. -1.
</event>
<event>
 4    1  0.3080871E+006  0.2035683E+02  0.7546771E-02  0.1528649E+00
         21   -1    0    0  503  501  0.00000000000E+00  0.00000000000E+00  0.64068684099E+01  0.64068684099E+01  0.00000000000E+00 0.  1.
         21   -1    0    0  504  502 -0.00000000000E+00 -0.00000000000E+00 -0.11099709230E+03  0.11099709230E+03  0.00000000000E+00 0.  1.
         21    1    1    2  503  502  0.14864453529E+02  0.13908584308E+02 -0.14375460127E+02  0.24920966073E+02  0.00000000000E+00 0.  1.
         21    1    1    2  504  501 -0.14864453529E+02 -0.13908584308E+02 -0.90214763767E+02  0.92482994641E+02  0.00000000000E+00 0.  1.
</event>
<event>
 4    1  0.3080871E+006  0.4905206E+02  0.7546771E-02  0.1302336E+00
         21   -1    0    0  502  501  0.00000000000E+00  0.00000000000E+00  0.45514675982E+02  0.45514675982E+02  0.00000000000E+00 0. -1.
         21   -1    0    0  503  502 -0.00000000000E+00 -0.00000000000E+00 -0.17964201396E+04  0.17964201396E+04  0.00000000000E+00 0.  1.
         21    1    1    2  503  504  0.40397595332E+02  0.27823358875E+02 -0.17827680106E+04  0.17834427058E+04  0.00000000000E+00 0.  1.
         21    1    1    2  504  501 -0.40397595332E+02 -0.27823358875E+02  0.31862547021E+02  0.58492109813E+02  0.00000000000E+00 0. -1.
</event>
<event>
 4    1  0.3080871E+006  0.2265118E+02  0.7546771E-02  0.1496925E+00
         21   -1    0    0  504  501  0.00000000000E+00  0.00000000000E+00  0.52613730406E+01  0.52613730406E+01  0.00000000000E+00 0. -1.
         21   -1    0    0  503  502 -0.00000000000E+00 -0.00000000000E+00 -0.10834654235E+03  0.10834654235E+03  0.00000000000E+00 0.  1.
         21    1    1    2  503  501 -0.20991207895E+02 -0.85114593995E+01 -0.33584217831E+02  0.40508955026E+02  0.00000000000E+00 0. -1.
         21    1    1    2  504  502  0.20991207895E+02  0.85114593995E+01 -0.69500951482E+02  0.73098960368E+02  0.00000000000E+00 0.  1.
</event>
<event>
 4    1  0.3080871E+006  0.2301587E+02  0.7546771E-02  0.1492299E+00
         21   -1    0    0  502  501  0.00000000000E+00  0.00000000000E+00  0.99189080340E+02  0.99189080340E+02  0.00000000000E+00 0. -1.
         21   -1    0    0  503  502 -0.00000000000E+00 -0.00000000000E+00 -0.26534792076E+02  0.26534792076E+02  0.00000000000E+00 0.  1.
         21    1    1    2  503  504 -0.23736601848E+01  0.22893143656E+02 -0.19853696058E+02  0.30395715755E+02  0.00000000000E+00 0.  1.
         21    1    1    2  504  501  0.23736601848E+01 -0.22893143656E+02  0.92507984321E+02  0.95328156661E+02  0.00000000000E+00 0. -1.
</event>
<event>
 4    1  0.3080871E+006  0.2235448E+02  0.7546771E-02  0.1500767E+00
         21   -1    0    0  503  501  0.00000000000E+00  0.00000000000E+00  0.14432205194E+02  0.14432205194E+02  0.00000000000E+00 0. -1.
         21   -1    0    0  501  502 -0.00000000000E+00 -0.00000000000E+00 -0.48131039266E+02  0.48131039266E+02  0.00000000000E+00 0. -1.
         21    1    1    2  503  504 -0.21132762483E+02 -0.72889875005E+01 -0.27905992311E+00  0.22356226502E+02  0.00000000000E+00 0. -1.
         21    1    1    2  504  502  0.21132762483E+02  0.72889875005E+01 -0.33419774149E+02  0.40207017959E+02  0.00000000000E+00 0. -1.
</event>
<event>
 4    1  0.3080871E+006  0.2329321E+02  0.7546771E-02  0.1488849E+00
         21   -1    0    0  503  501  0.00000000000E+00  0.00000000000E+00  0.23608085671E+02  0.23608085671E+02  0.00000000000E+00 0. -1.
         21   -1    0    0  504  502 -0.00000000000E+00 -0.00000000000E+00 -0.28878667129E+02  0.28878667129E+02  0.00000000000E+00 0. -1.
         21    1    1    2  503  502  0.11456946747E+02 -0.20280823854E+02 -0.14493389642E+02  0.27434135457E+02  0.00000000000E+00 0. -1.
         21    1    1    2  504  501 -0.11456946747E+02  0.20280823854E+02  0.92228081847E+01  0.25052617343E+02  0.00000000000E+00 0. -1.
</event>
<event>
 4    1  0.3080871E+006  0.2720288E+02  0.7546771E-02  0.1445581E+00
         21   -1    0    0  502  501  0.00000000000E+00  0.00000000000E+00  0.13979295870E+02  0.13979295870E+02  0.00000000000E+00 0.  1.
         21   -1    0    0  503  502 -0.00000000000E+00 -0.00000000000E+00 -0.15083218883E+03  0.15083218883E+03  0.00000000000E+00 0. -1.
         21    1    1    2  503  504  0.16755931118E+02 -0.21429776663E+02 -0.13481529997E+03  0.13753240222E+03  0.00000000000E+00 0. -1.
         21    1    1    2  504  501 -0.16755931118E+02  0.21429776663E+02 -0.20375929881E+01  0.27279082475E+02  0.00000000000E+00 0.  1.
</event>
<event>
 4    1  0.3080871E+006  0.2186918E+02  0.7546771E-02  0.1507208E+00
         21   -1    0    0  502  501  0.00000000000E+00  0.00000000000E+00  0.27905327457E+03  0.27905327457E+03  0.00000000000E+00 0. -1.
         21   -1    0    0  503  502 -0.00000000000E+00 -0.00000000000E+00 -0.14023027115E+02  0.14023027115E+02  0.00000000000E+00 0. -1.
         21    1    1    2  503  504 -0.18220412487E+02 -0.12094522103E+02 -0.47764826085E+01  0.22384719837E+02  0.00000000000E+00 0. -1.
         21    1    1    2  504  501  0.18220412487E+02  0.12094522103E+02  0.26980673006E+03  0.27069158185E+03  0.00000000000E+00 0. -1.
</event>
<event>
 4    1  0.3080871E+006  0.4557803E+02  0.7546771E-02  0.1318574E+00
         21   -1    0    0  503  501  0.00000000000E+00  0.00000000000E+00  0.85682804024E+02  0.85682804024E+02  0.00000000000E+00 0.  1.
         21   -1    0    0  504  502 -0.00000000000E+00 -0.00000000000E+00 -0.82675949059E+02  0.82675949059E+02  0.00000000000E+00 0.  1.
         21    1    1    2  503  502  0.25695181713E+01  0.45505538949E+02  0.72271697948E+02  0.85443284247E+02  0.00000000000E+00 0.  1.
         21    1    1    2  504  501 -0.25695181713E+01 -0.45505538949E+02 -0.69264842984E+02  0.82915468836E+02  0.00000000000E+00 0.  1.
</event>
<event>
 4    1  0.3080871E+006  0.2566914E+02  0.7546771E-02  0.1461455E+00
         21   -1    0    0  503  501  0.00000000000E+00  0.00000000000E+00  0.44698586428E+03  0.44698586428E+03  0.00000000000E+00 0.  1.
         21   -1    0    0  504  502 -0.00000000000E+00 -0.00000000000E+00 -0.64804840062E+01  0.64804840062E+01  0.00000000000E+00 0. -1.
         21    1    1    2  503  502  0.18316900061E+02 -0.17983218271E+02  0.41953700795E+03  0.42032155073E+03  0.00000000000E+00 0.  1.
         21    1    1    2  504  501 -0.18316900061E+02  0.17983218271E+02  0.20968372324E+02  0.33144797558E+02  0.00000000000E+00 0. -1.
</event>
<event>
 4    1  0.3080871E+006  0.2267241E+02  0.7546771E-02  0.1496653E+00
         21   -1    0    0  504  501  0.00000000000E+00  0.00000000000E+00  0.44246818821E+02  0.44246818821E+02  0.00000000000E+00 0.  1.
         21   -1    0    0  503  502 -0.00000000000E+00 -0.00000000000E+00 -0.13307439891E+03  0.13307439891E+03  0.00000000000E+00 0. -1.
         21    1    1    2  503  501 -0.15299491069E+00 -0.22671890287E+02 -0.12911595733E+03  0.13109145072E+03  0.00000000000E+00 0. -1.
         21    1    1    2  504  502  0.15299491069E+00  0.22671890287E+02  0.40288377240E+02  0.46229767004E+02  0.00000000000E+00 0.  1.
</event>
<event>
 4    1  0.3080871E+006  0.2009810E+02  0.7546771E-02  0.1532541E+00
         21   -1    0    0  504  501  0.00000000000E+00  0.00000000000E+00  0.12545638963E+03  0.12545638963E+03  0.00000000000E+00 0. -1.
         21   -1    0    0  503  502 -0.00000000000E+00 -0.00000000000E+00 -0.21566067700E+03  0.21566067700E+03  0.00000000000E+00 0. -1.
         21    1    1    2  503  501  0.18046253291E+02 -0.88468184479E+01  0.12417842265E+03  0.12579433257E+03  0.00000000000E+00 0. -1.
         21    1    1    2  504  502 -0.18046253291E+02  0.88468184479E+01 -0.21438271001E+03  0.21532273407E+03  0.00000000000E+00 0. -1.
</event>
<event>
 4    1  0.3080871E+006  0.2052613E+02  0.7546771E-02  0.1526139E+00
         21   -1    0    0  504  501  0.00000000000E+00  0.00000000000E+00  0.63387527119E+02  0.63387527119E+02  0.00000000000E+00 0. -1.
         21   -1    0    0  503  502 -0.00000000000E+00 -0.00000000000E+00 -0.78185516853E+01  0.78185516853E+01  0.00000000000E+00 0.  1.
         21    1    1    2  503  501 -0.88035485939E+01  0.18542368887E+02  0.14001338850E+02  0.24846718121E+02  0.00000000000E+00 0.  1.
         21    1    1    2  504  502  0.88035485939E+01 -0.18542368887E+02  0.41567636584E+02  0.46359360683E+02  0.00000000000E+00 0. -1.
</event>
<event>
 4    1  0.3080871E+006  0.2098153E+02  0.7546771E-02  0.1519529E+00
         21   -1    0    0  503  501  0.00000000000E+00  0.00000000000E+00  0.35414918802E+02  0.35414918802E+02  0.00000000000E+00 0. -1.
         21   -1    0    0  504  502 -0.00000000000E+00 -0.00000000000E+00 -0.22194038095E+03  0.22194038095E+03  0.00000000000E+00 0. -1.
         21    1    1    2  503  502 -0.68590596598E+01 -0.19828718048E+02  0.31759493827E+02  0.38064290444E+02  0.00000000000E+00 0. -1.
         21    1    1    2  504  501  0.68590596598E+01  0.19828718048E+02 -0.21828495597E+03  0.21929100931E+03  0.00000000000E+00 0. -1.
</event>
<event>
 4    1  0.3080871E+006  0.2152868E+02  0.7546771E-02  0.1511849E+00
         21   -1    0    0  502  501  0.00000000000E+00  0.00000000000E+00  0.13697942344E+01  0.13697942344E+01  0.00000000000E+00 0. -1.
         21   -1    0    0  504  502 -0.00000000000E+00 -0.00000000000E+00 -0.79187643604E+03  0.79187643604E+03  0.00000000000E+00 0. -1.
         21    1    1    2  503  501 -0.14811012562E+02  0.15624272717E+02 -0.95098251833E+02  0.97504674210E+02  0.00000000000E+00 0. -1.
         21    1    1    2  504  503  0.14811012562E+02 -0.15624272717E+02 -0.69540838997E+03  0.69574155606E+03  0.00000000000E+00 0. -1.
</event>
<event>
 4    1  0.3080871E+006  0.3074227E+02  0.7546771E-02  0.1413254E+00
         21   -1    0    0  504  501  0.00000000000E+00  0.00000000000E+00  0.74170750832E+01  0.74170750832E+01  0.00000000000E+00 0.  1.
         21   -1    0    0  503  502 -0.00000000000E+00 -0.00000000000E+00 -0.14542020166E+03  0.14542020166E+03  0.00000000000E+00 0.  1.
         21    1    1    2  503  501 -0.20556890555E+02 -0.22858283943E+02 -0.42115920411E+02  0.52142474492E+02  0.00000000000E+00 0.  1.
         21    1    1    2  504  502  0.20556890555E+02  0.22858283943E+02 -0.95887206166E+02  0.10069480225E+03  0.00000000000E+00 0.  1.
</event>
<event>
 4    1  0.3080871E+006  0.4226658E+02  0.7546771E-02  0.1335692E+00
         21   -1    0    0  504  501  0.00000000000E+00  0.00000000000E+00  0.81507228789E+01  0.81507228789E+01  0.00000000000E+00 0.  1.
         21   -1    0    0  503  502 -0.00000000000E+00 -0.00000000000E+00 -0.10898040629E+04  0.10898040629E+04  0.00000000000E+00 0. -1.
         21    1    1    2  503  501 -0.30915986898E+02  0.28821274342E+02 -0.10315039275E+04  0.10323695155E+04  0.00000000000E+00 0. -1.
         21    1    1    2  504  502  0.30915986898E+02 -0.28821274342E+02 -0.50149412525E+02  0.65585270276E+02  0.00000000000E+00 0.  1.
</event>
<event>
 4    1  0.3080871E+006  0.2538452E+02  0.7546771E-02  0.1464547E+00
         21   -1    0    0  503  501  0.00000000000E+00  0.00000000000E+00  0.41540662163E+01  0.41540662163E+01  0.00000000000E+00 0. -1.
         21   -1    0    0  504  502 -0.00000000000E+00 -0.00000000000E+00 -0.50207453044E+03  0.50207453044E+03  0.00000000000E+00 0. -1.
         21    1    1    2  503  502 -0.25377433293E+02 -0.59958660393E+00 -0.45937181205E+03  0.46007264137E+03  0.00000000000E+00 0. -1.
         21    1    1    2  504  501  0.25377433293E+02  0.59958660393E+00 -0.38548652174E+02  0.46155955294E+02  0.00000000000E+00 0. -1.
</event>
<event>
 4    1  0.3080871E+006  0.2064477E+02  0.7546771E-02  0.1524398E+00
         21   -1    0    0  503  501  0.00000000000E+00  0.00000000000E+00  0.38005227954E+03  0.38005227954E+03  0.00000000000E+00 0.  1.
         21   -1    0    0  504  502 -0.00000000000E+00 -0.00000000000E+00 -0.47123324256E+01  0.47123324256E+01  0.00000000000E+00 0. -1.
         21    1    1    2  503  502 -0.18296302627E+02 -0.95630455073E+01  0.35560769337E+03  0.35620645434E+03  0.00000000000E+00 0.  1.
         21    1    1    2  504  501  0.18296302627E+02  0.95630455073E+01  0.19732253746E+02  0.28558157627E+02  0.00000000000E+00 0. -1.
</event>
<event>
 4    1  0.3080871E+006  0.2337704E+02  0.7546771E-02  0.1487817E+00
         21   -1    0    0  503  501  0.00000000000E+00  0.00000000000E+00  0.36435052518E+02  0.36435052518E+02  0.00000000000E+00 0. -1.
         21   -1    0    0  504  502 -0.00000000000E+00 -0.00000000000E+00 -0.61479477127E+03  0.61479477127E+03  0.00000000000E+00 0. -1.
         21    1    1    2  503  502  0.97653508720E+01 -0.21239680084E+02 -0.61079829507E+03  0.61124548534E+03  0.00000000000E+00 0. -1.
         21    1    1    2  504  501 -0.97653508720E+01  0.21239680084E+02  0.32438576317E+02  0.39984338449E+02  0.00000000000E+00 0. -1.
</event>
<event>
 4    1  0.3080871E+006  0.2115400E+02  0.7546771E-02  0.1517077E+00
         21   -1    0    0  502  501  0.00000000000E+00  0.00000000000E+00  0.59752763758E+01  0.59752763758E+01  0.00000000000E+00 0. -1.
         21   -1    0    0  504  502 -0.00000000000E+00 -0.00000000000E+00 -0.80977686864E+02  0.80977686864E+02  0.00000000000E+00 0. -1.
         21    1    1    2  503  501 -0.19721362702E+02 -0.76524111437E+01 -0.49421291045E+02  0.53758306816E+02  0.00000000000E+00 0. -1.
         21    1    1    2  504  503  0.19721362702E+02  0.76524111437E+01 -0.25581119444E+02  0.33194656424E+02  0.00000000000E+00 0. -1.
</event>
<event>
 4    1  0.3080871E+006  0.2659906E+02  0.7546771E-02  0.1451678E+00
         21   -1    0    0  504  501  0.00000000000E+00  0.00000000000E+00  0.46920420694E+02  0.46920420694E+02  0.00000000000E+00 0.  1.
         21   -1    0    0  501  502 -0.00000000000E+00 -0.00000000000E+00 -0.39606829017E+03  0.39606829017E+03  0.00000000000E+00 0.  1.
         21    1    1    2  503  502  0.72282782787E+01 -0.25598082558E+02 -0.39181106090E+03  0.39271289422E+03  0.00000000000E+00 0.  1.
         21    1    1    2  504  503 -0.72282782787E+01  0.25598082558E+02  0.42663191424E+02  0.50275816652E+02  0.00000000000E+00 0.  1.
</event>
<event>
 4    1  0.3080871E+006  0.3973013E+02  0.7546771E-02  0.1350075E+00
         21   -1    0    0  503  501  0.00000000000E+00  0.00000000000E+00  0.17377805447E+03  0.17377805447E+03  0.00000000000E+00 0. -1.
         21   -1    0    0  504  502 -0.00000000000E+00 -0.00000000000E+00 -0.19919128187E+02  0.19919128187E+02  0.00000000000E+00 0.  1.
         21    1    1    2  503  502 -0.29761887454E+02  0.26319450351E+02  0.14836077060E+03  0.15358841644E+03  0.00000000000E+00 0. -1.
         21    1    1    2  504  501  0.29761887454E+02 -0.26319450351E+02  0.54981556847E+01  0.40108766218E+02  0.00000000000E+00 0.  1.
</event>
<event>
 4    1  0.3080871E+006  0.2025218E+02  0.7546771E-02  0.1530215E+00
         21   -1    0    0  503  501  0.00000000000E+00  0.00000000000E+00  0.33010968471E+02  0.33010968471E+02  0.00000000000E+00 0. -1.
         21   -1    0    0  504  502 -0.00000000000E+00 -0.00000000000E+00 -0.55836624566E+02  0.55836624566E+02  0.00000000000E+00 0.  1.
         21    1    1    2  503  502 -0.16743437707E+02 -0.11393341061E+02  0.27757813220E+02  0.34360546002E+02  0.00000000000E+00 0. -1.
         21    1    1    2  504  501  0.16743437707E+02  0.11393341061E+02 -0.50583469315E+02  0.54487047036E+02  0.00000000000E+00 0.  1.
</event>
<event>
 4    1  0.3080871E+006  0.2348399E+02  0.7546771E-02  0.1486508E+00
         21   -1    0    0  504  501  0.00000000000E+00  0.00000000000E+00  0.18023523966E+03  0.18023523966E+03  0.00000000000E+00 0.  1.
         21   -1    0    0  503  502 -0.00000000000E+00 -0.00000000000E+00 -0.66609820858E+01  0.66609820858E+01  0.00000000000E+00 0.  1.
         21    1    1    2  503  501  0.22153651642E+02  0.77919020157E+01  0.15549700602E+03  0.15726034751E+03  0.00000000000E+00 0.  1.
         21    1    1    2  504  502 -0.22153651642E+02 -0.77919020157E+01  0.18077251563E+02  0.29635874244E+02  0.00000000000E+00 0.  1.
</event>
<event>
 4    1  0.3080871E+006  0.2373381E+02  0.7546771E-02  0.1483484E+00
         21   -1    0    0  504  501  0.00000000000E+00  0.00000000000E+00  0.21671926776E+03  0.21671926776E+03  0.00000000000E+00 0.  1.
         21   -1    0    0  503  502 -0.00000000000E+00 -0.00000000000E+00 -0.64360635894E+01  0.64360635894E+01  0.00000000000E+00 0.  1.
         21    1    1    2  503  501  0.18426923794E+02  0.14958010957E+02  0.19129176427E+03  0.19275848280E+03  0.00000000000E+00 0.  1.
         21    1    1    2  504  502 -0.18426923794E+02 -0.14958010957E+02  0.18991439893E+02  0.30396848546E+02  0.00000000000E+00 0.  1.
</event>
<event>
 4    1  0.3080871E+006  0.2487740E+02  0.7546771E-02  0.1470180E+00
         21   -1    0    0  502  501  0.00000000000E+00  0.00000000000E+00  0.36653408537E+03  0.36653408537E+03  0.00000000000E+00 0. -1.
         21   -1    0    0  504  502 -0.00000000000E+00 -0.00000000000E+00 -0.88403978105E+01  0.88403978105E+01  0.00000000000E+00 0.  1.
         21    1    1    2  503  501  0.24420326942E+02 -0.47468326474E+01  0.34766150502E+03  0.34855043661E+03  0.00000000000E+00 0. -1.
         21    1    1    2  504  503 -0.24420326942E+02  0.47468326474E+01  0.10032182547E+02  0.26824046578E+02  0.00000000000E+00 0.  1.
</event>
<event>
 4    1  0.3080871E+006  0.4037246E+02  0.7546771E-02  0.1346317E+00
         21   -1    0    0  503  501  0.00000000000E+00  0.00000000000E+00  0.92722450160E+02  0.92722450160E+02  0.00000000000E+00 0.  1.
         21   -1    0    0  504  502 -0.00000000000E+00 -0.00000000000E+00 -0.22180738240E+02  0.22180738240E+02  0.00000000000E+00 0.  1.
         21    1    1    2  503  502 -0.37201423647E+02 -0.15684060859E+02  0.91015948156E+01  0.41385682483E+02  0.00000000000E+00 0.  1.
         21    1    1    2  504  501  0.37201423647E+02  0.15684060859E+02  0.61440117105E+02  0.73517505917E+02  0.00000000000E+00 0.  1.
</event>
<event>
 4    1  0.3080871E+006  0.2274171E+02  0.7546771E-02  0.1495767E+00
         21   -1    0    0  503  501  0.00000000000E+00  0.00000000000E+00  0.39241335907E+01  0.39241335907E+01  0.00000000000E+00 0.  1.
         21   -1    0    0  504  502 -0.00000000000E+00 -0.00000000000E+00 -0.19627375156E+03  0.19627375156E+03  0.00000000000E+00 0.  1.
         21    1    1    2  503  502 -0.74115412221E+01  0.21500104235E+02 -0.38802404700E+02  0.44975682718E+02  0.00000000000E+00 0.  1.
         21    1    1    2  504  501  0.74115412221E+01 -0.21500104235E+02 -0.15354721327E+03  0.15522220243E+03  0.00000000000E+00 0.  1.
</event>
<event>
 4    1  0.3080871E+006  0.2072490E+02  0.7546771E-02  0.1523229E+00
         21   -1    0    0  504  501  0.00000000000E+00  0.00000000000E+00  0.45996144699E+01  0.45996144699E+01  0.00000000000E+00 0. -1.
         21   -1    0    0  503  502 -0.00000000000E+00 -0.00000000000E+00 -0.99335004376E+02  0.99335004376E+02  0.00000000000E+00 0. -1.
         21    1    1    2  503  501  0.19660772304E+02 -0.65555732461E+01 -0.34646007576E+02  0.40371615637E+02  0.00000000000E+00 0. -1.
         21    1    1    2  504  502 -0.19660772304E+02  0.65555732461E+01 -0.60089382330E+02  0.63563003209E+02  0.00000000000E+00 0. -1.
</event>
<event>
 4    1  0.3080871E+006  0.3697563E+02  0.7546771E-02  0.1367182E+00
         21   -1    0    0  503  501  0.00000000000E+00  0.00000000000E+00  0.13906981778E+02  0.13906981778E+02  0.00000000000E+00 0. -1.
         21   -1    0    0  501  502 -0.00000000000E+00 -0.00000000000E+00 -0.98627065523E+02  0.98627065523E+02  0.00000000000E+00 0. -1.
         21    1    1    2  503  504  0.24821025170E+02 -0.27406460345E+02 -0.39170466722E+02  0.53865785266E+02  0.00000000000E+00 0. -1.
         21    1    1    2  504  502 -0.24821025170E+02  0.27406460345E+02 -0.45549617023E+02  0.58668262034E+02  0.00000000000E+00 0. -1.
</event>
<event>
 4    1  0.3080871E+006  0.4714286E+02  0.7546771E-02  0.1311059E+00
         21   -1    0    0  503  501  0.00000000000E+00  0.00000000000E+00  0.10498011194E+02  0.10498011194E+02  0.00000000000E+00 0.  1.
         21   -1    0    0  504  502 -0.00000000000E+00 -0.00000000000E+00 -0.30124382686E+03  0.30124382686E+03  0.00000000000E+00 0.  1.
         21    1    1    2  503  502 -0.37688835384E+02 -0.28319624344E+02 -0.23035337533E+03  0.23512789490E+03  0.00000000000E+00 0.  1.
         21    1    1    2  504  501  0.37688835384E+02  0.28319624344E+02 -0.60392440337E+02  0.76613943153E+02  0.00000000000E+00 0.  1.
</event>
<event>
 4    1  0.3080871E+006  0.2361647E+02  0.7546771E-02  0.1484899E+00
         21   -1    0    0  504  501  0.00000000000E+00  0.00000000000E+00  0.27752500758E+03  0.27752500758E+03  0.00000000000E+00 0.  1.
         21   -1    0    0  501  502 -0.00000000000E+00 -0.00000000000E+00 -0.36820752602E+01  0.36820752602E+01  0.00000000000E+00 0.  1.
         21    1    1    2  503  502 -0.94296293839E+01 -0.21652245638E+02  0.42162822829E+02  0.48326403553E+02  0.00000000000E+00 0.  1.
         21    1    1    2  504  503  0.94296293839E+01  0.21652245638E+02  0.23168010949E+03  0.23288067929E+03  0.00000000000E+00 0.  1.
</event>
<event>
 4    1  0.3080871E+006  0.2991694E+02  0.7546771E-02  0.1420320E+00
         21   -1    0    0  502  501  0.00000000000E+00  0.00000000000E+00  0.96675258980E+03  0.96675258980E+03  0.00000000000E+00 0.  1.
         21   -1    0    0  504  502 -0.00000000000E+00 -0.00000000000E+00 -0.12657952182E+01  0.12657952182E+01  0.00000000000E+00 0.  1.
         21    1    1    2  503  501 -0.14603440043E+02 -0.26110588824E+02  0.73358860227E+03  0.73419837966E+03  0.00000000000E+00 0.  1.
         21    1    1    2  504  503  0.14603440043E+02  0.26110588824E+02  0.23189819231E+03  0.23382000536E+03  0.00000000000E+00 0.  1.
</event>
<event>
 4    1  0.3080871E+006  0.2106688E+02  0.7546771E-02  0.1518312E+00
         21   -1    0    0  502  501  0.00000000000E+00  0.00000000000E+00  0.11295779016E+01  0.11295779016E+01  0.00000000000E+00 0. -1.
         21   -1    0    0  504  502 -0.00000000000E+00 -0.00000000000E+00 -0.65067433778E+03  0.65067433778E+03  0.00000000000E+00 0. -1.
         21    1    1    2  503  501  0.95204015527E+01  0.18792962456E+02 -0.11964518778E+03  0.12148573761E+03  0.00000000000E+00 0. -1.
         21    1    1    2  504  503 -0.95204015527E+01 -0.18792962456E+02 -0.52989957210E+03  0.53031817807E+03  0.00000000000E+00 0. -1.
</event>
<event>
 4    1  0.3080871E+006  0.2101345E+02  0.7546771E-02  0.1519073E+00
         21   -1    0    0  503  501  0.00000000000E+00  0.00000000000E+00  0.15996294329E+01  0.15996294329E+01  0.00000000000E+00 0.  1.
         21   -1    0    0  504  502 -0.00000000000E+00 -0.00000000000E+00 -0.11437358790E+04  0.11437358790E+04  0.00000000000E+00 0.  1.
         21    1    1    2  503  502  0.13290458881E+02 -0.16276631435E+02 -0.10698642890E+04  0.10700706341E+04  0.00000000000E+00 0.  1.
         21    1    1    2  504  501 -0.13290458881E+02  0.16276631435E+02 -0.72271960560E+02  0.75264874353E+02  0.00000000000E+00 0.  1.
</event>
<event>
 4    1  0.3080871E+006  0.3155823E+02  0.7546771E-02  0.1406522E+00
         21   -1    0    0  503  501  0.00000000000E+00  0.00000000000E+00  0.14349283461E+02  0.14349283461E+02  0.00000000000E+00 0.  1.
         21   -1    0    0  504  502 -0.00000000000E+00 -0.00000000000E+00 -0.78154626679E+03  0.78154626679E+03  0.00000000000E+00 0. -1.
         21    1    1    2  503  502  0.31303028945E+02  0.40053024127E+01 -0.76346551824E+03  0.76411747762E+03  0.00000000000E+00 0. -1.
         21    1    1    2  504  501 -0.31303028945E+02 -0.40053024127E+01 -0.37314650955E+01  0.31778072633E+02  0.00000000000E+00 0.  1.
</event>
<event>
 4    1  0.3080871E+006  0.2461187E+02  0.7546771E-02  0.1473192E+00
         21   -1    0    0  504  501  0.00000000000E+00  0.00000000000E+00  0.16157091209E+03  0.16157091209E+03  0.00000000000E+00 0. -1.
         21   -1    0    0  503  502 -0.00000000000E+00 -0.00000000000E+00 -0.46373107483E+01  0.46373107483E+01  0.00000000000E+00 0. -1.
         21    1    1    2  503  501 -0.98688355217E+01  0.22546623084E+02  0.42096280690E+02  0.48763110801E+02  0.00000000000E+00 0. -1.
         21    1    1    2  504  502  0.98688355217E+01 -0.22546623084E+02  0.11483732065E+03  0.11744511204E+03  0.00000000000E+00 0. -1.
</event>
<event>
 4    1  0.3080871E+006  0.2062624E+02  0.7546771E-02  0.1524669E+00
         21   -1    0    0  503  501  0.00000000000E+00  0.00000000000E+00  0.15100367509E+03  0.15100367509E+03  0.00000000000E+00 0.  1.
         21   -1    0    0  504  502 -0.00000000000E+00 -0.00000000000E+00 -0.33457278885E+01  0.33457278885E+01  0.00000000000E+00 0.  1.
         21    1    1    2  503  502  0.57766412380E+01 -0.19800815710E+02  0.10449589426E+03  0.10651212984E+03  0.00000000000E+00 0.  1.
         21    1    1    2  504  501 -0.57766412380E+01  0.19800815710E+02  0.43162052938E+02  0.47837273131E+02  0.00000000000E+00 0.  1.
</event>
<event>
 4    1  0.3080871E+006  0.2111188E+02  0.7546771E-02  0.1517673E+00
         21   -1    0    0  504  501  0.00000000000E+00  0.00000000000E+00  0.13162283432E+03  0.13162283432E+03  0.00000000000E+00 0.  1.
         21   -1    0    0  501  502 -0.00000000000E+00 -0.00000000000E+00 -0.40100883127E+01  0.40100883127E+01  0.00000000000E+00 0.  1.
         21    1    1    2  503  502 -0.88622546059E+00  0.21093272894E+02  0.37058804899E+02  0.42650516732E+02  0.00000000000E+00 0.  1.
         21    1    1    2  504  503  0.88622546059E+00 -0.21093272894E+02  0.90553941110E+02  0.92982405903E+02  0.00000000000E+00 0.  1.
</event>
<event>
 4    1  0.3080871E+006  0.6623610E+02  0.7546771E-02  0.1240000E+00
         21   -1    0    0  503  501  0.00000000000E+00  0.00000000000E+00  0.15309629789E+03  0.15309629789E+03  0.00000000000E+00 0.  1.
         21   -1    0    0  501  502 -0.00000000000E+00 -0.00000000000E+00 -0.70073066617E+03  0.70073066617E+03  0.00000000000E+00 0.  1.
         21    1    1    2  503  504  0.34042313832E+02 -0.56818501259E+02  0.14427579327E+03  0.15875366371E+03  0.00000000000E+00 0.  1.
         21    1    1    2  504  502 -0.34042313832E+02  0.56818501259E+02 -0.69191016155E+03  0.69507330036E+03  0.00000000000E+00 0.  1.
</event>
<event>
 4    1  0.3080871E+006  0.2415185E+02  0.7546771E-02  0.1478520E+00
         21   -1    0    0  503  501  0.00000000000E+00  0.00000000000E+00  0.27360918263E+02  0.27360918263E+02  0.00000000000E+00 0. -1.
         21   -1    0    0  504  502 -0.00000000000E+00 -0.00000000000E+00 -0.59673611592E+02  0.59673611592E+02  0.00000000000E+00 0. -1.
         21    1    1    2  503  502 -0.24151582179E+02  0.11440580005E+00 -0.51044523454E+02  0.56469951169E+02  0.00000000000E+00 0. -1.
         21    1    1    2  504  501  0.24151582179E+02 -0.11440580005E+00  0.18731830124E+02  0.30564578686E+02  0.00000000000E+00 0. -1.
</event>
<event>
 4    1  0.3080871E+006  0.3635793E+02  0.7546771E-02  0.1371260E+00
         21   -1    0    0  504  501  0.00000000000E+00  0.00000000000E+00  0.24126566577E+02  0.24126566577E+02  0.00000000000E+00 0. -1.
         21   -1    0    0  501  502 -0.00000000000E+00 -0.00000000000E+00 -0.19268039724E+03  0.19268039724E+03  0.00000000000E+00 0. -1.
         21    1    1    2  503  502  0.47107082655E+01  0.36051471985E+02 -0.17598152402E+03  0.17969806955E+03  0.00000000000E+00 0. -1.
         21    1    1    2  504  503 -0.47107082655E+01 -0.36051471985E+02  0.74276933592E+01  0.37108894261E+02  0.00000000000E+00 0. -1.
</event>
<event>
 4    1  0.3080871E+006  0.2135345E+02  0.7546771E-02  0.1514278E+00
         21   -1    0    0  504  501  0.00000000000E+00  0.00000000000E+00  0.69943091055E+00  0.69943091055E+00  0.00000000000E+00 0.  1.
         21   -1    0    0  503  502 -0.00000000000E+00 -0.00000000000E+00 -0.65191576056E+03  0.65191576056E+03  0.00000000000E+00 0.  1.
         21    1    1    2  503  501 -0.66571001200E+01  0.20289234840E+02 -0.32558879643E+03  0.32628826886E+03  0.00000000000E+00 0.  1.
         21    1    1    2  504  502  0.66571001200E+01 -0.20289234840E+02 -0.32562753322E+03  0.32632692261E+03  0.00000000000E+00 0.  1.
</event>
<event>
 4    1  0.3080871E+006  0.2321473E+02  0.7546771E-02  0.1489819E+00
         21   -1    0    0  503  501  0.00000000000E+00  0.00000000000E+00  0.16244519631E+03  0.16244519631E+03  0.00000000000E+00 0.  1.
         21   -1    0    0  504  502 -0.00000000000E+00 -0.00000000000E+00 -0.72893564935E+02  0.72893564935E+02  0.00000000000E+00 0.  1.
         21    1    1    2  503  502 -0.51423545735E+01 -0.22638016261E+02  0.15973629864E+03  0.16141440051E+03  0.00000000000E+00 0.  1.
         21    1    1    2  504  501  0.51423545735E+01  0.22638016261E+02 -0.70184667262E+02  0.73924360731E+02  0.00000000000E+00 0.  1.
</event>
<event>
 4    1  0.3080871E+006  0.2042398E+02  0.7546771E-02  0.1527650E+00
         21   -1    0    0  503  501  0.00000000000E+00  0.00000000000E+00  0.40554139791E+02  0.40554139791E+02  0.00000000000E+00 0.  1.
         21   -1    0    0  501  502 -0.00000000000E+00 -0.00000000000E+00 -0.50024595147E+02  0.50024595147E+02  0.00000000000E+00 0.  1.
         21    1    1    2  503  504  0.19052419113E+02  0.73582855197E+01  0.35630318408E+02  0.41068949703E+02  0.00000000000E+00 0.  1.
         21    1    1    2  504  502 -0.19052419113E+02 -0.73582855197E+01 -0.45100773764E+02  0.49509785235E+02  0.00000000000E+00 0.  1.
</event>
<event>
 4    1  0.3080871E+006  0.2061938E+02  0.7546771E-02  0.1524769E+00
         21   -1    0    0  503  501  0.00000000000E+00  0.00000000000E+00  0.16971723428E+02  0.16971723428E+02  0.00000000000E+00 0. -1.
         21   -1    0    0  501  502 -0.00000000000E+00 -0.00000000000E+00 -0.44674930191E+02  0.44674930191E+02  0.00000000000E+00 0. -1.
         21    1    1    2  503  504  0.18710971087E+02  0.86636304879E+01  0.65770799619E+01  0.21642941414E+02  0.00000000000E+00 0. -1.
         21    1    1    2  504  502 -0.18710971087E+02 -0.86636304879E+01 -0.34280286725E+02  0.40003712205E+02  0.00000000000E+00 0. -1.
</event>
<event>
 4    1  0.3080871E+006  0.2971887E+02  0.7546771E-02  0.1422055E+00
         21   -1    0    0  503  501  0.00000000000E+00  0.00000000000E+00  0.60807012831E+03  0.60807012831E+03  0.00000000000E+00 0. -1.
         21   -1    0    0  501  502 -0.00000000000E+00 -0.00000000000E+00 -0.24468069557E+01  0.24468069557E+01  0.00000000000E+00 0. -1.
         21    1    1    2  503  504 -0.29698227671E+02  0.11074878955E+01  0.49740676688E+03  0.49829379184E+03  0.00000000000E+00 0. -1.
         21    1    1    2  504  502  0.29698227671E+02 -0.11074878955E+01  0.10821655448E+03  0.11222314342E+03  0.00000000000E+00 0. -1.
</event>
<event>
 4    1  0.3080871E+006  0.2233317E+02  0.7546771E-02  0.1501046E+00
         21   -1    0    0  504  501  0.00000000000E+00  0.00000000000E+00  0.24289778638E+03  0.24289778638E+03  0.00000000000E+00 0. -1.
         21   -1    0    0  503  502 -0.00000000000E+00 -0.00000000000E+00 -0.34419019660E+01  0.34419019660E+01  0.00000000000E+00 0.  1.
         21    1    1    2  503  501 -0.23798963561E+01  0.22206002156E+02  0.19795837595E+03  0.19921417883E+03  0.00000000000E+00 0. -1.
         21    1    1    2  504  502  0.23798963561E+01 -0.22206002156E+02  0.41497508469E+02  0.47125509520E+02  0.00000000000E+00 0.  1.
</event>
<event>
 4    1  0.3080871E+006  0.4157670E+02  0.7546771E-02  0.1339486E+00
         21   -1    0    0  503  501  0.00000000000E+00  0.00000000000E+00  0.32371064227E+03  0.32371064227E+03  0.00000000000E+00 0.  1.
         21   -1    0    0  501  502 -0.00000000000E+00 -0.00000000000E+00 -0.55683049406E+02  0.55683049406E+02  0.00000000000E+00 0. -1.
         21    1    1    2  503  504  0.41275981308E+02 -0.49914965502E+01  0.31438544404E+03  0.31712273507E+03  0.00000000000E+00 0.  1.
         21    1    1    2  504  502 -0.41275981308E+02  0.49914965502E+01 -0.46357851181E+02  0.62270956608E+02  0.00000000000E+00 0. -1.
</event>
<event>
 4    1  0.3080871E+006  0.2279110E+02  0.7546771E-02  0.1495138E+00
         21   -1    0    0  504  501  0.00000000000E+00  0.00000000000E+00  0.70470860459E+01  0.70470860459E+01  0.00000000000E+00 0. -1.
         21   -1    0    0  501  502 -0.00000000000E+00 -0.00000000000E+00 -0.84300697403E+02  0.84300697403E+02  0.00000000000E+00 0. -1.
         21    1    1    2  503  502  0.24193603886E+01  0.22662326053E+02 -0.54816300316E+02  0.59365487508E+02  0.00000000000E+00 0. -1.
         21    1    1    2  504  503 -0.24193603886E+01 -0.22662326053E+02 -0.22437311041E+02  0.31982295940E+02  0.00000000000E+00 0. -1.
</event>
<event>
 4    1  0.3080871E+006  0.3177993E+02  0.7546771E-02  0.1404735E+00
         21   -1    0    0  503  501  0.00000000000E+00  0.00000000000E+00  0.12719211522E+02  0.12719211522E+02  0.00000000000E+00 0. -1.
         21   -1    0    0  504  502 -0.00000000000E+00 -0.00000000000E+00 -0.10442104522E+03  0.10442104522E+03  0.00000000000E+00 0. -1.
         21    1    1    2  503  502  0.26137510482E+02  0.18077456472E+02 -0.17183077115E+02  0.36127856646E+02  0.00000000000E+00 0. -1.
         21    1    1    2  504  501 -0.26137510482E+02 -0.18077456472E+02 -0.74518756585E+02  0.81012400098E+02  0.00000000000E+00 0. -1.
</event>
<event>
 4    1  0.3080871E+006  0.2394575E+02  0.7546771E-02  0.1480952E+00
         21   -1    0    0  503  501  0.00000000000E+00  0.00000000000E+00  0.68695963001E+02  0.68695963001E+02  0.00000000000E+00 0. -1.
         21   -1    0    0  504  502 -0.00000000000E+00 -0.00000000000E+00 -0.83473565509E+01  0.83473565509E+01  0.00000000000E+00 0. -1.
         21    1    1    2  503  502  0.28682615051E+01  0.23773346754E+02  0.29892182014E+02  0.38300672129E+02  0.00000000000E+00 0. -1.
         21    1    1    2  504  501 -0.28682615051E+01 -0.23773346754E+02  0.30456424437E+02  0.38742647424E+02  0.00000000000E+00 0. -1.
</event>
<event>
 4    1  0.3080871E+006  0.3518756E+02  0.7546771E-02  0.1379249E+00
         21   -1    0    0  502  501  0.00000000000E+00  0.00000000000E+00  0.96891235211E+01  0.96891235211E+01  0.00000000000E+00 0. -1.
         21   -1    0    0  504  502 -0.00000000000E+00 -0.00000000000E+00 -0.28539246608E+03  0.28539246608E+03  0.00000000000E+00 0. -1.
         21    1    1    2  503  501 -0.43195329943E+01 -0.34921429097E+02 -0.28210521197E+02  0.45099867868E+02  0.00000000000E+00 0. -1.
         21    1    1    2  504  503  0.43195329943E+01  0.34921429097E+02 -0.24749282137E+03  0.24998172174E+03  0.00000000000E+00 0. -1.
</event>
<event>
 4    1  0.3080871E+006  0.2900855E+02  0.7546771E-02  0.1428412E+00
         21   -1    0    0  503  501  0.00000000000E+00  0.00000000000E+00  0.45367172468E+02  0.45367172468E+02  0.00000000000E+00 0. -1.
         21   -1    0    0  501  502 -0.00000000000E+00 -0.00000000000E+00 -0.50785830966E+02  0.50785830966E+02  0.00000000000E+00 0. -1.
         21    1    1    2  503  504 -0.19047999581E+02 -0.21878525085E+02  0.35594363819E+02  0.45917914626E+02  0.00000000000E+00 0. -1.
         21    1    1    2  504  502  0.19047999581E+02  0.21878525085E+02 -0.41013022317E+02  0.50235088808E+02  0.00000000000E+00 0. -1.
</event>
<event>
 4    1  0.3080871E+006  0.2173181E+02  0.7546771E-02  0.1509068E+00
         21   -1    0    0  504  501  0.00000000000E+00  0.00000000000E+00  0.11356967797E+02  0.11356967797E+02  0.00000000000E+00 0.  1.
         21   -1    0    0  501  502 -0.00000000000E+00 -0.00000000000E+00 -0.41596753906E+02  0.41596753906E+02  0.00000000000E+00 0.  1.
         21    1    1    2  503  502  0.21487074145E+02 -0.32522656498E+01 -0.15577973356E+02  0.26738452481E+02  0.00000000000E+00 0.  1.
         21    1    1    2  504  503 -0.21487074145E+02  0.32522656498E+01 -0.14661812753E+02  0.26215269222E+02  0.00000000000E+00 0.  1.
</event>
<event>
 4    1  0.3080871E+006  0.6237132E+02  0.7546771E-02  0.1251982E+00
         21   -1    0    0  502  501  0.00000000000E+00  0.00000000000E+00  0.46102227562E+03  0.46102227562E+03  0.00000000000E+00 0. -1.
         21   -1    0    0  503  502 -0.00000000000E+00 -0.00000000000E+00 -0.35267976366E+02  0.35267976366E+02  0.00000000000E+00 0. -1.
         21    1    1    2  503  504  0.22255978324E+02 -0.58265370715E+02 -0.35562539004E+01  0.62472625505E+02  0.00000000000E+00 0. -1.
         21    1    1    2  504  501 -0.22255978324E+02  0.58265370715E+02  0.42931055315E+03  0.43381762648E+03  0.00000000000E+00 0. -1.
</event>
<event>
 4    1  0.3080871E+006  0.2072480E+02  0.7546771E-02  0.1523230E+00
         21   -1    0    0  504  501  0.00000000000E+00  0.00000000000E+00  0.68746634280E+03  0.68746634280E+03  0.00000000000E+00 0.  1.
         21   -1    0    0  503  502 -0.00000000000E+00 -0.00000000000E+00 -0.31802400497E+01  0.31802400497E+01  0.00000000000E+00 0.  1.
         21    1    1    2  503  501 -0.80942444211E+01  0.19078801432E+02  0.65169261215E+03  0.65202206879E+03  0.00000000000E+00 0.  1.
         21    1    1    2  504  502  0.80942444211E+01 -0.19078801432E+02  0.32593490594E+02  0.38624514054E+02  0.00000000000E+00 0.  1.
</event>
<event>
 4    1  0.3080871E+006  0.2187308E+02  0.7546771E-02  0.1507155E+00
         21   -1    0    0  502  501  0.00000000000E+00  0.00000000000E+00  0.71316374000E+02  0.71316374000E+02  0.00000000000E+00 0.  1.
         21   -1    0    0  503  502 -0.00000000000E+00 -0.00000000000E+00 -0.83828864325E+01  0.83828864325E+01  0.00000000000E+00 0.  1.
         21    1    1    2  503  504 -0.70000359852E+01 -0.20722718917E+02  0.13657519284E+02  0.25786807016E+02  0.00000000000E+00 0.  1.
         21    1    1    2  504  501  0.70000359852E+01  0.20722718917E+02  0.49275968284E+02  0.53912453417E+02  0.00000000000E+00 0.  1.
</event>
<event>
 4    1  0.3080871E+006  0.2601686E+02  0.7546771E-02  0.1457742E+00
         21   -1    0    0  503  501  0.00000000000E+00  0.00000000000E+00  0.51955115747E+02  0.51955115747E+02  0.00000000000E+00 0.  1.
         21   -1    0    0  504  502 -0.00000000000E+00 -0.00000000000E+00 -0.36122489819E+02  0.36122489819E+02  0.00000000000E+00 0.  1.
         21    1    1    2  503  502  0.23749664840E+02 -0.10622158354E+02  0.43129054725E+02  0.50368563505E+02  0.00000000000E+00 0.  1.
         21    1    1    2  504  501 -0.23749664840E+02  0.10622158354E+02 -0.27296428797E+02  0.37709042061E+02  0.00000000000E+00 0.  1.
</event>
<event>
 4    1  0.3080871E+006  0.2090197E+02  0.7546771E-02  0.1520669E+00
         21   -1    0    0  503  501  0.00000000000E+00  0.00000000000E+00  0.13719845733E+02  0.13719845733E+02  0.00000000000E+00 0.  1.
         21   -1    0    0  504  502 -0.00000000000E+00 -0.00000000000E+00 -0.39581330348E+02  0.39581330348E+02  0.00000000000E+00 0.  1.
         21    1    1    2  503  502 -0.55431353271E-01  0.20901899710E+02 -0.24713904161E+02  0.32367723785E+02  0.00000000000E+00 0.  1.
         21    1    1    2  504  501  0.55431353271E-01 -0.20901899710E+02 -0.11475804537E+01  0.20933452296E+02  0.00000000000E+00 0.  1.
</event>
<event>
 4    1  0.3080871E+006  0.2075254E+02  0.7546771E-02  0.1522827E+00
         21   -1    0    0  503  501  0.00000000000E+00  0.00000000000E+00  0.49507981773E+02  0.49507981773E+02  0.00000000000E+00 0.  1.
         21   -1    0    0  501  502 -0.00000000000E+00 -0.00000000000E+00 -0.30612146785E+03  0.30612146785E+03  0.00000000000E+00 0. -1.
         21    1    1    2  503  504 -0.21671332303E+01  0.20639074822E+02  0.46963320943E+02  0.51344146599E+02  0.00000000000E+00 0.  1.
         21    1    1    2  504  502  0.21671332303E+01 -0.20639074822E+02 -0.30357680702E+03  0.30428530302E+03  0.00000000000E+00 0. -1.
</event>
<event>
 4    1  0.3080871E+006  0.2199916E+02  0.7546771E-02  0.1505463E+00
         21   -1    0    0  502  501  0.00000000000E+00  0.00000000000E+00  0.36200102273E+02  0.36200102273E+02  0.00000000000E+00 0. -1.
         21   -1    0    0  504  502 -0.00000000000E+00 -0.00000000000E+00 -0.18008166245E+02  0.18008166245E+02  0.00000000000E+00 0. -1.
         21    1    1    2  503  501 -0.33463834697E+00 -0.21996616685E+02  0.22852711531E+02  0.31720806307E+02  0.00000000000E+00 0. -1.
         21    1    1    2  504  503  0.33463834697E+00  0.21996616685E+02 -0.46607755019E+01  0.22487462211E+02  0.00000000000E+00 0. -1.
</event>
<event>
 4    1  0.3080871E+006  0.3459406E+02  0.7546771E-02  0.1383440E+00
         21   -1    0    0  503  501  0.00000000000E+00  0.00000000000E+00  0.83081711653E+02  0.83081711653E+02  0.00000000000E+00 0. -1.
         21   -1    0    0  504  502 -0.00000000000E+00 -0.00000000000E+00 -0.11895331506E+03  0.11895331506E+03  0.00000000000E+00 0. -1.
         21    1    1    2  503  502 -0.38938312615E+01  0.34374225143E+02  0.76768125182E+02  0.84202697819E+02  0.00000000000E+00 0. -1.
         21    1    1    2  504  501  0.38938312615E+01 -0.34374225143E+02 -0.11263972859E+03  0.11783232889E+03  0.00000000000E+00 0. -1.
</event>
<event>
 4    1  0.3080871E+006  0.2324979E+02  0.7546771E-02  0.1489385E+00
         21   -1    0    0  503  501  0.00000000000E+00  0.00000000000E+00  0.45015673297E+03  0.45015673297E+03  0.00000000000E+00 0. -1.
         21   -1    0    0  504  502 -0.00000000000E+00 -0.00000000000E+00 -0.26785933294E+01  0.26785933294E+01  0.00000000000E+00 0.  1.
         21    1    1    2  503  502  0.20150507843E+02  0.11597827105E+02  0.39191442039E+03  0.39260344556E+03  0.00000000000E+00 0. -1.
         21    1    1    2  504  501 -0.20150507843E+02 -0.11597827105E+02  0.55563719252E+02  0.60231880736E+02  0.00000000000E+00 0.  1.
</event>
<event>
 4    1  0.3080871E+006  0.2149572E+02  0.7546771E-02  0.1512304E+00
         21   -1    0    0  502  501  0.00000000000E+00  0.00000000000E+00  0.24643984588E+03  0.24643984588E+03  0.00000000000E+00 0. -1.
         21   -1    0    0  504  502 -0.00000000000E+00 -0.00000000000E+00 -0.25539869164E+01  0.25539869164E+01  0.00000000000E+00 0.  1.
         21    1    1    2  503  501 -0.18131008785E+02  0.11546967861E+02  0.18613647119E+03  0.18737356231E+03  0.00000000000E+00 0. -1.
         21    1    1    2  504  503  0.18131008785E+02 -0.11546967861E+02  0.57749387773E+02  0.61620270484E+02  0.00000000000E+00 0.  1.
</event>
<event>
 4    1  0.3080871E+006  0.3797737E+02  0.7546771E-02  0.1360764E+00
         21   -1    0    0  502  501  0.00000000000E+00  0.00000000000E+00  0.42404905864E+01  0.42404905864E+01  0.00000000000E+00 0.  1.
         21   -1    0    0  504  502 -0.00000000000E+00 -0.00000000000E+00 -0.10821225807E+04  0.10821225807E+04  0.00000000000E+00 0.  1.
         21    1    1    2  503  501 -0.35568221074E+02 -0.13310977143E+02 -0.89151718907E+02  0.96903609050E+02  0.00000000000E+00 0.  1.
         21    1    1    2  504  503  0.35568221074E+02  0.13310977143E+02 -0.98873037120E+03  0.98945946223E+03  0.00000000000E+00 0.  1.
</event>
<event>
 4    1  0.3080871E+006  0.2223925E+02  0.7546771E-02  0.1502278E+00
         21   -1    0    0  503  501  0.00000000000E+00  0.00000000000E+00  0.23941025361E+02  0.23941025361E+02  0.00000000000E+00 0.  1.
         21   -1    0    0  504  502 -0.00000000000E+00 -0.00000000000E+00 -0.20747448469E+02  0.20747448469E+02  0.00000000000E+00 0.  1.
         21    1    1    2  503  502  0.99953073166E+01 -0.19866504967E+02  0.30603255429E+01  0.22448825813E+02  0.00000000000E+00 0.  1.
         21    1    1    2  504  501 -0.99953073166E+01  0.19866504967E+02  0.13325134867E+00  0.22239648016E+02  0.00000000000E+00 0.  1.
</event>
<event>
 4    1  0.3080871E+006  0.3170518E+02  0.7546771E-02  0.1405335E+00
         21   -1    0    0  503  501  0.00000000000E+00  0.00000000000E+00  0.13538229578E+02  0.13538229578E+02  0.00000000000E+00 0.  1.
         21   -1    0    0  504  502 -0.00000000000E+00 -0.00000000000E+00 -0.12219112057E+03  0.12219112057E+03  0.00000000000E+00 0.  1.
         21    1    1    2  503  502 -0.30586010613E+02  0.83495134979E+01 -0.11817883871E+02  0.33836087245E+02  0.00000000000E+00 0.  1.
         21    1    1    2  504  501  0.30586010613E+02 -0.83495134979E+01 -0.96835007116E+02  0.10189326290E+03  0.00000000000E+00 0.  1.
</event>
<event>
 4    1  0.3080871E+006  0.2796171E+02  0.7546771E-02  0.1438180E+00
         21   -1    0    0  504  501  0.00000000000E+00  0.00000000000E+00  0.11412235915E+03  0.11412235915E+03  0.00000000000E+00 0.  1.
         21   -1    0    0  503  502 -0.00000000000E+00 -0.00000000000E+00 -0.27974303680E+02  0.27974303680E+02  0.00000000000E+00 0. -1.
         21    1    1    2  503  501  0.23225402622E+02  0.15570412993E+02  0.10481233656E+03  0.10847802995E+03  0.00000000000E+00 0.  1.
         21    1    1    2  504  502 -0.23225402622E+02 -0.15570412993E+02 -0.18664281090E+02  0.33618632874E+02  0.00000000000E+00 0. -1.
</event>
<event>
 4    1  0.3080871E+006  0.3960583E+02  0.7546771E-02  0.1350811E+00
         21   -1    0    0  503  501  0.00000000000E+00  0.00000000000E+00  0.89557412643E+01  0.89557412643E+01  0.00000000000E+00 0. -1.
         21   -1    0    0  504  502 -0.00000000000E+00 -0.00000000000E+00 -0.18176509080E+03  0.18176509080E+03  0.00000000000E+00 0. -1.
         21    1    1    2  503  502  0.13003720262E+02  0.37410222506E+02 -0.68216253931E+02  0.78880154596E+02  0.00000000000E+00 0. -1.
         21    1    1    2  504  501 -0.13003720262E+02 -0.37410222506E+02 -0.10459309561E+03  0.11184067747E+03  0.00000000000E+00 0. -1.
</event>
<event>
 4    1  0.3080871E+006  0.2734216E+02  0.7546771E-02  0.1444201E+00
         21   -1    0    0  502  501  0.00000000000E+00  0.00000000000E+00  0.85243718043E+03  0.85243718043E+03  0.00000000000E+00 0.  1.
         21   -1    0    0  504  502 -0.00000000000E+00 -0.00000000000E+00 -0.21759326979E+01  0.21759326979E+01  0.00000000000E+00 0.  1.
         21    1    1    2  503  501 -0.87517540822E+01  0.25903677734E+02  0.75527880896E+03  0.75577355933E+03  0.00000000000E+00 0.  1.
         21    1    1    2  504  503  0.87517540822E+01 -0.25903677734E+02  0.94982438768E+02  0.98839553792E+02  0.00000000000E+00 0.  1.
</event>
<event>
 4    1  0.3080871E+006  0.2189988E+02  0.7546771E-02  0.1506795E+00
         21   -1    0    0  502  501  0.00000000000E+00  0.00000000000E+00  0.21854204140E+02  0.21854204140E+02  0.00000000000E+00 0. -1.
         21   -1    0    0  503  502 -0.00000000000E+00 -0.00000000000E+00 -0.24661014712E+02  0.24661014712E+02  0.00000000000E+00 0.  1.
         21    1    1    2  503  504 -0.13145793833E+02 -0.17515503976E+02 -0.91208489406E+01  0.23723293625E+02  0.00000000000E+00 0.  1.
         21    1    1    2  504  501  0.13145793833E+02  0.17515503976E+02  0.63140383680E+01  0.22791925227E+02  0.00000000000E+00 0. -1.
</event>
<event>
 4    1  0.3080871E+006  0.2732004E+02  0.7546771E-02  0.1444419E+00
         21   -1    0    0  504  501  0.00000000000E+00  0.00000000000E+00  0.27527457559E+03  0.27527457559E+03  0.00000000000E+00 0.  1.
         21   -1    0    0  503  502 -0.00000000000E+00 -0.00000000000E+00 -0.52630643863E+01  0.52630643863E+01  0.00000000000E+00 0.  1.
         21    1    1    2  503  501 -0.27234177092E+02  0.21643368710E+01  0.23267367775E+03  0.23427211757E+03  0.00000000000E+00 0.  1.
         21    1    1    2  504  502  0.27234177092E+02 -0.21643368710E+01  0.37337833457E+02  0.46265522403E+02  0.00000000000E+00 0.  1.
</event>
<event>
 4    1  0.3080871E+006  0.2264549E+02  0.7546771E-02  0.1496998E+00
         21   -1    0    0  503  501  0.00000000000E+00  0.00000000000E+00  0.10792421432E+02  0.10792421432E+02  0.00000000000E+00 0. -1.
         21   -1    0    0  501  502 -0.00000000000E+00 -0.00000000000E+00 -0.44553723065E+03  0.44553723065E+03  0.00000000000E+00 0.  1.
         21    1    1    2  503  504  0.22460118880E+02  0.28916032000E+01 -0.17174059361E+01  0.22710521621E+02  0.00000000000E+00 0. -1.
         21    1    1    2  504  502 -0.22460118880E+02 -0.28916032000E+01 -0.43302740328E+03  0.43361913046E+03  0.00000000000E+00 0.  1.
</event>
<event>
 4    1  0.3080871E+006  0.2319139E+02  0.7546771E-02  0.1490109E+00
         21   -1    0    0  504  501  0.00000000000E+00  0.00000000000E+00  0.58669151581E+02  0.58669151581E+02  0.00000000000E+00 0. -1.
         21   -1    0    0  503  502 -0.00000000000E+00 -0.00000000000E+00 -0.19141803532E+02  0.19141803532E+02  0.00000000000E+00 0. -1.
         21    1    1    2  503  501  0.11083334963E+01  0.23164888995E+02 -0.83206476647E+01  0.24638864886E+02  0.00000000000E+00 0. -1.
         21    1    1    2  504  502 -0.11083334963E+01 -0.23164888995E+02  0.47847995714E+02  0.53172090227E+02  0.00000000000E+00 0. -1.
</event>
<event>
 4    1  0.3080871E+006  0.2303926E+02  0.7546771E-02  0.1492006E+00
         21   -1    0    0  502  501  0.00000000000E+00  0.00000000000E+00  0.23204180621E+03  0.23204180621E+03  0.00000000000E+00 0.  1.
         21   -1    0    0  504  502 -0.00000000000E+00 -0.00000000000E+00 -0.12999130136E+03  0.12999130136E+03  0.00000000000E+00 0.  1.
         21    1    1    2  503  501 -0.18136680315E+02  0.14208030485E+02  0.23044199757E+03  0.23159084944E+03  0.00000000000E+00 0.  1.
         21    1    1    2  504  503  0.18136680315E+02 -0.14208030485E+02 -0.12839149272E+03  0.13044225813E+03  0.00000000000E+00 0.  1.
</event>
<event>
 4    1  0.3080871E+006  0.2610154E+02  0.7546771E-02  0.1456848E+00
         21   -1    0    0  502  501  0.00000000000E+00  0.00000000000E+00  0.10365147636E+02  0.10365147636E+02  0.00000000000E+00 0.  1.
         21   -1    0    0  503  502 -0.00000000000E+00 -0.00000000000E+00 -0.32330608204E+03  0.32330608204E+03  0.00000000000E+00 0.  1.
         21    1    1    2  503  504  0.78912293833E+01 -0.24880089070E+02 -0.30538444868E+03  0.30649788226E+03  0.00000000000E+00 0.  1.
         21    1    1    2  504  501 -0.78912293833E+01  0.24880089070E+02 -0.75564857220E+01  0.27173347416E+02  0.00000000000E+00 0.  1.
</event>
<event>
 4    1  0.3080871E+006  0.2196808E+02  0.7546771E-02  0.1505879E+00
         21   -1    0    0  503  501  0.00000000000E+00  0.00000000000E+00  0.20739223824E+03  0.20739223824E+03  0.00000000000E+00 0.  1.
         21   -1    0    0  504  502 -0.00000000000E+00 -0.00000000000E+00 -0.86835959164E+01  0.86835959164E+01  0.00000000000E+00 0. -1.
         21    1    1    2  503  502  0.11470451460E+02  0.18735665142E+02  0.69186539184E+01  0.23031807941E+02  0.00000000000E+00 0. -1.
         21    1    1    2  504  501 -0.11470451460E+02 -0.18735665142E+02  0.19178998840E+03  0.19304402621E+03  0.00000000000E+00 0.  1.
</event>
<event>
 4    1  0.3080871E+006  0.3574086E+02  0.7546771E-02  0.1375428E+00
         21   -1    0    0  503  501  0.00000000000E+00  0.00000000000E+00  0.11069566963E+02  0.11069566963E+02  0.00000000000E+00 0. -1.
         21   -1    0    0  504  502 -0.00000000000E+00 -0.00000000000E+00 -0.26800315824E+03  0.26800315824E+03  0.00000000000E+00 0.  1.
         21    1    1    2  503  502  0.28766222329E+02 -0.21211166870E+02 -0.23173279255E+02  0.42595892038E+02  0.00000000000E+00 0. -1.
         21    1    1    2  504  501 -0.28766222329E+02  0.21211166870E+02 -0.23376031202E+03  0.23647683317E+03  0.00000000000E+00 0.  1.
</event>
<event>
 4    1  0.3080871E+006  0.2901802E+02  0.7546771E-02  0.1428326E+00
         21   -1    0    0  504  501  0.00000000000E+00  0.00000000000E+00  0.11359586113E+02  0.11359586113E+02  0.00000000000E+00 0.  1.
         21   -1    0    0  503  502 -0.00000000000E+00 -0.00000000000E+00 -0.16162079854E+03  0.16162079854E+03  0.00000000000E+00 0.  1.
         21    1    1    2  503  501 -0.28987186269E+02 -0.13373614448E+01 -0.11493810631E+02  0.31211427175E+02  0.00000000000E+00 0.  1.
         21    1    1    2  504  502  0.28987186269E+02  0.13373614448E+01 -0.13876740180E+03  0.14176895748E+03  0.00000000000E+00 0.  1.
</event>
<event>
 4    1  0.3080871E+006  0.3128292E+02  0.7546771E-02  0.1408766E+00
         21   -1    0    0  504  501  0.00000000000E+00  0.00000000000E+00  0.65479719929E+01  0.65479719929E+01  0.00000000000E+00 0.  1.
         21   -1    0    0  503  502 -0.00000000000E+00 -0.00000000000E+00 -0.16944487513E+03  0.16944487513E+03  0.00000000000E+00 0.  1.
         21    1    1    2  503  501  0.23325728112E+02 -0.20845423423E+02 -0.11167340254E+03  0.11597228162E+03  0.00000000000E+00 0.  1.
         21    1    1    2  504  502 -0.23325728112E+02  0.20845423423E+02 -0.51223500596E+02  0.60020565500E+02  0.00000000000E+00 0.  1.
</event>
<event>
 4    1  0.3080871E+006  0.2006231E+02  0.7546771E-02  0.1533085E+00
         21   -1    0    0  504  501  0.00000000000E+00  0.00000000000E+00  0.53009927335E+01  0.53009927335E+01  0.00000000000E+00 0.  1.
         21   -1    0    0  503  502 -0.00000000000E+00 -0.00000000000E+00 -0.90122763776E+02  0.90122763776E+02  0.00000000000E+00 0.  1.
         21    1    1    2  503  501 -0.12416384993E+02  0.15758479662E+02 -0.23475852302E+02  0.30880607813E+02  0.00000000000E+00 0.  1.
         21    1    1    2  504  502  0.12416384993E+02 -0.15758479662E+02 -0.61345918741E+02  0.64543148697E+02  0.00000000000E+00 0.  1.
</event>
<event>
 4    1  0.3080871E+006  0.3857960E+02  0.7546771E-02  0.1357016E+00
         21   -1    0    0  503  501  0.00000000000E+00  0.00000000000E+00  0.28002743121E+02  0.28002743121E+02  0.00000000000E+00 0.  1.
         21   -1    0    0  504  502 -0.00000000000E+00 -0.00000000000E+00 -0.13777581199E+03  0.13777581199E+03  0.00000000000E+00 0.  1.
         21    1    1    2  503  502 -0.18402842414E+02  0.33907531238E+02  0.10075508008E+02  0.39873564490E+02  0.00000000000E+00 0.  1.
         21    1    1    2  504  501  0.18402842414E+02 -0.33907531238E+02 -0.11984857688E+03  0.12590499062E+03  0.00000000000E+00 0.  1.
</event>
<event>
 4    1  0.3080871E+006  0.2230778E+02  0.7546771E-02  0.1501378E+00
         21   -1    0    0  503  501  0.00000000000E+00  0.00000000000E+00  0.36510675156E+03  0.36510675156E+03  0.00000000000E+00 0.  1.
         21   -1    0    0  501  502 -0.00000000000E+00 -0.00000000000E+00 -0.19294257547E+02  0.19294257547E+02  0.00000000000E+00 0.  1.
         21    1    1    2  503  504  0.18197151033E+02  0.12903509578E+02  0.35819368768E+03  0.35888766315E+03  0.00000000000E+00 0.  1.
         21    1    1    2  504  502 -0.18197151033E+02 -0.12903509578E+02 -0.12381193671E+02  0.25513345956E+02  0.00000000000E+00 0.  1.
</event>
<event>
 4    1  0.3080871E+006  0.2220308E+02  0.7546771E-02  0.1502755E+00
         21   -1    0    0  503  501  0.00000000000E+00  0.00000000000E+00  0.54143962349E+01  0.54143962349E+01  0.00000000000E+00 0. -1.
         21   -1    0    0  504  502 -0.00000000000E+00 -0.00000000000E+00 -0.91699380884E+02  0.91699380884E+02  0.00000000000E+00 0. -1.
         21    1    1    2  503  502 -0.20330497243E+02  0.89245482327E+01 -0.39053932706E+02  0.44924228865E+02  0.00000000000E+00 0. -1.
         21    1    1    2  504  501  0.20330497243E+02 -0.89245482327E+01 -0.47231051943E+02  0.52189548254E+02  0.00000000000E+00 0. -1.
</event>
<event>
 4    1  0.3080871E+006  0.6960759E+02  0.7546771E-02  0.1230275E+00
         21   -1    0    0  504  501  0.00000000000E+00  0.00000000000E+00  0.24003099112E+03  0.24003099112E+03  0.00000000000E+00 0. -1.
         21   -1    0    0  501  502 -0.00000000000E+00 -0.00000000000E+00 -0.30126195271E+02  0.30126195271E+02  0.00000000000E+00 0.  1.
         21    1    1    2  503  502 -0.68925216606E+02  0.97227284230E+01  0.27360518470E+02  0.74791810401E+02  0.00000000000E+00 0.  1.
         21    1    1    2  504  503  0.68925216606E+02 -0.97227284230E+01  0.18254427738E+03  0.19536537599E+03  0.00000000000E+00 0. -1.
</event>
<event>
 4    1  0.3080871E+006  0.3441754E+02  0.7546771E-02  0.1384705E+00
         21   -1    0    0  504  501  0.00000000000E+00  0.00000000000E+00  0.73683700775E+02  0.73683700775E+02  0.00000000000E+00 0. -1.
         21   -1    0    0  503  502 -0.00000000000E+00 -0.00000000000E+00 -0.50465371514E+02  0.50465371514E+02  0.00000000000E+00 0. -1.
         21    1    1    2  503  501  0.13339111608E+02  0.31727516283E+02  0.62851210903E+02  0.71657811158E+02  0.00000000000E+00 0. -1.
         21    1    1    2  504  502 -0.13339111608E+02 -0.31727516283E+02 -0.39632881641E+02  0.52491261131E+02  0.00000000000E+00 0. -1.
</event>
<event>
 4    1  0.3080871E+006  0.2270173E+02  0.7546771E-02  0.1496278E+00
         21   -1    0    0  502  501  0.00000000000E+00  0.00000000000E+00  0.17453300408E+03  0.17453300408E+03  0.00000000000E+00 0. -1.
         21   -1    0    0  504  502 -0.00000000000E+00 -0.00000000000E+00 -0.46265278344E+01  0.46265278344E+01  0.00000000000E+00 0.  1.
         21    1    1    2  503  501 -0.22321313038E+02  0.41385425967E+01  0.13883219522E+03  0.14067603556E+03  0.00000000000E+00 0. -1.
         21    1    1    2  504  503  0.22321313038E+02 -0.41385425967E+01  0.31074281023E+02  0.38483496354E+02  0.00000000000E+00 0.  1.
</event>
<event>
 4    1  0.3080871E+006  0.2140628E+02  0.7546771E-02  0.1513543E+00
         21   -1    0    0  502  501  0.00000000000E+00  0.00000000000E+00  0.16575307111E+02  0.16575307111E+02  0.00000000000E+00 0. -1.
         21   -1    0    0  503  502 -0.00000000000E+00 -0.00000000000E+00 -0.32705530353E+02  0.32705530353E+02  0.00000000000E+00 0. -1.
         21    1    1    2  503  504  0.20304231367E+02 -0.67798867095E+01 -0.17757355748E+02  0.27812809250E+02  0.00000000000E+00 0. -1.
         21    1    1    2  504  501 -0.20304231367E+02  0.67798867095E+01  0.16271325067E+01  0.21468028214E+02  0.00000000000E+00 0. -1.
</event>
<event>
 4    1  0.3080871E+006  0.3861476E+02  0.7546771E-02  0.1356800E+00
         21   -1    0    0  503  501  0.00000000000E+00  0.00000000000E+00  0.14728627504E+03  0.14728627504E+03  0.00000000000E+00 0.  1.
         21   -1    0    0  504  502 -0.00000000000E+00 -0.00000000000E+00 -0.22954854885E+03  0.22954854885E+03  0.00000000000E+00 0. -1.
         21    1    1    2  503  502  0.95472756915E+01  0.37415895292E+02  0.14308452199E+03  0.14820350916E+03  0.00000000000E+00 0.  1.
         21    1    1    2  504  501 -0.95472756915E+01 -0.37415895292E+02 -0.22534679580E+03  0.22863131472E+03  0.00000000000E+00 0. -1.
</event>
<event>
 4    1  0.3080871E+006  0.2297491E+02  0.7546771E-02  0.1492813E+00
         21   -1    0    0  504  501  0.00000000000E+00  0.00000000000E+00  0.18814720475E+01  0.18814720475E+01  0.00000000000E+00 0. -1.
         21   -1    0    0  503  502 -0.00000000000E+00 -0.00000000000E+00 -0.33828754888E+03  0.33828754888E+03  0.00000000000E+00 0. -1.
         21    1    1    2  503  501  0.22930541323E+02 -0.14271831362E+01 -0.23847009155E+03  0.23957427061E+03  0.00000000000E+00 0. -1.
         21    1    1    2  504  502 -0.22930541323E+02  0.14271831362E+01 -0.97935985282E+02  0.10059475031E+03  0.00000000000E+00 0. -1.
</event>
<event>
 4    1  0.3080871E+006  0.2278985E+02  0.7546771E-02  0.1495154E+00
         21   -1    0    0  504  501  0.00000000000E+00  0.00000000000E+00  0.14152439058E+02  0.14152439058E+02  0.00000000000E+00 0.  1.
         21   -1    0    0  503  502 -0.00000000000E+00 -0.00000000000E+00 -0.98610279873E+02  0.98610279873E+02  0.00000000000E+00 0.  1.
         21    1    1    2  503  501  0.16339193115E+02 -0.15887359783E+02 -0.86903457844E+02  0.89842019221E+02  0.00000000000E+00 0.  1.
         21    1    1    2  504  502 -0.16339193115E+02  0.15887359783E+02  0.24456170283E+01  0.22920699710E+02  0.00000000000E+00 0.  1.
</event>
<event>
 4    1  0.3080871E+006  0.2560778E+02  0.7546771E-02  0.1462118E+00
         21   -1    0    0  502  501  0.00000000000E+00  0.00000000000E+00  0.94858946512E+02  0.94858946512E+02  0.00000000000E+00 0.  1.
         21   -1    0    0  504  502 -0.00000000000E+00 -0.00000000000E+00 -0.13281694757E+02  0.13281694757E+02  0.00000000000E+00 0. -1.
         21    1    1    2  503  501  0.45928992774E+01  0.25192528709E+02  0.78230537608E+02  0.82315097284E+02  0.00000000000E+00 0.  1.
         21    1    1    2  504  503 -0.45928992774E+01 -0.25192528709E+02  0.33467141477E+01  0.25825543985E+02  0.00000000000E+00 0. -1.
</event>
<event>
 4    1  0.3080871E+006  0.2038805E+02  0.7546771E-02  0.1528184E+00
         21   -1    0    0  504  501  0.00000000000E+00  0.00000000000E+00  0.51474831932E+02  0.51474831932E+02  0.00000000000E+00 0.  1.
         21   -1    0    0  503  502 -0.00000000000E+00 -0.00000000000E+00 -0.82173695965E+01  0.82173695965E+01  0.00000000000E+00 0.  1.
         21    1    1    2  503  501  0.41607652138E+01  0.19958971484E+02  0.17703754385E+02  0.27001767149E+02  0.00000000000E+00 0.  1.
         21    1    1    2  504  502 -0.41607652138E+01 -0.19958971484E+02  0.25553707950E+02  0.32690434379E+02  0.00000000000E+00 0.  1.
</event>
<event>
 4    1  0.3080871E+006  0.2904739E+02  0.7546771E-02  0.1428059E+00
         21   -1    0    0  504  501  0.00000000000E+00  0.00000000000E+00  0.43005429718E+01  0.43005429718E+01  0.00000000000E+00 0.  1.
         21   -1    0    0  503  502 -0.00000000000E+00 -0.00000000000E+00 -0.57114732167E+03  0.57114732167E+03  0.00000000000E+00 0.  1.
         21    1    1    2  503  501 -0.16963606648E+02  0.23579379914E+02 -0.51654853460E+03  0.51736461003E+03  0.00000000000E+00 0.  1.
         21    1    1    2  504  502  0.16963606648E+02 -0.23579379914E+02 -0.50298244098E+02  0.58083254618E+02  0.00000000000E+00 0.  1.
</event>
<event>
 4    1  0.3080871E+006  0.3821544E+02  0.7546771E-02  0.1359273E+00
         21   -1    0    0  502  501  0.00000000000E+00  0.00000000000E+00  0.40000075090E+01  0.40000075090E+01  0.00000000000E+00 0.  1.
         21   -1    0    0  504  502 -0.00000000000E+00 -0.00000000000E+00 -0.38081069326E+03  0.38081069326E+03  0.00000000000E+00 0.  1.
         21    1    1    2  503  501  0.36257408874E+02 -0.12075586530E+02 -0.14933003779E+03  0.15414240064E+03  0.00000000000E+00 0.  1.
         21    1    1    2  504  503 -0.36257408874E+02  0.12075586530E+02 -0.22748064796E+03  0.23066830013E+03  0.00000000000E+00 0.  1.
</event>
<event>
 4    1  0.3080871E+006  0.2098981E+02  0.7546771E-02  0.1519410E+00
         21   -1    0    0  503  501  0.00000000000E+00  0.00000000000E+00  0.63229210362E+02  0.63229210362E+02  0.00000000000E+00 0. -1.
         21   -1    0    0  504  502 -0.00000000000E+00 -0.00000000000E+00 -0.99964321932E+01  0.99964321932E+01  0.00000000000E+00 0. -1.
         21    1    1    2  503  502  0.12389150429E+02 -0.16943466405E+02  0.64638460694E+01  0.21962545576E+02  0.00000000000E+00 0. -1.
         21    1    1    2  504  501 -0.12389150429E+02  0.16943466405E+02  0.46768932100E+02  0.51263096980E+02  0.00000000000E+00 0. -1.
</event>
<event>
 4    1  0.3080871E+006  0.2284479E+02  0.7546771E-02  0.1494456E+00
         21   -1    0    0  502  501  0.00000000000E+00  0.00000000000E+00  0.46195333673E+01  0.46195333673E+01  0.00000000000E+00 0.  1.
         21   -1    0    0  503  502 -0.00000000000E+00 -0.00000000000E+00 -0.11772791883E+03  0.11772791883E+03  0.00000000000E+00 0.  1.
         21    1    1    2  503  504 -0.22807362909E+02 -0.13072202105E+01 -0.44260675700E+02  0.49808553893E+02  0.00000000000E+00 0.  1.
         21    1    1    2  504  501  0.22807362909E+02  0.13072202105E+01 -0.68847709768E+02  0.72538898309E+02  0.00000000000E+00 0.  1.
</event>
<event>
 4    1  0.3080871E+006  0.2222773E+02  0.7546771E-02  0.1502430E+00
         21   -1    0    0  504  501  0.00000000000E+00  0.00000000000E+00  0.14865389891E+03  0.14865389891E+03  0.00000000000E+00 0.  1.
         21   -1    0    0  501  502 -0.00000000000E+00 -0.00000000000E+00 -0.15900617533E+03  0.15900617533E+03  0.00000000000E+00 0.  1.
         21    1    1    2  503  502  0.18574746564E+02 -0.12208630366E+02 -0.15738996289E+03  0.15895179233E+03  0.00000000000E+00 0.  1.
         21    1    1    2  504  503 -0.18574746564E+02  0.12208630366E+02  0.14703768648E+03  0.14870828192E+03  0.00000000000E+00 0.  1.
</event>
<event>
 4    1  0.3080871E+006  0.2323390E+02  0.7546771E-02  0.1489582E+00
         21   -1    0    0  504  501  0.00000000000E+00  0.00000000000E+00  0.25188176167E+02  0.25188176167E+02  0.00000000000E+00 0.  1.
         21   -1    0    0  503  502 -0.00000000000E+00 -0.00000000000E+00 -0.68286545311E+02  0.68286545311E+02  0.00000000000E+00 0.  1.
         21    1    1    2  503  501 -0.37346956420E+01 -0.22931766795E+02 -0.60263893061E+02  0.64587542814E+02  0.00000000000E+00 0.  1.
         21    1    1    2  504  502  0.37346956420E+01  0.22931766795E+02  0.17165523917E+02  0.28887178665E+02  0.00000000000E+00 0.  1.
</event>
<event>
 4    1  0.3080871E+006  0.2257532E+02  0.7546771E-02  0.1497901E+00
         21   -1    0    0  503  501  0.00000000000E+00  0.00000000000E+00  0.36415591115E+02  0.36415591115E+02  0.00000000000E+00 0. -1.
         21   -1    0    0  501  502 -0.00000000000E+00 -0.00000000000E+00 -0.13908130751E+03  0.13908130751E+03  0.00000000000E+00 0.  1.
         21    1    1    2  503  504 -0.11450133341E+02 -0.19456092175E+02  0.31883658108E+02  0.39066772718E+02  0.00000000000E+00 0. -1.
         21    1    1    2  504  502  0.11450133341E+02  0.19456092175E+02 -0.13454937450E+03  0.13643012591E+03  0.00000000000E+00 0.  1.
</event>
<event>
 4    1  0.3080871E+006  0.2355781E+02  0.7546771E-02  0.1485610E+00
         21   -1    0    0  504  501  0.00000000000E+00  0.00000000000E+00  0.37377570428E+02  0.37377570428E+02  0.00000000000E+00 0.  1.
         21   -1    0    0  503  502 -0.00000000000E+00 -0.00000000000E+00 -0.18915444567E+03  0.18915444567E+03  0.00000000000E+00 0.  1.
         21    1    1    2  503  501 -0.10716432963E+02 -0.20979244136E+02 -0.18461819687E+03  0.18611515047E+03  0.00000000000E+00 0.  1.
         21    1    1    2  504  502  0.10716432963E+02  0.20979244136E+02  0.32841321633E+02  0.40416865620E+02  0.00000000000E+00 0.  1.
</event>
<event>
 4    1  0.3080871E+006  0.2754742E+02  0.7546771E-02  0.1442185E+00
         21   -1    0    0  503  501  0.00000000000E+00  0.00000000000E+00  0.85881677560E+01  0.85881677560E+01  0.00000000000E+00 0. -1.
         21   -1    0    0  504  502 -0.00000000000E+00 -0.00000000000E+00 -0.89236467321E+02  0.89236467321E+02  0.00000000000E+00 0. -1.
         21    1    1    2  503  502 -0.27236215491E+02 -0.41290084083E+01 -0.45168511850E+02  0.52906092347E+02  0.00000000000E+00 0. -1.
         21    1    1    2  504  501  0.27236215491E+02  0.41290084083E+01 -0.35479787715E+02  0.44918542730E+02  0.00000000000E+00 0. -1.
</event>
<event>
 4    1  0.3080871E+006  0.2033330E+02  0.7546771E-02  0.1529000E+00
         21   -1    0    0  504  501  0.00000000000E+00  0.00000000000E+00  0.38056479126E+02  0.38056479126E+02  0.00000000000E+00 0. -1.
         21   -1    0    0  501  502 -0.00000000000E+00 -0.00000000000E+00 -0.13644629623E+03  0.13644629623E+03  0.00000000000E+00 0. -1.
         21    1    1    2  503  502 -0.15510041067E+02  0.13148443813E+02 -0.13290075588E+03  0.13444721589E+03  0.00000000000E+00 0. -1.
         21    1    1    2  504  503  0.15510041067E+02 -0.13148443813E+02  0.34510938775E+02  0.40055559461E+02  0.00000000000E+00 0. -1.
</event>
<event>
 4    1  0.3080871E+006  0.2733118E+02  0.7546771E-02  0.1444309E+00
         21   -1    0    0  502  501  0.00000000000E+00  0.00000000000E+00  0.41043151368E+02  0.41043151368E+02  0.00000000000E+00 0. -1.
         21   -1    0    0  504  502 -0.00000000000E+00 -0.00000000000E+00 -0.18912428287E+02  0.18912428287E+02  0.00000000000E+00 0. -1.
         21    1    1    2  503  501  0.14150761810E+02 -0.23382673930E+02  0.16882856891E+02  0.32125135902E+02  0.00000000000E+00 0. -1.
         21    1    1    2  504  503 -0.14150761810E+02  0.23382673930E+02  0.52478661910E+01  0.27830443753E+02  0.00000000000E+00 0. -1.
</event>
<event>
 4    1  0.3080871E+006  0.2400528E+02  0.7546771E-02  0.1480246E+00
         21   -1    0    0  503  501  0.00000000000E+00  0.00000000000E+00  0.16302885616E+03  0.16302885616E+03  0.00000000000E+00 0.  1.
         21   -1    0    0  504  502 -0.00000000000E+00 -0.00000000000E+00 -0.13505005636E+02  0.13505005636E+02  0.00000000000E+00 0.  1.
         21    1    1    2  503  502  0.22732873009E+02  0.77116870526E+01 -0.10793232152E+01  0.24029535390E+02  0.00000000000E+00 0.  1.
         21    1    1    2  504  501 -0.22732873009E+02 -0.77116870526E+01  0.15060317373E+03  0.15250432640E+03  0.00000000000E+00 0.  1.
</event>
<event>
 4    1  0.3080871E+006  0.2036189E+02  0.7546771E-02  0.1528574E+00
         21   -1    0    0  502  501  0.00000000000E+00  0.00000000000E+00  0.88189483086E+02  0.88189483086E+02  0.00000000000E+00 0. -1.
         21   -1    0    0  504  502 -0.00000000000E+00 -0.00000000000E+00 -0.14124080982E+02  0.14124080982E+02  0.00000000000E+00 0. -1.
         21    1    1    2  503  501  0.92235769919E+01  0.18153023388E+02  0.78816920838E+02  0.81404629113E+02  0.00000000000E+00 0. -1.
         21    1    1    2  504  503 -0.92235769919E+01 -0.18153023388E+02 -0.47515187343E+01  0.20908934954E+02  0.00000000000E+00 0. -1.
</event>
<event>
 4    1  0.3080871E+006  0.3210960E+02  0.7546771E-02  0.1402108E+00
         21   -1    0    0  504  501  0.00000000000E+00  0.00000000000E+00  0.67743457865E+02  0.67743457865E+02  0.00000000000E+00 0.  1.
         21   -1    0    0  501  502 -0.00000000000E+00 -0.00000000000E+00 -0.80280574961E+03  0.80280574961E+03  0.00000000000E+00 0. -1.
         21    1    1    2  503  502 -0.34277089610E+01 -0.31926123129E+02 -0.79866004397E+03  0.79930525606E+03  0.00000000000E+00 0. -1.
         21    1    1    2  504  503  0.34277089610E+01  0.31926123129E+02  0.63597752220E+02  0.71243951422E+02  0.00000000000E+00 0.  1.
</event>
<event>
 4    1  0.3080871E+006  0.2331045E+02  0.7546771E-02  0.1488636E+00
         21   -1    0    0  503  501  0.00000000000E+00  0.00000000000E+00  0.28574177498E+02  0.28574177498E+02  0.00000000000E+00 0.  1.
         21   -1    0    0  504  502 -0.00000000000E+00 -0.00000000000E+00 -0.69580489447E+02  0.69580489447E+02  0.00000000000E+00 0. -1.
         21    1    1    2  503  502  0.19322060300E+02  0.13039750817E+02  0.21333642695E+02  0.31599073186E+02  0.00000000000E+00 0.  1.
         21    1    1    2  504  501 -0.19322060300E+02 -0.13039750817E+02 -0.62339954644E+02  0.66555593759E+02  0.00000000000E+00 0. -1.
</event>
<event>
 4    1  0.3080871E+006  0.2525255E+02  0.7546771E-02  0.1465998E+00
         21   -1    0    0  503  501  0.00000000000E+00  0.00000000000E+00  0.28467773208E+03  0.28467773208E+03  0.00000000000E+00 0.  1.
         21   -1    0    0  504  502 -0.00000000000E+00 -0.00000000000E+00 -0.22451689948E+01  0.22451689948E+01  0.00000000000E+00 0. -1.
         21    1    1    2  503  502 -0.22457928267E+02 -0.11546983149E+02  0.13436375404E+03  0.13671616496E+03  0.00000000000E+00 0.  1.
         21    1    1    2  504  501  0.22457928267E+02  0.11546983149E+02  0.14806880904E+03  0.15020673611E+03  0.00000000000E+00 0. -1.
</event>
<event>
 4    1  0.3080871E+006  0.3072444E+02  0.7546771E-02  0.1413403E+00
         21   -1    0    0  504  501  0.00000000000E+00  0.00000000000E+00  0.34520335686E+02  0.34520335686E+02  0.00000000000E+00 0. -1.
         21   -1    0    0  503  502 -0.00000000000E+00 -0.00000000000E+00 -0.95000231137E+02  0.95000231137E+02  0.00000000000E+00 0. -1.
         21    1    1    2  503  501  0.76984762590E+01  0.29744321379E+02  0.24410543331E+02  0.39241124050E+02  0.00000000000E+00 0. -1.
         21    1    1    2  504  502 -0.76984762590E+01 -0.29744321379E+02 -0.84890438781E+02  0.90279442773E+02  0.00000000000E+00 0. -1.
</event>
<event>
 4    1  0.3080871E+006  0.2385637E+02  0.7546771E-02  0.1482016E+00
         21   -1    0    0  504  501  0.00000000000E+00  0.00000000000E+00  0.25259615179E+02  0.25259615179E+02  0.00000000000E+00 0. -1.
         21   -1    0    0  503  502 -0.00000000000E+00 -0.00000000000E+00 -0.26722975649E+02  0.26722975649E+02  0.00000000000E+00 0.  1.
         21    1    1    2  503  501 -0.16885570717E+02 -0.16852417411E+02  0.95624729008E+01  0.25701504995E+02  0.00000000000E+00 0. -1.
         21    1    1    2  504  502  0.16885570717E+02  0.16852417411E+02 -0.11025833370E+02  0.26281085833E+02  0.00000000000E+00 0.  1.
</event>
<event>
 4    1  0.3080871E+006  0.2330919E+02  0.7546771E-02  0.1488652E+00
         21   -1    0    0  504  501  0.00000000000E+00  0.00000000000E+00  0.44164969977E+01  0.44164969977E+01  0.00000000000E+00 0.  1.
         21   -1    0    0  501  502 -0.00000000000E+00 -0.00000000000E+00 -0.52084249511E+03  0.52084249511E+03  0.00000000000E+00 0.  1.
         21    1    1    2  503  502 -0.22156371804E+02  0.72397203456E+01 -0.48774056543E+03  0.48829722253E+03  0.00000000000E+00 0.  1.
         21    1    1    2  504  503  0.22156371804E+02 -0.72397203456E+01 -0.28685432677E+02  0.36961769574E+02  0.00000000000E+00 0.  1.
</event>
<event>
 4    1  0.3080871E+006  0.2881779E+02  0.7546771E-02  0.1430156E+00
         21   -1    0    0  504  501  0.00000000000E+00  0.00000000000E+00  0.36717203662E+03  0.36717203662E+03  0.00000000000E+00 0. -1.
         21   -1    0    0  503  502 -0.00000000000E+00 -0.00000000000E+00 -0.21006387009E+02  0.21006387009E+02  0.00000000000E+00 0. -1.
         21    1    1    2  503  501 -0.18158571445E+02 -0.22377031825E+02  0.35642559689E+03  0.35758869024E+03  0.00000000000E+00 0. -1.
         21    1    1    2  504  502  0.18158571445E+02  0.22377031825E+02 -0.10259947282E+02  0.30589733383E+02  0.00000000000E+00 0. -1.
</event>
<event>
 4    1  0.3080871E+006  0.2623968E+02  0.7546771E-02  0.1455399E+00
         21   -1    0    0  503  501  0.00000000000E+00  0.00000000000E+00  0.59343294239E+01  0.59343294239E+01  0.00000000000E+00 0. -1.
         21   -1    0    0  504  502 -0.00000000000E+00 -0.00000000000E+00 -0.18410996369E+03  0.18410996369E+03  0.00000000000E+00 0. -1.
         21    1    1    2  503  502  0.25700062357E+02  0.52941294477E+01 -0.31302575515E+02  0.40845712696E+02  0.00000000000E+00 0. -1.
         21    1    1    2  504  501 -0.25700062357E+02 -0.52941294477E+01 -0.14687305875E+03  0.14919858041E+03  0.00000000000E+00 0. -1.
</event>
<event>
 4    1  0.3080871E+006  0.2000238E+02  0.7546771E-02  0.1533999E+00
         21   -1    0    0  504  501  0.00000000000E+00  0.00000000000E+00  0.30371363332E+02  0.30371363332E+02  0.00000000000E+00 0.  1.
         21   -1    0    0  501  502 -0.00000000000E+00 -0.00000000000E+00 -0.46367197062E+02  0.46367197062E+02  0.00000000000E+00 0.  1.
         21    1    1    2  503  502  0.14997895306E+02  0.13234745017E+02 -0.40462246130E+02  0.45136334601E+02  0.00000000000E+00 0.  1.
         21    1    1    2  504  503 -0.14997895306E+02 -0.13234745017E+02  0.24466412401E+02  0.31602225793E+02  0.00000000000E+00 0.  1.
</event>
<event>
 4    1  0.3080871E+006  0.2115568E+02  0.7546771E-02  0.1517054E+00
         21   -1    0    0  503  501  0.00000000000E+00  0.00000000000E+00  0.40480745369E+02  0.40480745369E+02  0.00000000000E+00 0.  1.
         21   -1    0    0  504  502 -0.00000000000E+00 -0.00000000000E+00 -0.13369376543E+02  0.13369376543E+02  0.00000000000E+00 0.  1.
         21    1    1    2  503  502 -0.16434211295E+01 -0.21091747128E+02  0.23559720597E+01  0.21286456593E+02  0.00000000000E+00 0.  1.
         21    1    1    2  504  501  0.16434211295E+01  0.21091747128E+02  0.24755396766E+02  0.32563665319E+02  0.00000000000E+00 0.  1.
</event>
<event>
 4    1  0.3080871E+006  0.2308728E+02  0.7546771E-02  0.1491405E+00
         21   -1    0    0  504  501  0.00000000000E+00  0.00000000000E+00  0.46282694614E+02  0.46282694614E+02  0.00000000000E+00 0.  1.
         21   -1    0    0  503  502 -0.00000000000E+00 -0.00000000000E+00 -0.53202763740E+03  0.53202763740E+03  0.00000000000E+00 0.  1.
         21    1    1    2  503  501  0.71385605231E+01  0.21955941846E+02 -0.52888088051E+03  0.52938455606E+03  0.00000000000E+00 0.  1.
         21    1    1    2  504  502 -0.71385605231E+01 -0.21955941846E+02  0.43135937726E+02  0.48925775949E+02  0.00000000000E+00 0.  1.
</event>
<event>
 4    1  0.3080871E+006  0.2356323E+02  0.7546771E-02  0.1485544E+00
         21   -1    0    0  503  501  0.00000000000E+00  0.00000000000E+00  0.29456556739E+02  0.29456556739E+02  0.00000000000E+00 0.  1.
         21   -1    0    0  504  502 -0.00000000000E+00 -0.00000000000E+00 -0.10277839704E+03  0.10277839704E+03  0.00000000000E+00 0. -1.
         21    1    1    2  503  502 -0.23497603728E+02  0.17574392866E+01 -0.96408794907E+02  0.99246570265E+02  0.00000000000E+00 0. -1.
         21    1    1    2  504  501  0.23497603728E+02 -0.17574392866E+01  0.23086954607E+02  0.32988383514E+02  0.00000000000E+00 0.  1.
</event>
<event>
 4    1  0.3080871E+006  0.2436607E+02  0.7546771E-02  0.1476022E+00
         21   -1    0    0  503  501  0.00000000000E+00  0.00000000000E+00  0.95789249018E+01  0.95789249018E+01  0.00000000000E+00 0. -1.
         21   -1    0    0  504  502 -0.00000000000E+00 -0.00000000000E+00 -0.62007648208E+02  0.62007648208E+02  0.00000000000E+00 0.  1.
         21    1    1    2  503  502 -0.55425851741E+01 -0.23727307646E+02 -0.26964997989E+02  0.36343039155E+02  0.00000000000E+00 0.  1.
         21    1    1    2  504  501  0.55425851741E+01  0.23727307646E+02 -0.25463725317E+02  0.35243533954E+02  0.00000000000E+00 0. -1.
</event>
<event>
 4    1  0.3080871E+006  0.7682720E+02  0.7546771E-02  0.1211411E+00
         21   -1    0    0  503  501  0.00000000000E+00  0.00000000000E+00  0.93598957299E+03  0.93598957299E+03  0.00000000000E+00 0. -1.
         21   -1    0    0  504  502 -0.00000000000E+00 -0.00000000000E+00 -0.13944534198E+02  0.13944534198E+02  0.00000000000E+00 0. -1.
         21    1    1    2  503  502 -0.27070962382E+02  0.71899804689E+02  0.81255414917E+03  0.81617808367E+03  0.00000000000E+00 0. -1.
         21    1    1    2  504  501  0.27070962382E+02 -0.71899804689E+02  0.10949088962E+03  0.13375602352E+03  0.00000000000E+00 0. -1.
</event>
<event>
 4    1  0.3080871E+006  0.2728297E+02  0.7546771E-02  0.1444786E+00
         21   -1    0    0  503  501  0.00000000000E+00  0.00000000000E+00  0.47035484432E+03  0.47035484432E+03  0.00000000000E+00 0. -1.
         21   -1    0    0  501  502 -0.00000000000E+00 -0.00000000000E+00 -0.17520189173E+02  0.17520189173E+02  0.00000000000E+00 0. -1.
         21    1    1    2  503  504 -0.16277588019E+02 -0.21895212688E+02  0.45907704355E+03  0.45988704279E+03  0.00000000000E+00 0. -1.
         21    1    1    2  504  502  0.16277588019E+02  0.21895212688E+02 -0.62423884070E+01  0.27987990700E+02  0.00000000000E+00 0. -1.
</event>
<event>
 4    1  0.3080871E+006  0.2462280E+02  0.7546771E-02  0.1473068E+00
         21   -1    0    0  504  501  0.00000000000E+00  0.00000000000E+00  0.90714505894E+02  0.90714505894E+02  0.00000000000E+00 0. -1.
         21   -1    0    0  503  502 -0.00000000000E+00 -0.00000000000E+00 -0.24548741014E+02  0.24548741014E+02  0.00000000000E+00 0.  1.
         21    1    1    2  503  501 -0.12318151905E+02  0.21320069146E+02  0.82247399563E+02  0.85854044457E+02  0.00000000000E+00 0. -1.
         21    1    1    2  504  502  0.12318151905E+02 -0.21320069146E+02 -0.16081634683E+02  0.29409202451E+02  0.00000000000E+00 0.  1.
</event>
<event>
 4    1  0.3080871E+006  0.3435423E+02  0.7546771E-02  0.1385161E+00
         21   -1    0    0  504  501  0.00000000000E+00  0.00000000000E+00  0.62758827186E+03  0.62758827186E+03  0.00000000000E+00 0. -1.
         21   -1    0    0  503  502 -0.00000000000E+00 -0.00000000000E+00 -0.42975463319E+01  0.42975463319E+01  0.00000000000E+00 0. -1.
         21    1    1    2  503  501  0.20158034376E+02 -0.27818466962E+02  0.74706668331E+02  0.82227122941E+02  0.00000000000E+00 0. -1.
         21    1    1    2  504  502 -0.20158034376E+02  0.27818466962E+02  0.54858405720E+03  0.54965869526E+03  0.00000000000E+00 0. -1.
</event>
<event>
 4    1  0.3080871E+006  0.2179820E+02  0.7546771E-02  0.1508167E+00
         21   -1    0    0  502  501  0.00000000000E+00  0.00000000000E+00  0.12879819600E+02  0.12879819600E+02  0.00000000000E+00 0.  1.
         21   -1    0    0  503  502 -0.00000000000E+00 -0.00000000000E+00 -0.44786508403E+02  0.44786508403E+02  0.00000000000E+00 0.  1.
         21    1    1    2  503  504  0.12964971153E+02 -0.17523444132E+02 -0.28058846613E+02  0.35531119381E+02  0.00000000000E+00 0.  1.
         21    1    1    2  504  501 -0.12964971153E+02  0.17523444132E+02 -0.38478421905E+01  0.22135208622E+02  0.00000000000E+00 0.  1.
</event>
<event>
 4    1  0.3080871E+006  0.2356483E+02  0.7546771E-02  0.1485525E+00
         21   -1    0    0  502  501  0.00000000000E+00  0.00000000000E+00  0.13769030159E+01  0.13769030159E+01  0.00000000000E+00 0. -1.
         21   -1    0    0  503  502 -0.00000000000E+00 -0.00000000000E+00 -0.54239024179E+03  0.54239024179E+03  0.00000000000E+00 0. -1.
         21    1    1    2  503  504  0.18081535845E+02 -0.15111565689E+02 -0.40818940332E+03  0.40886903812E+03  0.00000000000E+00 0. -1.
         21    1    1    2  504  501 -0.18081535845E+02  0.15111565689E+02 -0.13282393546E+03  0.13489810668E+03  0.00000000000E+00 0. -1.
</event>
<event>
 4    1  0.3080871E+006  0.2147827E+02  0.7546771E-02  0.1512545E+00
         21   -1    0    0  504  501  0.00000000000E+00  0.00000000000E+00  0.13671335823E+03  0.13671335823E+03  0.00000000000E+00 0.  1.
         21   -1    0    0  503  502 -0.00000000000E+00 -0.00000000000E+00 -0.73160845492E+02  0.73160845492E+02  0.00000000000E+00 0. -1.
         21    1    1    2  503  501 -0.19107700407E+02 -0.98087700398E+01 -0.70712319960E+02  0.73902289401E+02  0.00000000000E+00 0. -1.
         21    1    1    2  504  502  0.19107700407E+02  0.98087700398E+01  0.13426483270E+03  0.13597191433E+03  0.00000000000E+00 0.  1.
</event>
<event>
 4    1  0.3080871E+006  0.2085673E+02  0.7546771E-02  0.1521320E+00
         21   -1    0    0  504  501  0.00000000000E+00  0.00000000000E+00  0.42289642644E+02  0.42289642644E+02  0.00000000000E+00 0.  1.
         21   -1    0    0  503  502 -0.00000000000E+00 -0.00000000000E+00 -0.10312925522E+02  0.10312925522E+02  0.00000000000E+00 0.  1.
         21    1    1    2  503  501 -0.18698666853E+02 -0.92392217981E+01  0.17325104129E+02  0.27113881954E+02  0.00000000000E+00 0.  1.
         21    1    1    2  504  502  0.18698666853E+02  0.92392217981E+01  0.14651612994E+02  0.25488686213E+02  0.00000000000E+00 0.  1.
</event>
<event>
 4    1  0.3080871E+006  0.4935978E+02  0.7546771E-02  0.1300972E+00
         21   -1    0    0  502  501  0.00000000000E+00  0.00000000000E+00  0.31149883905E+03  0.31149883905E+03  0.00000000000E+00 0. -1.
         21   -1    0    0  503  502 -0.00000000000E+00 -0.00000000000E+00 -0.10733732352E+02  0.10733732352E+02  0.00000000000E+00 0.  1.
         21    1    1    2  503  504 -0.47956491127E+02 -0.11686009083E+02  0.66460297737E+02  0.82785016910E+02  0.00000000000E+00 0.  1.
         21    1    1    2  504  501  0.47956491127E+02  0.11686009083E+02  0.23430480896E+03  0.23944755449E+03  0.00000000000E+00 0. -1.
</event>
<event>
 4    1  0.3080871E+006  0.4626705E+02  0.7546771E-02  0.1315223E+00
         21   -1    0    0  503  501  0.00000000000E+00  0.00000000000E+00  0.10874383164E+02  0.10874383164E+02  0.00000000000E+00 0. -1.
         21   -1    0    0  504  502 -0.00000000000E+00 -0.00000000000E+00 -0.19713473323E+03  0.19713473323E+03  0.00000000000E+00 0. -1.
         21    1    1    2  503  502  0.73545515696E+01  0.45678775755E+02 -0.89188797948E+02  0.10047527886E+03  0.00000000000E+00 0. -1.
         21    1    1    2  504  501 -0.73545515696E+01 -0.45678775755E+02 -0.97071552116E+02  0.10753383753E+03  0.00000000000E+00 0. -1.
</event>
<event>
 4    1  0.3080871E+006  0.2595767E+02  0.7546771E-02  0.1458369E+00
         21   -1    0    0  503  501  0.00000000000E+00  0.00000000000E+00  0.21391677629E+03  0.21391677629E+03  0.00000000000E+00 0. -1.
         21   -1    0    0  504  502 -0.00000000000E+00 -0.00000000000E+00 -0.48890806049E+01  0.48890806049E+01  0.00000000000E+00 0. -1.
         21    1    1    2  503  502  0.10393767827E+02  0.23785925717E+02  0.16976630968E+03  0.17173933905E+03  0.00000000000E+00 0. -1.
         21    1    1    2  504  501 -0.10393767827E+02 -0.23785925717E+02  0.39261386002E+02  0.47066517851E+02  0.00000000000E+00 0. -1.
</event>
<event>
 4    1  0.3080871E+006  0.2119767E+02  0.7546771E-02  0.1516461E+00
         21   -1    0    0  504  501  0.00000000000E+00  0.00000000000E+00  0.15522616170E+02  0.15522616170E+02  0.00000000000E+00 0.  1.
         21   -1    0    0  503  502 -0.00000000000E+00 -0.00000000000E+00 -0.10537304583E+03  0.10537304583E+03  0.00000000000E+00 0. -1.
         21    1    1    2  503  501  0.92637854938E+01 -0.19066287588E+02  0.65543905600E+01  0.22187858835E+02  0.00000000000E+00 0.  1.
         21    1    1    2  504  502 -0.92637854938E+01  0.19066287588E+02 -0.96404820223E+02  0.98707803168E+02  0.00000000000E+00 0. -1.
</event>
<event>
 4    1  0.3080871E+006  0.2276169E+02  0.7546771E-02  0.1495513E+00
         21   -1    0    0  503  501  0.00000000000E+00  0.00000000000E+00  0.58698847836E+02  0.58698847836E+02  0.00000000000E+00 0. -1.
         21   -1    0    0  501  502 -0.00000000000E+00 -0.00000000000E+00 -0.12158105370E+02  0.12158105370E+02  0.00000000000E+00 0. -1.
         21    1    1    2  503  504 -0.21914836714E+02  0.61509600890E+01  0.41816724162E+02  0.47610217368E+02  0.00000000000E+00 0. -1.
         21    1    1    2  504  502  0.21914836714E+02 -0.61509600890E+01  0.47240183035E+01  0.23246735838E+02  0.00000000000E+00 0. -1.
</event>
<event>
 4    1  0.3080871E+006  0.2305191E+02  0.7546771E-02  0.1491847E+00
         21   -1    0    0  504  501  0.00000000000E+00  0.00000000000E+00  0.19092046346E+03  0.19092046346E+03  0.00000000000E+00 0. -1.
         21   -1    0    0  503  502 -0.00000000000E+00 -0.00000000000E+00 -0.22819118632E+02  0.22819118632E+02  0.00000000000E+00 0. -1.
         21    1    1    2  503  501 -0.20095215983E+02 -0.11294822721E+02  0.18419099149E+03  0.18562788603E+03  0.00000000000E+00 0. -1.
         21    1    1    2  504  502  0.20095215983E+02  0.11294822721E+02 -0.16089646663E+02  0.28111696062E+02  0.00000000000E+00 0. -1.
</event>
<event>
 4    1  0.3080871E+006  0.2033556E+02  0.7546771E-02  0.1528966E+00
         21   -1    0    0  503  501  0.00000000000E+00  0.00000000000E+00  0.74514821186E+01  0.74514821186E+01  0.00000000000E+00 0.  1.
         21   -1    0    0  501  502 -0.00000000000E+00 -0.00000000000E+00 -0.57384612924E+02  0.57384612924E+02  0.00000000000E+00 0.  1.
         21    1    1    2  503  504  0.15701328799E+02 -0.12922968939E+02 -0.19086984328E+02  0.27889923323E+02  0.00000000000E+00 0.  1.
         21    1    1    2  504  502 -0.15701328799E+02  0.12922968939E+02 -0.30846146478E+02  0.36946171720E+02  0.00000000000E+00 0.  1.
</event>
<event>
 4    1  0.3080871E+006  0.2642801E+02  0.7546771E-02  0.1453440E+00
         21   -1    0    0  503  501  0.00000000000E+00  0.00000000000E+00  0.15792292689E+02  0.15792292689E+02  0.00000000000E+00 0.  1.
         21   -1    0    0  504  502 -0.00000000000E+00 -0.00000000000E+00 -0.52706900495E+02  0.52706900495E+02  0.00000000000E+00 0.  1.
         21    1    1    2  503  502 -0.24735338201E+02 -0.93060570631E+01 -0.32195412651E+02  0.41653142136E+02  0.00000000000E+00 0.  1.
         21    1    1    2  504  501  0.24735338201E+02  0.93060570631E+01 -0.47191951546E+01  0.26846051048E+02  0.00000000000E+00 0.  1.
</event>
<event>
 4    1  0.3080871E+006  0.2799274E+02  0.7546771E-02  0.1437883E+00
         21   -1    0    0  503  501  0.00000000000E+00  0.00000000000E+00  0.26680954809E+02  0.26680954809E+02  0.00000000000E+00 0. -1.
         21   -1    0    0  504  502 -0.00000000000E+00 -0.00000000000E+00 -0.36819974761E+02  0.36819974761E+02  0.00000000000E+00 0. -1.
         21    1    1    2  503  502  0.16262164183E+02  0.22784540630E+02  0.92133292375E+01  0.29469962866E+02  0.00000000000E+00 0. -1.
         21    1    1    2  504  501 -0.16262164183E+02 -0.22784540630E+02 -0.19352349189E+02  0.34030966704E+02  0.00000000000E+00 0. -1.
</event>
<event>
 4    1  0.3080871E+006  0.4481841E+02  0.7546771E-02  0.1322350E+00
         21   -1    0    0  503  501  0.00000000000E+00  0.00000000000E+00  0.18566955690E+02  0.18566955690E+02  0.00000000000E+00 0.  1.
         21   -1    0    0  504  502 -0.00000000000E+00 -0.00000000000E+00 -0.20970384945E+03  0.20970384945E+03  0.00000000000E+00 0. -1.
         21    1    1    2  503  502 -0.32315608494E+02 -0.31054653128E+02 -0.17498074423E+03  0.18062931901E+03  0.00000000000E+00 0. -1.
         21    1    1    2  504  501  0.32315608494E+02  0.31054653128E+02 -0.16156149528E+02  0.47641486132E+02  0.00000000000E+00 0.  1.
</event>
<event>
 4    1  0.3080871E+006  0.3900284E+02  0.7546771E-02  0.1354430E+00
         21   -1    0    0  504  501  0.00000000000E+00  0.00000000000E+00  0.78871192348E+01  0.78871192348E+01  0.00000000000E+00 0. -1.
         21   -1    0    0  501  502 -0.00000000000E+00 -0.00000000000E+00 -0.19304309950E+03  0.19304309950E+03  0.00000000000E+00 0. -1.
         21    1    1    2  503  502 -0.16616931364E+02  0.35285961756E+02 -0.89605965138E+02  0.97726406325E+02  0.00000000000E+00 0. -1.
         21    1    1    2  504  503  0.16616931364E+02 -0.35285961756E+02 -0.95550015126E+02  0.10320381241E+03  0.00000000000E+00 0. -1.
</event>
<event>
 4    1  0.3080871E+006  0.4918565E+02  0.7546771E-02  0.1301742E+00
         21   -1    0    0  504  501  0.00000000000E+00  0.00000000000E+00  0.50748198878E+03  0.50748198878E+03  0.00000000000E+00 0.  1.
         21   -1    0    0  501  502 -0.00000000000E+00 -0.00000000000E+00 -0.28609736862E+02  0.28609736862E+02  0.00000000000E+00 0. -1.
         21    1    1    2  503  502  0.46864473729E+02  0.14931497573E+02 -0.52611412503E+01  0.49466232168E+02  0.00000000000E+00 0. -1.
         21    1    1    2  504  503 -0.46864473729E+02 -0.14931497573E+02  0.48413339317E+03  0.48662549347E+03  0.00000000000E+00 0.  1.
</event>
<event>
 4    1  0.3080871E+006  0.2036564E+02  0.7546771E-02  0.1528518E+00
         21   -1    0    0  503  501  0.00000000000E+00  0.00000000000E+00  0.13348852924E+02  0.13348852924E+02  0.00000000000E+00 0. -1.
         21   -1    0    0  501  502 -0.00000000000E+00 -0.00000000000E+00 -0.71067885214E+02  0.71067885214E+02  0.00000000000E+00 0. -1.
         21    1    1    2  503  504 -0.33273606222E+01 -0.20091982806E+02  0.28052456185E+01  0.20557930459E+02  0.00000000000E+00 0. -1.
         21    1    1    2  504  502  0.33273606222E+01  0.20091982806E+02 -0.60524277909E+02  0.63858807679E+02  0.00000000000E+00 0. -1.
</event>
<event>
 4    1  0.3080871E+006  0.2201104E+02  0.7546771E-02  0.1505304E+00
         21   -1    0    0  502  501  0.00000000000E+00  0.00000000000E+00  0.15356689794E+02  0.15356689794E+02  0.00000000000E+00 0. -1.
         21   -1    0    0  503  502 -0.00000000000E+00 -0.00000000000E+00 -0.10419197190E+03  0.10419197190E+03  0.00000000000E+00 0. -1.
         21    1    1    2  503  504 -0.22002012838E+02 -0.63046197285E+00 -0.94328473737E+02  0.96862516015E+02  0.00000000000E+00 0. -1.
         21    1    1    2  504  501  0.22002012838E+02  0.63046197285E+00  0.54931916352E+01  0.22686145674E+02  0.00000000000E+00 0. -1.
</event>
<event>
 4    1  0.3080871E+006  0.3834219E+02  0.7546771E-02  0.1358484E+00
         21   -1    0    0  504  501  0.00000000000E+00  0.00000000000E+00  0.16464697927E+02  0.16464697927E+02  0.00000000000E+00 0. -1.
         21   -1    0    0  503  502 -0.00000000000E+00 -0.00000000000E+00 -0.38803629509E+03  0.38803629509E+03  0.00000000000E+00 0. -1.
         21    1    1    2  503  501 -0.30245317133E+02 -0.23565748661E+02 -0.36324768353E+03  0.36526566128E+03  0.00000000000E+00 0. -1.
         21    1    1    2  504  502  0.30245317133E+02  0.23565748661E+02 -0.83239136310E+01  0.39235331738E+02  0.00000000000E+00 0. -1.
</event>
<event>
 4    1  0.3080871E+006  0.2208958E+02  0.7546771E-02  0.1504258E+00
         21   -1    0    0  504  501  0.00000000000E+00  0.00000000000E+00  0.66121282251E+01  0.66121282251E+01  0.00000000000E+00 0.  1.
         21   -1    0    0  501  502 -0.00000000000E+00 -0.00000000000E+00 -0.11020245345E+03  0.11020245345E+03  0.00000000000E+00 0.  1.
         21    1    1    2  503  502 -0.44534257232E+01  0.21636001971E+02 -0.85365812210E+02  0.88177499830E+02  0.00000000000E+00 0.  1.
         21    1    1    2  504  503  0.44534257232E+01 -0.21636001971E+02 -0.18224513014E+02  0.28637081845E+02  0.00000000000E+00 0.  1.
</event>
<event>
 4    1  0.3080871E+006  0.2103181E+02  0.7546771E-02  0.1518811E+00
         21   -1    0    0  504  501  0.00000000000E+00  0.00000000000E+00  0.98801079006E+02  0.98801079006E+02  0.00000000000E+00 0.  1.
         21   -1    0    0  503  502 -0.00000000000E+00 -0.00000000000E+00 -0.11392549797E+02  0.11392549797E+02  0.00000000000E+00 0.  1.
         21    1    1    2  503  501 -0.70098102691E+01 -0.19829255725E+02  0.77751725338E+00  0.21046171996E+02  0.00000000000E+00 0.  1.
         21    1    1    2  504  502  0.70098102691E+01  0.19829255725E+02  0.86631011956E+02  0.89147456807E+02  0.00000000000E+00 0.  1.
</event>
<event>
 4    1  0.3080871E+006  0.2855020E+02  0.7546771E-02  0.1432628E+00
         21   -1    0    0  504  501  0.00000000000E+00  0.00000000000E+00  0.12671069830E+02  0.12671069830E+02  0.00000000000E+00 0. -1.
         21   -1    0    0  503  502 -0.00000000000E+00 -0.00000000000E+00 -0.64444870843E+02  0.64444870843E+02  0.00000000000E+00 0.  1.
         21    1    1    2  503  501  0.28242450673E+02 -0.41806246549E+01 -0.24249932788E+02  0.37458949302E+02  0.00000000000E+00 0.  1.
         21    1    1    2  504  502 -0.28242450673E+02  0.41806246549E+01 -0.27523868225E+02  0.39656991371E+02  0.00000000000E+00 0. -1.
</event>
<event>
 4    1  0.3080871E+006  0.3042326E+02  0.7546771E-02  0.1415953E+00
         21   -1    0    0  504  501  0.00000000000E+00  0.00000000000E+00  0.16802449882E+03  0.16802449882E+03  0.00000000000E+00 0. -1.
         21   -1    0    0  503  502 -0.00000000000E+00 -0.00000000000E+00 -0.56966509654E+01  0.56966509654E+01  0.00000000000E+00 0. -1.
         21    1    1    2  503  501  0.44167671752E+01  0.30100940468E+02  0.65381012053E+02  0.72112767152E+02  0.00000000000E+00 0. -1.
         21    1    1    2  504  502 -0.44167671752E+01 -0.30100940468E+02  0.96946835799E+02  0.10160838263E+03  0.00000000000E+00 0. -1.
</event>
<event>
 4    1  0.3080871E+006  0.2381494E+02  0.7546771E-02  0.1482511E+00
         21   -1    0    0  504  501  0.00000000000E+00  0.00000000000E+00  0.70248643234E+01  0.70248643234E+01  0.00000000000E+00 0.  1.
         21   -1    0    0  503  502 -0.00000000000E+00 -0.00000000000E+00 -0.81839058133E+02  0.81839058133E+02  0.00000000000E+00 0.  1.
         21    1    1    2  503  501 -0.21668387536E+00 -0.23813953429E+02 -0.42568190024E+02  0.48777065633E+02  0.00000000000E+00 0.  1.
         21    1    1    2  504  502  0.21668387536E+00  0.23813953429E+02 -0.32246003786E+02  0.40086856823E+02  0.00000000000E+00 0.  1.
</event>
<event>
 4    1  0.3080871E+006  0.2713499E+02  0.7546771E-02  0.1446257E+00
         21   -1    0    0  503  501  0.00000000000E+00  0.00000000000E+00  0.44937636218E+02  0.44937636218E+02  0.00000000000E+00 0. -1.
         21   -1    0    0  504  502 -0.00000000000E+00 -0.00000000000E+00 -0.43211966562E+02  0.43211966562E+02  0.00000000000E+00 0.  1.
         21    1    1    2  503  502  0.13163811322E+02  0.23728079121E+02  0.35590319002E+02  0.44754647512E+02  0.00000000000E+00 0. -1.
         21    1    1    2  504  501 -0.13163811322E+02 -0.23728079121E+02 -0.33864649346E+02  0.43394955267E+02  0.00000000000E+00 0.  1.
</event>
<event>
 4    1  0.3080871E+006  0.2438210E+02  0.7546771E-02  0.1475836E+00
         21   -1    0    0  502  501  0.00000000000E+00  0.00000000000E+00  0.14351341784E+02  0.14351341784E+02  0.00000000000E+00 0.  1.
         21   -1    0    0  504  502 -0.00000000000E+00 -0.00000000000E+00 -0.33391703782E+03  0.33391703782E+03  0.00000000000E+00 0.  1.
         21    1    1    2  503  501  0.13626363870E+02  0.20219023421E+02  0.31927924217E+01  0.24590254653E+02  0.00000000000E+00 0.  1.
         21    1    1    2  504  503 -0.13626363870E+02 -0.20219023421E+02 -0.32275848845E+03  0.32367812495E+03  0.00000000000E+00 0.  1.
</event>
<event>
 4    1  0.3080871E+006  0.2769661E+02  0.7546771E-02  0.1440733E+00
         21   -1    0    0  504  501  0.00000000000E+00  0.00000000000E+00  0.49459111947E+01  0.49459111947E+01  0.00000000000E+00 0. -1.
         21   -1    0    0  501  502 -0.00000000000E+00 -0.00000000000E+00 -0.37073205800E+03  0.37073205800E+03  0.00000000000E+00 0. -1.
         21    1    1    2  503  502  0.23125527074E+02  0.15241795034E+02 -0.32614948127E+03  0.32732336679E+03  0.00000000000E+00 0. -1.
         21    1    1    2  504  503 -0.23125527074E+02 -0.15241795034E+02 -0.39636665534E+02  0.48354602397E+02  0.00000000000E+00 0. -1.
</event>
<event>
 4    1  0.3080871E+006  0.4346396E+02  0.7546771E-02  0.1329301E+00
         21   -1    0    0  504  501  0.00000000000E+00  0.00000000000E+00  0.51050318940E+03  0.51050318940E+03  0.00000000000E+00 0.  1.
         21   -1    0    0  501  502 -0.00000000000E+00 -0.00000000000E+00 -0.96179471156E+01  0.96179471156E+01  0.00000000000E+00 0.  1.
         21    1    1    2  503  502  0.42795621941E+02  0.75928238028E+01  0.46456525019E+02  0.63618589638E+02  0.00000000000E+00 0.  1.
         21    1    1    2  504  503 -0.42795621941E+02 -0.75928238028E+01  0.45442871727E+03  0.45650254688E+03  0.00000000000E+00 0.  1.
</event>
<event>
 4    1  0.3080871E+006  0.2368526E+02  0.7546771E-02  0.1484068E+00
         21   -1    0    0  504  501  0.00000000000E+00  0.00000000000E+00  0.16097315163E+03  0.16097315163E+03  0.00000000000E+00 0. -1.
         21   -1    0    0  503  502 -0.00000000000E+00 -0.00000000000E+00 -0.19021938682E+02  0.19021938682E+02  0.00000000000E+00 0. -1.
         21    1    1    2  503  501  0.12259237934E+01 -0.23653514826E+02 -0.10360987410E+02  0.25852305756E+02  0.00000000000E+00 0. -1.
         21    1    1    2  504  502 -0.12259237934E+01  0.23653514826E+02  0.15231220036E+03  0.15414278456E+03  0.00000000000E+00 0. -1.
</event>
<event>
 4    1  0.3080871E+006  0.5497093E+02  0.7546771E-02  0.1277948E+00
         21   -1    0    0  503  501  0.00000000000E+00  0.00000000000E+00  0.23337449039E+03  0.23337449039E+03  0.00000000000E+00 0. -1.
         21   -1    0    0  504  502 -0.00000000000E+00 -0.00000000000E+00 -0.31742126343E+02  0.31742126343E+02  0.00000000000E+00 0.  1.
         21    1    1    2  503  502 -0.13215915992E+02  0.53358620617E+02 -0.11829683552E+01  0.54983654332E+02  0.00000000000E+00 0.  1.
         21    1    1    2  504  501  0.13215915992E+02 -0.53358620617E+02  0.20281533241E+03  0.21013296240E+03  0.00000000000E+00 0. -1.
</event>
<event>
 4    1  0.3080871E+006  0.2090963E+02  0.7546771E-02  0.1520559E+00
         21   -1    0    0  503  501  0.00000000000E+00  0.00000000000E+00  0.23495743629E+03  0.23495743629E+03  0.00000000000E+00 0. -1.
         21   -1    0    0  504  502 -0.00000000000E+00 -0.00000000000E+00 -0.66304945433E+01  0.66304945433E+01  0.00000000000E+00 0. -1.
         21    1    1    2  503  502  0.17978987846E+02 -0.10675601023E+02  0.11712317677E+02  0.23966452523E+02  0.00000000000E+00 0. -1.
         21    1    1    2  504  501 -0.17978987846E+02  0.10675601023E+02  0.21661462407E+03  0.21762147831E+03  0.00000000000E+00 0. -1.
</event>
<event>
 4    1  0.3080871E+006  0.2116604E+02  0.7546771E-02  0.1516907E+00
         21   -1    0    0  504  501  0.00000000000E+00  0.00000000000E+00  0.13490006539E+02  0.13490006539E+02  0.00000000000E+00 0.  1.
         21   -1    0    0  503  502 -0.00000000000E+00 -0.00000000000E+00 -0.33617786411E+02  0.33617786411E+02  0.00000000000E+00 0.  1.
         21    1    1    2  503  501  0.11980969467E+02 -0.17448711060E+02 -0.74692784534E+01  0.22445295000E+02  0.00000000000E+00 0.  1.
         21    1    1    2  504  502 -0.11980969467E+02  0.17448711060E+02 -0.12658501419E+02  0.24662497951E+02  0.00000000000E+00 0.  1.
</event>
<event>
 4    1  0.3080871E+006  0.4415333E+02  0.7546771E-02  0.1325728E+00
         21   -1    0    0  503  501  0.00000000000E+00  0.00000000000E+00  0.13208907111E+03  0.13208907111E+03  0.00000000000E+00 0.  1.
         21   -1    0    0  504  502 -0.00000000000E+00 -0.00000000000E+00 -0.29674956541E+02  0.29674956541E+02  0.00000000000E+00 0.  1.
         21    1    1    2  503  502  0.34511024368E+02  0.27540981794E+02 -0.61360120156E+01  0.44577652749E+02  0.00000000000E+00 0.  1.
         21    1    1    2  504  501 -0.34511024368E+02 -0.27540981794E+02  0.10855012658E+03  0.11718637490E+03  0.00000000000E+00 0.  1.
</event>
<event>
 4    1  0.3080871E+006  0.2410356E+02  0.7546771E-02  0.1479087E+00
         21   -1    0    0  503  501  0.00000000000E+00  0.00000000000E+00  0.51206907144E+01  0.51206907144E+01  0.00000000000E+00 0.  1.
         21   -1    0    0  504  502 -0.00000000000E+00 -0.00000000000E+00 -0.12002553169E+03  0.12002553169E+03  0.00000000000E+00 0.  1.
         21    1    1    2  503  502  0.23402530806E+02  0.57708737277E+01 -0.42815009867E+02  0.49133557795E+02  0.00000000000E+00 0.  1.
         21    1    1    2  504  501 -0.23402530806E+02 -0.57708737277E+01 -0.72089831106E+02  0.76012664607E+02  0.00000000000E+00 0.  1.
</event>
<event>
 4    1  0.3080871E+006  0.2413895E+02  0.7546771E-02  0.1478671E+00
         21   -1    0    0  504  501  0.00000000000E+00  0.00000000000E+00  0.12700420885E+03  0.12700420885E+03  0.00000000000E+00 0.  1.
         21   -1    0    0  503  502 -0.00000000000E+00 -0.00000000000E+00 -0.68294639014E+01  0.68294639014E+01  0.00000000000E+00 0.  1.
         21    1    1    2  503  501 -0.98162999005E+01 -0.22052876126E+02  0.98423894798E+02  0.10134077243E+03  0.00000000000E+00 0.  1.
         21    1    1    2  504  502  0.98162999005E+01  0.22052876126E+02  0.21750850152E+02  0.32492900325E+02  0.00000000000E+00 0.  1.
</event>
<event>
 4    1  0.3080871E+006  0.4713754E+02  0.7546771E-02  0.1311084E+00
         21   -1    0    0  503  501  0.00000000000E+00  0.00000000000E+00  0.76348258406E+02  0.76348258406E+02  0.00000000000E+00 0.  1.
         21   -1    0    0  504  502 -0.00000000000E+00 -0.00000000000E+00 -0.29659161452E+02  0.29659161452E+02  0.00000000000E+00 0.  1.
         21    1    1    2  503  502 -0.23698335543E+02 -0.40747230862E+02  0.16085057153E+02  0.49806395112E+02  0.00000000000E+00 0.  1.
         21    1    1    2  504  501  0.23698335543E+02  0.40747230862E+02  0.30604039801E+02  0.56201024746E+02  0.00000000000E+00 0.  1.
</event>
<event>
 4    1  0.3080871E+006  0.2669169E+02  0.7546771E-02  0.1450730E+00
         21   -1    0    0  504  501  0.00000000000E+00  0.00000000000E+00  0.13024613696E+03  0.13024613696E+03  0.00000000000E+00 0. -1.
         21   -1    0    0  503  502 -0.00000000000E+00 -0.00000000000E+00 -0.69745998229E+01  0.69745998229E+01  0.00000000000E+00 0. -1.
         21    1    1    2  503  501 -0.26242738201E+02 -0.48749169350E+01  0.29768790646E+02  0.39982834066E+02  0.00000000000E+00 0. -1.
         21    1    1    2  504  502  0.26242738201E+02  0.48749169350E+01  0.93502746488E+02  0.97237902714E+02  0.00000000000E+00 0. -1.
</event>
<event>
 4    1  0.3080871E+006  0.2147668E+02  0.7546771E-02  0.1512567E+00
         21   -1    0    0  504  501  0.00000000000E+00  0.00000000000E+00  0.56260067005E+01  0.56260067005E+01  0.00000000000E+00 0. -1.
         21   -1    0    0  501  502 -0.00000000000E+00 -0.00000000000E+00 -0.36348942043E+03  0.36348942043E+03  0.00000000000E+00 0.  1.
         21    1    1    2  503  502  0.15594328346E+02 -0.14767020408E+02 -0.34134775882E+03  0.34202271916E+03  0.00000000000E+00 0.  1.
         21    1    1    2  504  503 -0.15594328346E+02  0.14767020408E+02 -0.16515654912E+02  0.27092707976E+02  0.00000000000E+00 0. -1.
</event>
<event>
 4    1  0.3080871E+006  0.2135031E+02  0.7546771E-02  0.1514322E+00
         21   -1    0    0  502  501  0.00000000000E+00  0.00000000000E+00  0.14871597152E+03  0.14871597152E+03  0.00000000000E+00 0. -1.
         21   -1    0    0  504  502 -0.00000000000E+00 -0.00000000000E+00 -0.43417969349E+03  0.43417969349E+03  0.00000000000E+00 0.  1.
         21    1    1    2  503  501 -0.83276400993E+01 -0.19659250247E+02  0.14768539419E+03  0.14922068009E+03  0.00000000000E+00 0. -1.
         21    1    1    2  504  503  0.83276400993E+01  0.19659250247E+02 -0.43314911616E+03  0.43367498491E+03  0.00000000000E+00 0.  1.
</event>
<event>
 4    1  0.3080871E+006  0.4422154E+02  0.7546771E-02  0.1325378E+00
         21   -1    0    0  502  501  0.00000000000E+00  0.00000000000E+00  0.47243955400E+02  0.47243955400E+02  0.00000000000E+00 0.  1.
         21   -1    0    0  503  502 -0.00000000000E+00 -0.00000000000E+00 -0.60379562752E+03  0.60379562752E+03  0.00000000000E+00 0.  1.
         21    1    1    2  503  504 -0.35412489683E+02  0.26485847696E+02 -0.59243974175E+03  0.59408786569E+03  0.00000000000E+00 0.  1.
         21    1    1    2  504  501  0.35412489683E+02 -0.26485847696E+02  0.35888069631E+02  0.56951717231E+02  0.00000000000E+00 0.  1.
</event>
<event>
 4    1  0.3080871E+006  0.2317608E+02  0.7546771E-02  0.1490299E+00
         21   -1    0    0  503  501  0.00000000000E+00  0.00000000000E+00  0.32776316823E+03  0.32776316823E+03  0.00000000000E+00 0.  1.
         21   -1    0    0  504  502 -0.00000000000E+00 -0.00000000000E+00 -0.19712686437E+01  0.19712686437E+01  0.00000000000E+00 0.  1.
         21    1    1    2  503  502 -0.90347807968E+01 -0.21342530269E+02  0.95186149845E+02  0.97967004571E+02  0.00000000000E+00 0.  1.
         21    1    1    2  504  501  0.90347807968E+01  0.21342530269E+02  0.23060574974E+03  0.23176743230E+03  0.00000000000E+00 0.  1.
</event>
<event>
 4    1  0.3080871E+006  0.2090956E+02  0.7546771E-02  0.1520560E+00
         21   -1    0    0  502  501  0.00000000000E+00  0.00000000000E+00  0.73760650285E+03  0.73760650285E+03  0.00000000000E+00 0. -1.
         21   -1    0    0  503  502 -0.00000000000E+00 -0.00000000000E+00 -0.13297354507E+01  0.13297354507E+01  0.00000000000E+00 0. -1.
         21    1    1    2  503  504 -0.19347382898E+02  0.79302335199E+01  0.93079060462E+02  0.95398749076E+02  0.00000000000E+00 0. -1.
         21    1    1    2  504  501  0.19347382898E+02 -0.79302335199E+01  0.64319770694E+03  0.64353748922E+03  0.00000000000E+00 0. -1.
</event>
<event>
 4    1  0.3080871E+006  0.3377070E+02  0.7546771E-02  0.1389418E+00
         21   -1    0    0  502  501  0.00000000000E+00  0.00000000000E+00  0.68925525012E+02  0.68925525012E+02  0.00000000000E+00 0.  1.
         21   -1    0    0  504  502 -0.00000000000E+00 -0.00000000000E+00 -0.30973733974E+02  0.30973733974E+02  0.00000000000E+00 0.  1.
         21    1    1    2  503  501 -0.33692223227E+02 -0.23008568712E+01  0.53066177792E+02  0.62900549073E+02  0.00000000000E+00 0.  1.
         21    1    1    2  504  503  0.33692223227E+02  0.23008568712E+01 -0.15114386754E+02  0.36998709913E+02  0.00000000000E+00 0.  1.
</event>
<event>
 4    1  0.3080871E+006  0.3576979E+02  0.7546771E-02  0.1375231E+00
         21   -1    0    0  503  501  0.00000000000E+00  0.00000000000E+00  0.12233194194E+03  0.12233194194E+03  0.00000000000E+00 0.  1.
         21   -1    0    0  501  502 -0.00000000000E+00 -0.00000000000E+00 -0.39293549641E+02  0.39293549641E+02  0.00000000000E+00 0.  1.
         21    1    1    2  503  504 -0.34942719323E+02  0.76474881612E+01  0.11074616718E+03  0.11637951389E+03  0.00000000000E+00 0.  1.
         21    1    1    2  504  502  0.34942719323E+02 -0.76474881612E+01 -0.27707774876E+02  0.45245977693E+02  0.00000000000E+00 0.  1.
</event>
<event>
 4    1  0.3080871E+006  0.2801113E+02  0.7546771E-02  0.1437707E+00
         21   -1    0    0  503  501  0.00000000000E+00  0.00000000000E+00  0.57141899086E+02  0.57141899086E+02  0.00000000000E+00 0.  1.
         21   -1    0    0  504  502 -0.00000000000E+00 -0.00000000000E+00 -0.14745037467E+02  0.14745037467E+02  0.00000000000E+00 0.  1.
         21    1    1    2  503  502  0.21363906593E+02 -0.18116487736E+02  0.30623688833E+02  0.41502216212E+02  0.00000000000E+00 0.  1.
         21    1    1    2  504  501 -0.21363906593E+02  0.18116487736E+02  0.11773172786E+02  0.30384720341E+02  0.00000000000E+00 0.  1.
</event>
<event>
 4    1  0.3080871E+006  0.2806314E+02  0.7546771E-02  0.1437211E+00
         21   -1    0    0  503  501  0.00000000000E+00  0.00000000000E+00  0.31974050998E+02  0.31974050998E+02  0.00000000000E+00 0. -1.
         21   -1    0    0  504  502 -0.00000000000E+00 -0.00000000000E+00 -0.25719913411E+02  0.25719913411E+02  0.00000000000E+00 0. -1.
         21    1    1    2  503  502  0.25991329694E+02 -0.10582549469E+02  0.90637687948E+01  0.29490531994E+02  0.00000000000E+00 0. -1.
         21    1    1    2  504  501 -0.25991329694E+02  0.10582549469E+02 -0.28096312072E+01  0.28203432416E+02  0.00000000000E+00 0. -1.
</event>
<event>
 4    1  0.3080871E+006  0.3440840E+02  0.7546771E-02  0.1384771E+00
         21   -1    0    0  503  501  0.00000000000E+00  0.00000000000E+00  0.19266692180E+03  0.19266692180E+03  0.00000000000E+00 0. -1.
         21   -1    0    0  501  502 -0.00000000000E+00 -0.00000000000E+00 -0.89809256654E+01  0.89809256654E+01  0.00000000000E+00 0. -1.
         21    1    1    2  503  504  0.19666617617E+02  0.28234064512E+02  0.14849959175E+03  0.15243381186E+03  0.00000000000E+00 0. -1.
         21    1    1    2  504  502 -0.19666617617E+02 -0.28234064512E+02  0.35186404385E+02  0.49214035609E+02  0.00000000000E+00 0. -1.
</event>
<event>
 4    1  0.3080871E+006  0.2616944E+02  0.7546771E-02  0.1456134E+00
         21   -1    0    0  503  501  0.00000000000E+00  0.00000000000E+00  0.12180450956E+03  0.12180450956E+03  0.00000000000E+00 0.  1.
         21   -1    0    0  501  502 -0.00000000000E+00 -0.00000000000E+00 -0.23353605868E+03  0.23353605868E+03  0.00000000000E+00 0. -1.
         21    1    1    2  503  504 -0.19846705277E+02  0.17057201243E+02  0.11965274695E+03  0.12248109926E+03  0.00000000000E+00 0.  1.
         21    1    1    2  504  502  0.19846705277E+02 -0.17057201243E+02 -0.23138429606E+03  0.23285946897E+03  0.00000000000E+00 0. -1.
</event>
<event>
 4    1  0.3080871E+006  0.2298186E+02  0.7546771E-02  0.1492726E+00
         21   -1    0    0  504  501  0.00000000000E+00  0.00000000000E+00  0.99283584613E+02  0.99283584613E+02  0.00000000000E+00 0. -1.
         21   -1    0    0  503  502 -0.00000000000E+00 -0.00000000000E+00 -0.15991710897E+02  0.15991710897E+02  0.00000000000E+00 0. -1.
         21    1    1    2  503  501  0.16281328202E+02 -0.16219878703E+02  0.88730704577E+02  0.91658627788E+02  0.00000000000E+00 0. -1.
         21    1    1    2  504  502 -0.16281328202E+02  0.16219878703E+02 -0.54388308618E+01  0.23616667722E+02  0.00000000000E+00 0. -1.
</event>
<event>
 4    1  0.3080871E+006  0.3238011E+02  0.7546771E-02  0.1399981E+00
         21   -1    0    0  504  501  0.00000000000E+00  0.00000000000E+00  0.12553974482E+02  0.12553974482E+02  0.00000000000E+00 0.  1.
         21   -1    0    0  503  502 -0.00000000000E+00 -0.00000000000E+00 -0.54846207742E+03  0.54846207742E+03  0.00000000000E+00 0.  1.
         21    1    1    2  503  501  0.28876237397E+02  0.14650411208E+02 -0.52622334026E+03  0.52721862208E+03  0.00000000000E+00 0.  1.
         21    1    1    2  504  502 -0.28876237397E+02 -0.14650411208E+02 -0.96847626863E+01  0.33797429829E+02  0.00000000000E+00 0.  1.
</event>
<event>
 4    1  0.3080871E+006  0.2394409E+02  0.7546771E-02  0.1480972E+00
         21   -1    0    0  502  501  0.00000000000E+00  0.00000000000E+00  0.84379141520E+02  0.84379141520E+02  0.00000000000E+00 0.  1.
         21   -1    0    0  504  502 -0.00000000000E+00 -0.00000000000E+00 -0.40222209751E+02  0.40222209751E+02  0.00000000000E+00 0. -1.
         21    1    1    2  503  501  0.16496523468E+02  0.17354656128E+02  0.78873804954E+02  0.82428129202E+02  0.00000000000E+00 0.  1.
         21    1    1    2  504  503 -0.16496523468E+02 -0.17354656128E+02 -0.34716873185E+02  0.42173222068E+02  0.00000000000E+00 0. -1.
</event>
<event>
 4    1  0.3080871E+006  0.2594336E+02  0.7546771E-02  0.1458521E+00
         21   -1    0    0  504  501  0.00000000000E+00  0.00000000000E+00  0.24185630948E+01  0.24185630948E+01  0.00000000000E+00 0.  1.
         21   -1    0    0  503  502 -0.00000000000E+00 -0.00000000000E+00 -0.63487706771E+03  0.63487706771E+03  0.00000000000E+00 0.  1.
         21    1    1    2  503  501  0.21769661576E+02 -0.14111694681E+02 -0.55503780927E+03  0.55564379580E+03  0.00000000000E+00 0.  1.
         21    1    1    2  504  502 -0.21769661576E+02  0.14111694681E+02 -0.77420695344E+02  0.81651835004E+02  0.00000000000E+00 0.  1.
</event>
<event>
 4    1  0.3080871E+006  0.5686922E+02  0.7546771E-02  0.1270858E+00
         21   -1    0    0  503  501  0.00000000000E+00  0.00000000000E+00  0.10372648781E+03  0.10372648781E+03  0.00000000000E+00 0. -1.
         21   -1    0    0  504  502 -0.00000000000E+00 -0.00000000000E+00 -0.11346207517E+03  0.11346207517E+03  0.00000000000E+00 0.  1.
         21    1    1    2  503  502  0.50326498136E+02  0.26483044267E+02 -0.97345350215E+02  0.11273963481E+03  0.00000000000E+00 0.  1.
         21    1    1    2  504  501 -0.50326498136E+02 -0.26483044267E+02  0.87609762861E+02  0.10444892818E+03  0.00000000000E+00 0. -1.
</event>
<event>
 4    1  0.3080871E+006  0.2073698E+02  0.7546771E-02  0.1523053E+00
         21   -1    0    0  504  501  0.00000000000E+00  0.00000000000E+00  0.14131035548E+03  0.14131035548E+03  0.00000000000E+00 0. -1.
         21   -1    0    0  501  502 -0.00000000000E+00 -0.00000000000E+00 -0.57923427581E+02  0.57923427581E+02  0.00000000000E+00 0.  1.
         21    1    1    2  503  502  0.76345576572E+00 -0.20722920979E+02 -0.55271353694E+02  0.59033421532E+02  0.00000000000E+00 0.  1.
         21    1    1    2  504  503 -0.76345576572E+00  0.20722920979E+02  0.13865828159E+03  0.14020036153E+03  0.00000000000E+00 0. -1.
</event>
<event>
 4    1  0.3080871E+006  0.3106658E+02  0.7546771E-02  0.1410549E+00
         21   -1    0    0  503  501  0.00000000000E+00  0.00000000000E+00  0.28665776549E+02  0.28665776549E+02  0.00000000000E+00 0.  1.
         21   -1    0    0  501  502 -0.00000000000E+00 -0.00000000000E+00 -0.38619737350E+02  0.38619737350E+02  0.00000000000E+00 0.  1.
         21    1    1    2  503  504 -0.82846458683E+01 -0.29941565028E+02  0.70690889763E+01  0.31860707658E+02  0.00000000000E+00 0.  1.
         21    1    1    2  504  502  0.82846458683E+01  0.29941565028E+02 -0.17023049778E+02  0.35424806241E+02  0.00000000000E+00 0.  1.
</event>
<event>
 4    1  0.3080871E+006  0.2861544E+02  0.7546771E-02  0.1432022E+00
         21   -1    0    0  502  501  0.00000000000E+00  0.00000000000E+00  0.11707294979E+03  0.11707294979E+03  0.00000000000E+00 0.  1.
         21   -1    0    0  503  502 -0.00000000000E+00 -0.00000000000E+00 -0.88632288758E+01  0.88632288758E+01  0.00000000000E+00 0.  1.
         21    1    1    2  503  504 -0.28608239402E+02  0.64174637366E+00  0.25190003239E+02  0.38123214231E+02  0.00000000000E+00 0.  1.
         21    1    1    2  504  501  0.28608239402E+02 -0.64174637366E+00  0.83019717679E+02  0.87812964439E+02  0.00000000000E+00 0.  1.
</event>
<event>
 4    1  0.3080871E+006  0.2878991E+02  0.7546771E-02  0.1430412E+00
         21   -1    0    0  502  501  0.00000000000E+00  0.00000000000E+00  0.67244312981E+03  0.67244312981E+03  0.00000000000E+00 0. -1.
         21   -1    0    0  504  502 -0.00000000000E+00 -0.00000000000E+00 -0.24766201723E+01  0.24766201723E+01  0.00000000000E+00 0. -1.
         21    1    1    2  503  501 -0.38664936500E+01 -0.28529097876E+02  0.57415212110E+03  0.57487347943E+03  0.00000000000E+00 0. -1.
         21    1    1    2  504  503  0.38664936500E+01  0.28529097876E+02  0.95814388540E+02  0.10004627055E+03  0.00000000000E+00 0. -1.
</event>
<event>
 4    1  0.3080871E+006  0.2235542E+02  0.7546771E-02  0.1500755E+00
         21   -1    0    0  503  501  0.00000000000E+00  0.00000000000E+00  0.26869199432E+03  0.26869199432E+03  0.00000000000E+00 0. -1.
         21   -1    0    0  501  502 -0.00000000000E+00 -0.00000000000E+00 -0.13341718644E+03  0.13341718644E+03  0.00000000000E+00 0.  1.
         21    1    1    2  503  504 -0.11604335388E+02 -0.19107701287E+02  0.26728560740E+03  0.26821886730E+03  0.00000000000E+00 0. -1.
         21    1    1    2  504  502  0.11604335388E+02  0.19107701287E+02 -0.13201079953E+03  0.13389031347E+03  0.00000000000E+00 0.  1.
</event>
<event>
 4    1  0.3080871E+006  0.2161714E+02  0.7546771E-02  0.1510633E+00
         21   -1    0    0  503  501  0.00000000000E+00  0.00000000000E+00  0.26835642184E+02  0.26835642184E+02  0.00000000000E+00 0.  1.
         21   -1    0    0  504  502 -0.00000000000E+00 -0.00000000000E+00 -0.58032526623E+02  0.58032526623E+02  0.00000000000E+00 0.  1.
         21    1    1    2  503  502  0.18792949537E+02  0.10682963486E+02  0.19902853946E+02  0.29384081683E+02  0.00000000000E+00 0.  1.
         21    1    1    2  504  501 -0.18792949537E+02 -0.10682963486E+02 -0.51099738384E+02  0.55484087125E+02  0.00000000000E+00 0.  1.
</event>
<event>
 4    1  0.3080871E+006  0.2004085E+02  0.7546771E-02  0.1533412E+00
         21   -1    0    0  502  501  0.00000000000E+00  0.00000000000E+00  0.45597591496E+02  0.45597591496E+02  0.00000000000E+00 0. -1.
         21   -1    0    0  503  502 -0.00000000000E+00 -0.00000000000E+00 -0.51665183215E+02  0.51665183215E+02  0.00000000000E+00 0. -1.
         21    1    1    2  503  504 -0.16018087860E+02  0.12043939672E+02 -0.47326087091E+02  0.51394495238E+02  0.00000000000E+00 0. -1.
         21    1    1    2  504  501  0.16018087860E+02 -0.12043939672E+02  0.41258495372E+02  0.45868279473E+02  0.00000000000E+00 0. -1.
</event>
<event>
 4    1  0.3080871E+006  0.3054752E+02  0.7546771E-02  0.1414897E+00
         21   -1    0    0  503  501  0.00000000000E+00  0.00000000000E+00  0.44813505175E+02  0.44813505175E+02  0.00000000000E+00 0. -1.
         21   -1    0    0  504  502 -0.00000000000E+00 -0.00000000000E+00 -0.20772994544E+03  0.20772994544E+03  0.00000000000E+00 0. -1.
         21    1    1    2  503  502  0.30545426913E+02 -0.35776332387E+00  0.38317638926E+02  0.49004005476E+02  0.00000000000E+00 0. -1.
         21    1    1    2  504  501 -0.30545426913E+02  0.35776332387E+00 -0.20123407919E+03  0.20353944513E+03  0.00000000000E+00 0. -1.
</event>
<event>
 4    1  0.3080871E+006  0.2698951E+02  0.7546771E-02  0.1447713E+00
         21   -1    0    0  502  501  0.00000000000E+00  0.00000000000E+00  0.59347215411E+03  0.59347215411E+03  0.00000000000E+00 0. -1.
         21   -1    0    0  503  502 -0.00000000000E+00 -0.00000000000E+00 -0.78346431943E+01  0.78346431943E+01  0.00000000000E+00 0.  1.
         21    1    1    2  503  504 -0.22043760038E+02  0.15572620415E+02  0.16718815419E+02  0.31748270067E+02  0.00000000000E+00 0.  1.
         21    1    1    2  504  501  0.22043760038E+02 -0.15572620415E+02  0.56891869549E+03  0.56955852723E+03  0.00000000000E+00 0. -1.
</event>
<event>
 4    1  0.3080871E+006  0.2435608E+02  0.7546771E-02  0.1476137E+00
         21   -1    0    0  503  501  0.00000000000E+00  0.00000000000E+00  0.15550527775E+02  0.15550527775E+02  0.00000000000E+00 0. -1.
         21   -1    0    0  501  502 -0.00000000000E+00 -0.00000000000E+00 -0.64047147385E+02  0.64047147385E+02  0.00000000000E+00 0. -1.
         21    1    1    2  503  504 -0.23800998206E+02 -0.51701937468E+01  0.10601027195E+01  0.24379135275E+02  0.00000000000E+00 0. -1.
         21    1    1    2  504  502  0.23800998206E+02  0.51701937468E+01 -0.49556722329E+02  0.55218539885E+02  0.00000000000E+00 0. -1.
</event>
<event>
 4    1  0.3080871E+006  0.7260403E+02  0.7546771E-02  0.1222144E+00
         21   -1    0    0  504  501  0.00000000000E+00  0.00000000000E+00  0.28699147388E+03  0.28699147388E+03  0.00000000000E+00 0. -1.
         21   -1    0    0  503  502 -0.00000000000E+00 -0.00000000000E+00 -0.36453739746E+02  0.36453739746E+02  0.00000000000E+00 0.  1.
         21    1    1    2  503  501 -0.72052459071E+02 -0.89324691303E+01  0.11356054002E+02  0.73486773132E+02  0.00000000000E+00 0.  1.
         21    1    1    2  504  502  0.72052459071E+02  0.89324691303E+01  0.23918168013E+03  0.24995844049E+03  0.00000000000E+00 0. -1.
</event>
<event>
 4    1  0.3080871E+006  0.3792161E+02  0.7546771E-02  0.1361115E+00
         21   -1    0    0  504  501  0.00000000000E+00  0.00000000000E+00  0.45036731895E+03  0.45036731895E+03  0.00000000000E+00 0.  1.
         21   -1    0    0  503  502 -0.00000000000E+00 -0.00000000000E+00 -0.41221239535E+01  0.41221239535E+01  0.00000000000E+00 0.  1.
         21    1    1    2  503  501  0.32135045315E+02  0.20134232136E+02  0.11523865025E+03  0.12131774377E+03  0.00000000000E+00 0.  1.
         21    1    1    2  504  502 -0.32135045315E+02 -0.20134232136E+02  0.33100654475E+03  0.33317169914E+03  0.00000000000E+00 0.  1.
</event>
<event>
 4    1  0.3080871E+006  0.6384607E+02  0.7546771E-02  0.1247297E+00
         21   -1    0    0  502  501  0.00000000000E+00  0.00000000000E+00  0.20794600556E+02  0.20794600556E+02  0.00000000000E+00 0.  1.
         21   -1    0    0  504  502 -0.00000000000E+00 -0.00000000000E+00 -0.40760046868E+03  0.40760046868E+03  0.00000000000E+00 0.  1.
         21    1    1    2  503  501  0.63842918398E+02 -0.63394482151E+00 -0.39081270277E+02  0.74857636899E+02  0.00000000000E+00 0.  1.
         21    1    1    2  504  503 -0.63842918398E+02  0.63394482151E+00 -0.34772459784E+03  0.35353743233E+03  0.00000000000E+00 0.  1.
</event>
<event>
 4    1  0.3080871E+006  0.4133783E+02  0.7546771E-02  0.1340820E+00
         21   -1    0    0  504  501  0.00000000000E+00  0.00000000000E+00  0.15363442059E+02  0.15363442059E+02  0.00000000000E+00 0.  1.
         21   -1    0    0  503  502 -0.00000000000E+00 -0.00000000000E+00 -0.36309496617E+03  0.36309496617E+03  0.00000000000E+00 0. -1.
         21    1    1    2  503  501 -0.27661968000E+01 -0.41245172973E+02 -0.33146904874E+03  0.33403674410E+03  0.00000000000E+00 0. -1.
         21    1    1    2  504  502  0.27661968000E+01  0.41245172973E+02 -0.16262475368E+02  0.44421664122E+02  0.00000000000E+00 0.  1.
</event>
<event>
 4    1  0.3080871E+006  0.2162349E+02  0.7546771E-02  0.1510546E+00
         21   -1    0    0  503  501  0.00000000000E+00  0.00000000000E+00  0.27336366244E+01  0.27336366244E+01  0.00000000000E+00 0.  1.
         21   -1    0    0  501  502 -0.00000000000E+00 -0.00000000000E+00 -0.91544248656E+03  0.91544248656E+03  0.00000000000E+00 0. -1.
         21    1    1    2  503  504  0.17300804194E+00 -0.21622799988E+02 -0.42371089872E+02  0.47569787345E+02  0.00000000000E+00 0.  1.
         21    1    1    2  504  502 -0.17300804194E+00  0.21622799988E+02 -0.87033776006E+03  0.87060633583E+03  0.00000000000E+00 0. -1.
</event>
<event>
 4    1  0.3080871E+006  0.2892812E+02  0.7546771E-02  0.1429145E+00
         21   -1    0    0  503  501  0.00000000000E+00  0.00000000000E+00  0.10212968071E+02  0.10212968071E+02  0.00000000000E+00 0.  1.
         21   -1    0    0  504  502 -0.00000000000E+00 -0.00000000000E+00 -0.94080119379E+02  0.94080119379E+02  0.00000000000E+00 0.  1.
         21    1    1    2  503  502  0.28924389787E+02  0.46476728070E+00 -0.60666823074E+02  0.67210860396E+02  0.00000000000E+00 0.  1.
         21    1    1    2  504  501 -0.28924389787E+02 -0.46476728070E+00 -0.23200328233E+02  0.37082227054E+02  0.00000000000E+00 0.  1.
</event>
<event>
 4    1  0.3080871E+006  0.2395079E+02  0.7546771E-02  0.1480892E+00
         21   -1    0    0  504  501  0.00000000000E+00  0.00000000000E+00  0.55014444784E+02  0.55014444784E+02  0.00000000000E+00 0.  1.
         21   -1    0    0  503  502 -0.00000000000E+00 -0.00000000000E+00 -0.22171930664E+02  0.22171930664E+02  0.00000000000E+00 0.  1.
         21    1    1    2  503  501 -0.22815404007E+02 -0.72868244257E+01  0.44510012267E+02  0.50544848029E+02  0.00000000000E+00 0.  1.
         21    1    1    2  504  502  0.22815404007E+02  0.72868244257E+01 -0.11667498147E+02  0.26641527419E+02  0.00000000000E+00 0.  1.
</event>
<event>
 4    1  0.3080871E+006  0.2019511E+02  0.7546771E-02  0.1531074E+00
         21   -1    0    0  504  501  0.00000000000E+00  0.00000000000E+00  0.98416891697E+02  0.98416891697E+02  0.00000000000E+00 0.  1.
         21   -1    0    0  503  502 -0.00000000000E+00 -0.00000000000E+00 -0.46177872646E+01  0.46177872646E+01  0.00000000000E+00 0.  1.
         21    1    1    2  503  501  0.14554664936E+02 -0.14000150159E+02  0.63400723035E+02  0.66539418071E+02  0.00000000000E+00 0.  1.
         21    1    1    2  504  502 -0.14554664936E+02  0.14000150159E+02  0.30398381398E+02  0.36495260891E+02  0.00000000000E+00 0.  1.
</event>
<event>
 4    1  0.3080871E+006  0.2154818E+02  0.7546771E-02  0.1511580E+00
         21   -1    0    0  503  501  0.00000000000E+00  0.00000000000E+00  0.74009075875E+02  0.74009075875E+02  0.00000000000E+00 0.  1.
         21   -1    0    0  504  502 -0.00000000000E+00 -0.00000000000E+00 -0.86185465123E+01  0.86185465123E+01  0.00000000000E+00 0. -1.
         21    1    1    2  503  502  0.19984571939E+02  0.80585813536E+01  0.11146665100E+02  0.24260502713E+02  0.00000000000E+00 0. -1.
         21    1    1    2  504  501 -0.19984571939E+02 -0.80585813536E+01  0.54243864263E+02  0.58367119675E+02  0.00000000000E+00 0.  1.
</event>
<event>
 4    1  0.3080871E+006  0.2938732E+02  0.7546771E-02  0.1424996E+00
         21   -1    0    0  504  501  0.00000000000E+00  0.00000000000E+00  0.40352538335E+00  0.40352538335E+00  0.00000000000E+00 0. -1.
         21   -1    0    0  503  502 -0.00000000000E+00 -0.00000000000E+00 -0.21551490962E+04  0.21551490962E+04  0.00000000000E+00 0. -1.
         21    1    1    2  503  501  0.29333021476E+02 -0.17855546582E+01 -0.98753040888E+03  0.98796757175E+03  0.00000000000E+00 0. -1.
         21    1    1    2  504  502 -0.29333021476E+02  0.17855546582E+01 -0.11672151619E+04  0.11675850498E+04  0.00000000000E+00 0. -1.
</event>
<event>
 4    1  0.3080871E+006  0.2944775E+02  0.7546771E-02  0.1424457E+00
         21   -1    0    0  503  501  0.00000000000E+00  0.00000000000E+00  0.33611477609E+01  0.33611477609E+01  0.00000000000E+00 0.  1.
         21   -1    0    0  504  502 -0.00000000000E+00 -0.00000000000E+00 -0.31250703802E+03  0.31250703802E+03  0.00000000000E+00 0.  1.
         21    1    1    2  503  502  0.29427072615E+02 -0.11034577827E+01 -0.88613153666E+02  0.93378055368E+02  0.00000000000E+00 0.  1.
         21    1    1    2  504  501 -0.29427072615E+02  0.11034577827E+01 -0.22053273660E+03  0.22249013041E+03  0.00000000000E+00 0.  1.
</event>
<event>
 4    1  0.3080871E+006  0.2033295E+02  0.7546771E-02  0.1529005E+00
         21   -1    0    0  503  501  0.00000000000E+00  0.00000000000E+00  0.17805775994E+03  0.17805775994E+03  0.00000000000E+00 0. -1.
         21   -1    0    0  504  502 -0.00000000000E+00 -0.00000000000E+00 -0.23340315588E+02  0.23340315588E+02  0.00000000000E+00 0.  1.
         21    1    1    2  503  502  0.79033761246E+01  0.18734073594E+02 -0.18200398779E+02  0.27288887543E+02  0.00000000000E+00 0.  1.
         21    1    1    2  504  501 -0.79033761246E+01 -0.18734073594E+02  0.17291784313E+03  0.17410918799E+03  0.00000000000E+00 0. -1.
</event>
<event>
 4    1  0.3080871E+006  0.3103123E+02  0.7546771E-02  0.1410842E+00
         21   -1    0    0  502  501  0.00000000000E+00  0.00000000000E+00  0.58378407129E+02  0.58378407129E+02  0.00000000000E+00 0.  1.
         21   -1    0    0  503  502 -0.00000000000E+00 -0.00000000000E+00 -0.46222482394E+03  0.46222482394E+03  0.00000000000E+00 0. -1.
         21    1    1    2  503  504 -0.16302778508E+02  0.26403718370E+02 -0.45753812976E+03  0.45858922482E+03  0.00000000000E+00 0. -1.
         21    1    1    2  504  501  0.16302778508E+02 -0.26403718370E+02  0.53691712956E+02  0.62014006248E+02  0.00000000000E+00 0.  1.
</event>
<event>
 4    1  0.3080871E+006  0.3181814E+02  0.7546771E-02  0.1404428E+00
         21   -1    0    0  504  501  0.00000000000E+00  0.00000000000E+00  0.28157851459E+02  0.28157851459E+02  0.00000000000E+00 0. -1.
         21   -1    0    0  503  502 -0.00000000000E+00 -0.00000000000E+00 -0.49276609976E+02  0.49276609976E+02  0.00000000000E+00 0. -1.
         21    1    1    2  503  501 -0.72799183672E+01  0.30974130478E+02  0.95720553132E+01  0.33226769527E+02  0.00000000000E+00 0. -1.
         21    1    1    2  504  502  0.72799183672E+01 -0.30974130478E+02 -0.30690813830E+02  0.44207691908E+02  0.00000000000E+00 0. -1.
</event>
<event>
 4    1  0.3080871E+006  0.3914570E+02  0.7546771E-02  0.1353566E+00
         21   -1    0    0  503  501  0.00000000000E+00  0.00000000000E+00  0.10602563322E+02  0.10602563322E+02  0.00000000000E+00 0.  1.
         21   -1    0    0  504  502 -0.00000000000E+00 -0.00000000000E+00 -0.30824384978E+03  0.30824384978E+03  0.00000000000E+00 0.  1.
         21    1    1    2  503  502  0.20267312035E+02  0.33490629242E+02 -0.26500491158E+03  0.26788055051E+03  0.00000000000E+00 0.  1.
         21    1    1    2  504  501 -0.20267312035E+02 -0.33490629242E+02 -0.32636374886E+02  0.50965862593E+02  0.00000000000E+00 0.  1.
</event>
<event>
 4    1  0.3080871E+006  0.2998353E+02  0.7546771E-02  0.1419740E+00
         21   -1    0    0  502  501  0.00000000000E+00  0.00000000000E+00  0.59164087044E+03  0.59164087044E+03  0.00000000000E+00 0.  1.
         21   -1    0    0  504  502 -0.00000000000E+00 -0.00000000000E+00 -0.27806378146E+02  0.27806378146E+02  0.00000000000E+00 0. -1.
         21    1    1    2  503  501  0.11948048129E+01 -0.29959710995E+02  0.58305932026E+03  0.58382975496E+03  0.00000000000E+00 0.  1.
         21    1    1    2  504  503 -0.11948048129E+01  0.29959710995E+02 -0.19224827967E+02  0.35617493620E+02  0.00000000000E+00 0. -1.
</event>
<event>
 4    1  0.3080871E+006  0.3127812E+02  0.7546771E-02  0.1408805E+00
         21   -1    0    0  503  501  0.00000000000E+00  0.00000000000E+00  0.20216234874E+03  0.20216234874E+03  0.00000000000E+00 0.  1.
         21   -1    0    0  504  502 -0.00000000000E+00 -0.00000000000E+00 -0.20680392951E+02  0.20680392951E+02  0.00000000000E+00 0.  1.
         21    1    1    2  503  502  0.30910503667E+02  0.47813538593E+01 -0.67763795824E+01  0.32003748248E+02  0.00000000000E+00 0.  1.
         21    1    1    2  504  501 -0.30910503667E+02 -0.47813538593E+01  0.18825833538E+03  0.19083899345E+03  0.00000000000E+00 0.  1.
</event>
<event>
 4    1  0.3080871E+006  0.2996436E+02  0.7546771E-02  0.1419907E+00
         21   -1    0    0  502  501  0.00000000000E+00  0.00000000000E+00  0.92580845254E+02  0.92580845254E+02  0.00000000000E+00 0. -1.
         21   -1    0    0  503  502 -0.00000000000E+00 -0.00000000000E+00 -0.10833071532E+02  0.10833071532E+02  0.00000000000E+00 0. -1.
         21    1    1    2  503  504 -0.76751539800E+01  0.28964718592E+02  0.24137714875E+02  0.38477164541E+02  0.00000000000E+00 0. -1.
         21    1    1    2  504  501  0.76751539800E+01 -0.28964718592E+02  0.57610058847E+02  0.64936752245E+02  0.00000000000E+00 0. -1.
</event>
<event>
 4    1  0.3080871E+006  0.2510874E+02  0.7546771E-02  0.1467591E+00
         21   -1    0    0  503  501  0.00000000000E+00  0.00000000000E+00  0.18779152616E+02  0.18779152616E+02  0.00000000000E+00 0.  1.
         21   -1    0    0  504  502 -0.00000000000E+00 -0.00000000000E+00 -0.40892303613E+02  0.40892303613E+02  0.00000000000E+00 0.  1.
         21    1    1    2  503  502  0.16962081038E+02 -0.18513151005E+02  0.15671608555E+01  0.25157602160E+02  0.00000000000E+00 0.  1.
         21    1    1    2  504  501 -0.16962081038E+02  0.18513151005E+02 -0.23680311853E+02  0.34513854069E+02  0.00000000000E+00 0.  1.
</event>
<event>
 4    1  0.3080871E+006  0.3706005E+02  0.7546771E-02  0.1366632E+00
         21   -1    0    0  502  501  0.00000000000E+00  0.00000000000E+00  0.96739565424E+02  0.96739565424E+02  0.00000000000E+00 0. -1.
         21   -1    0    0  503  502 -0.00000000000E+00 -0.00000000000E+00 -0.20257820181E+02  0.20257820181E+02  0.00000000000E+00 0. -1.
         21    1    1    2  503  504 -0.35319586623E+02 -0.11223824344E+02  0.62443900657E+01  0.37582440573E+02  0.00000000000E+00 0. -1.
         21    1    1    2  504  501  0.35319586623E+02  0.11223824344E+02  0.70237355177E+02  0.79414945032E+02  0.00000000000E+00 0. -1.
</event>
<event>
 4    1  0.3080871E+006  0.2225448E+02  0.7546771E-02  0.1502078E+00
         21   -1    0    0  502  501  0.00000000000E+00  0.00000000000E+00  0.59541567289E+02  0.59541567289E+02  0.00000000000E+00 0.  1.
         21   -1    0    0  504  502 -0.00000000000E+00 -0.00000000000E+00 -0.40531522172E+02  0.40531522172E+02  0.00000000000E+00 0. -1.
         21    1    1    2  503  501  0.51210464838E+01 -0.21657251504E+02  0.54112795152E+02  0.58510308998E+02  0.00000000000E+00 0.  1.
         21    1    1    2  504  503 -0.51210464838E+01  0.21657251504E+02 -0.35102750036E+02  0.41562780464E+02  0.00000000000E+00 0. -1.
</event>
<event>
 4    1  0.3080871E+006  0.2566275E+02  0.7546771E-02  0.1461524E+00
         21   -1    0    0  504  501  0.00000000000E+00  0.00000000000E+00  0.51173981974E+01  0.51173981974E+01  0.00000000000E+00 0.  1.
         21   -1    0    0  501  502 -0.00000000000E+00 -0.00000000000E+00 -0.16960268869E+03  0.16960268869E+03  0.00000000000E+00 0.  1.
         21    1    1    2  503  502  0.24586186814E+02  0.73550088831E+01 -0.12514745926E+03  0.12775156867E+03  0.00000000000E+00 0.  1.
         21    1    1    2  504  503 -0.24586186814E+02 -0.73550088831E+01 -0.39337831231E+02  0.46968518219E+02  0.00000000000E+00 0.  1.
</event>
<event>
 4    1  0.3080871E+006  0.3372857E+02  0.7546771E-02  0.1389729E+00
         21   -1    0    0  503  501  0.00000000000E+00  0.00000000000E+00  0.14096617414E+03  0.14096617414E+03  0.00000000000E+00 0.  1.
         21   -1    0    0  504  502 -0.00000000000E+00 -0.00000000000E+00 -0.16230665428E+03  0.16230665428E+03  0.00000000000E+00 0.  1.
         21    1    1    2  503  502  0.42353937424E+01 -0.33461583723E+02  0.13714831415E+03  0.14123482651E+03  0.00000000000E+00 0.  1.
         21    1    1    2  504  501 -0.42353937424E+01  0.33461583723E+02 -0.15848879429E+03  0.16203800190E+03  0.00000000000E+00 0.  1.
</event>
<event>
 4    1  0.3080871E+006  0.2129379E+02  0.7546771E-02  0.1515111E+00
         21   -1    0    0  504  501  0.00000000000E+00  0.00000000000E+00  0.73346028395E+00  0.73346028395E+00  0.00000000000E+00 0. -1.
         21   -1    0    0  503  502 -0.00000000000E+00 -0.00000000000E+00 -0.65854116138E+03  0.65854116138E+03  0.00000000000E+00 0. -1.
         21    1    1    2  503  501 -0.14829811855E+02 -0.15280780520E+02 -0.24731778761E+03  0.24823278116E+03  0.00000000000E+00 0. -1.
         21    1    1    2  504  502  0.14829811855E+02  0.15280780520E+02 -0.41048991348E+03  0.41104184050E+03  0.00000000000E+00 0. -1.
</event>
<event>
 4    1  0.3080871E+006  0.2055397E+02  0.7546771E-02  0.1525729E+00
         21   -1    0    0  504  501  0.00000000000E+00  0.00000000000E+00  0.82160836855E+02  0.82160836855E+02  0.00000000000E+00 0.  1.
         21   -1    0    0  503  502 -0.00000000000E+00 -0.00000000000E+00 -0.11105492154E+03  0.11105492154E+03  0.00000000000E+00 0.  1.
         21    1    1    2  503  501 -0.18351191404E+02 -0.92574092618E+01 -0.10879190280E+03  0.11071650269E+03  0.00000000000E+00 0.  1.
         21    1    1    2  504  502  0.18351191404E+02  0.92574092618E+01  0.79897818118E+02  0.82499255707E+02  0.00000000000E+00 0.  1.
</event>
<event>
 4    1  0.3080871E+006  0.2019771E+02  0.7546771E-02  0.1531035E+00
         21   -1    0    0  504  501  0.00000000000E+00  0.00000000000E+00  0.51917605991E+02  0.51917605991E+02  0.00000000000E+00 0.  1.
         21   -1    0    0  503  502 -0.00000000000E+00 -0.00000000000E+00 -0.19569923531E+03  0.19569923531E+03  0.00000000000E+00 0. -1.
         21    1    1    2  503  501  0.14852505341E+02 -0.13687605404E+02  0.49406603444E+02  0.53375649134E+02  0.00000000000E+00 0.  1.
         21    1    1    2  504  502 -0.14852505341E+02  0.13687605404E+02 -0.19318823276E+03  0.19424119217E+03  0.00000000000E+00 0. -1.
</event>
<event>
 4    1  0.3080871E+006  0.2808328E+02  0.7546771E-02  0.1437020E+00
         21   -1    0    0  504  501  0.00000000000E+00  0.00000000000E+00  0.17308832191E+02  0.17308832191E+02  0.00000000000E+00 0.  1.
         21   -1    0    0  503  502 -0.00000000000E+00 -0.00000000000E+00 -0.45744573732E+02  0.45744573732E+02  0.00000000000E+00 0.  1.
         21    1    1    2  503  501 -0.21156274994E+02 -0.18468420198E+02 -0.16195197331E+02  0.32418435076E+02  0.00000000000E+00 0.  1.
         21    1    1    2  504  502  0.21156274994E+02  0.18468420198E+02 -0.12240544210E+02  0.30634970847E+02  0.00000000000E+00 0.  1.
</event>
<event>
 4    1  0.3080871E+006  0.2631599E+02  0.7546771E-02  0.1454603E+00
         21   -1    0    0  503  501  0.00000000000E+00  0.00000000000E+00  0.19232053557E+02  0.19232053557E+02  0.00000000000E+00 0. -1.
         21   -1    0    0  504  502 -0.00000000000E+00 -0.00000000000E+00 -0.70728446743E+02  0.70728446743E+02  0.00000000000E+00 0. -1.
         21    1    1    2  503  502 -0.18906403557E+02 -0.18305172465E+02 -0.57262649149E+02  0.63020174722E+02  0.00000000000E+00 0. -1.
         21    1    1    2  504  501  0.18906403557E+02  0.18305172465E+02  0.57662559631E+01  0.26940325578E+02  0.00000000000E+00 0. -1.
</event>
<event>
 4    1  0.3080871E+006  0.4297890E+02  0.7546771E-02  0.1331861E+00
         21   -1    0    0  502  501  0.00000000000E+00  0.00000000000E+00  0.32425467869E+02  0.32425467869E+02  0.00000000000E+00 0. -1.
         21   -1    0    0  503  502 -0.00000000000E+00 -0.00000000000E+00 -0.51489633857E+03  0.51489633857E+03  0.00000000000E+00 0.  1.
         21    1    1    2  503  504 -0.41976818202E+02  0.92267144695E+01 -0.49931405762E+03  0.50116036721E+03  0.00000000000E+00 0.  1.
         21    1    1    2  504  501  0.41976818202E+02 -0.92267144695E+01  0.16843186916E+02  0.46161439230E+02  0.00000000000E+00 0. -1.
</event>
<event>
 4    1  0.3080871E+006  0.2223941E+02  0.7546771E-02  0.1502276E+00
         21   -1    0    0  504  501  0.00000000000E+00  0.00000000000E+00  0.38113230039E+01  0.38113230039E+01  0.00000000000E+00 0.  1.
         21   -1    0    0  503  502 -0.00000000000E+00 -0.00000000000E+00 -0.13470444120E+03  0.13470444120E+03  0.00000000000E+00 0.  1.
         21    1    1    2  503  501 -0.20965326232E+02 -0.74193429649E+01 -0.78703443857E+02  0.81785228673E+02  0.00000000000E+00 0.  1.
         21    1    1    2  504  502  0.20965326232E+02  0.74193429649E+01 -0.52189674335E+02  0.56730535528E+02  0.00000000000E+00 0.  1.
</event>
<event>
 4    1  0.3080871E+006  0.2673840E+02  0.7546771E-02  0.1450254E+00
         21   -1    0    0  503  501  0.00000000000E+00  0.00000000000E+00  0.60719634491E+01  0.60719634491E+01  0.00000000000E+00 0.  1.
         21   -1    0    0  504  502 -0.00000000000E+00 -0.00000000000E+00 -0.26397252861E+03  0.26397252861E+03  0.00000000000E+00 0.  1.
         21    1    1    2  503  502 -0.23655508472E+02  0.12464298238E+02 -0.28456104021E+02  0.39047300389E+02  0.00000000000E+00 0.  1.
         21    1    1    2  504  501  0.23655508472E+02 -0.12464298238E+02 -0.22944446114E+03  0.23099719167E+03  0.00000000000E+00 0.  1.
</event>
<event>
 4    1  0.3080871E+006  0.2043403E+02  0.7546771E-02  0.1527501E+00
         21   -1    0    0  502  501  0.00000000000E+00  0.00000000000E+00  0.59714394766E+01  0.59714394766E+01  0.00000000000E+00 0. -1.
         21   -1    0    0  504  502 -0.00000000000E+00 -0.00000000000E+00 -0.15127386971E+03  0.15127386971E+03  0.00000000000E+00 0. -1.
         21    1    1    2  503  501  0.20368802166E+02  0.16314089715E+01 -0.14995417408E+02  0.25345850551E+02  0.00000000000E+00 0. -1.
         21    1    1    2  504  503 -0.20368802166E+02 -0.16314089715E+01 -0.13030701283E+03  0.13189945864E+03  0.00000000000E+00 0. -1.
</event>
<event>
 4    1  0.3080871E+006  0.2333412E+02  0.7546771E-02  0.1488345E+00
         21   -1    0    0  503  501  0.00000000000E+00  0.00000000000E+00  0.66515045567E+00  0.66515045567E+00  0.00000000000E+00 0. -1.
         21   -1    0    0  501  502 -0.00000000000E+00 -0.00000000000E+00 -0.83493488610E+03  0.83493488610E+03  0.00000000000E+00 0. -1.
         21    1    1    2  503  504  0.85825772310E+00 -0.23318328224E+02 -0.35866630174E+03  0.35942453595E+03  0.00000000000E+00 0. -1.
         21    1    1    2  504  502 -0.85825772310E+00  0.23318328224E+02 -0.47560343391E+03  0.47617550061E+03  0.00000000000E+00 0. -1.
</event>
<event>
 4    1  0.3080871E+006  0.2640948E+02  0.7546771E-02  0.1453632E+00
         21   -1    0    0  503  501  0.00000000000E+00  0.00000000000E+00  0.82869265063E+02  0.82869265063E+02  0.00000000000E+00 0. -1.
         21   -1    0    0  504  502 -0.00000000000E+00 -0.00000000000E+00 -0.96747677725E+01  0.96747677725E+01  0.00000000000E+00 0. -1.
         21    1    1    2  503  502 -0.26269859760E+02 -0.27120412469E+01  0.53285173108E+02  0.59470752246E+02  0.00000000000E+00 0. -1.
         21    1    1    2  504  501  0.26269859760E+02  0.27120412469E+01  0.19909324182E+02  0.33073280589E+02  0.00000000000E+00 0. -1.
</event>
<event>
 4    1  0.3080871E+006  0.2120541E+02  0.7546771E-02  0.1516352E+00
         21   -1    0    0  503  501  0.00000000000E+00  0.00000000000E+00  0.17404964443E+01  0.17404964443E+01  0.00000000000E+00 0.  1.
         21   -1    0    0  501  502 -0.00000000000E+00 -0.00000000000E+00 -0.45808578291E+03  0.45808578291E+03  0.00000000000E+00 0.  1.
         21    1    1    2  503  504 -0.59423492552E+01 -0.20355782920E+02 -0.76359025344E+02  0.79248786518E+02  0.00000000000E+00 0.  1.
         21    1    1    2  504  502  0.59423492552E+01  0.20355782920E+02 -0.37998626112E+03  0.38057749284E+03  0.00000000000E+00 0.  1.
</event>
<event>
 4    1  0.3080871E+006  0.2011860E+02  0.7546771E-02  0.1532230E+00
         21   -1    0    0  502  501  0.00000000000E+00  0.00000000000E+00  0.22243769520E+02  0.22243769520E+02  0.00000000000E+00 0.  1.
         21   -1    0    0  503  502 -0.00000000000E+00 -0.00000000000E+00 -0.48880713705E+02  0.48880713705E+02  0.00000000000E+00 0.  1.
         21    1    1    2  503  504  0.12276314243E+02 -0.15938951472E+02 -0.41494390236E+02  0.46114449867E+02  0.00000000000E+00 0.  1.
         21    1    1    2  504  501 -0.12276314243E+02  0.15938951472E+02  0.14857446052E+02  0.25010033359E+02  0.00000000000E+00 0.  1.
</event>
<event>
 4    1  0.3080871E+006  0.2209908E+02  0.7546771E-02  0.1504132E+00
         21   -1    0    0  502  501  0.00000000000E+00  0.00000000000E+00  0.64362696253E+01  0.64362696253E+01  0.00000000000E+00 0. -1.
         21   -1    0    0  503  502 -0.00000000000E+00 -0.00000000000E+00 -0.76702652005E+02  0.76702652005E+02  0.00000000000E+00 0. -1.
         21    1    1    2  503  504 -0.14057865801E+02 -0.17051272752E+02 -0.30822200384E+02  0.37925947976E+02  0.00000000000E+00 0. -1.
         21    1    1    2  504  501  0.14057865801E+02  0.17051272752E+02 -0.39444181996E+02  0.45212973654E+02  0.00000000000E+00 0. -1.
</event>
<event>
 4    1  0.3080871E+006  0.2812242E+02  0.7546771E-02  0.1436648E+00
         21   -1    0    0  504  501  0.00000000000E+00  0.00000000000E+00  0.10321489396E+02  0.10321489396E+02  0.00000000000E+00 0. -1.
         21   -1    0    0  503  502 -0.00000000000E+00 -0.00000000000E+00 -0.50703342323E+03  0.50703342323E+03  0.00000000000E+00 0.  1.
         21    1    1    2  503  501 -0.12324359486E+02  0.25278062684E+02 -0.10024522719E+02  0.29855675265E+02  0.00000000000E+00 0. -1.
         21    1    1    2  504  502  0.12324359486E+02 -0.25278062684E+02 -0.48668741112E+03  0.48749923737E+03  0.00000000000E+00 0.  1.
</event>
<event>
 4    1  0.3080871E+006  0.2260252E+02  0.7546771E-02  0.1497550E+00
         21   -1    0    0  504  501  0.00000000000E+00  0.00000000000E+00  0.17508401737E+02  0.17508401737E+02  0.00000000000E+00 0. -1.
         21   -1    0    0  501  502 -0.00000000000E+00 -0.00000000000E+00 -0.31498794876E+03  0.31498794876E+03  0.00000000000E+00 0.  1.
         21    1    1    2  503  502  0.40242462192E+01 -0.22241392662E+02 -0.30710068154E+03  0.30793132791E+03  0.00000000000E+00 0.  1.
         21    1    1    2  504  503 -0.40242462192E+01  0.22241392662E+02  0.96211345198E+01  0.24565022586E+02  0.00000000000E+00 0. -1.
</event>
<event>
 4    1  0.3080871E+006  0.3757997E+02  0.7546771E-02  0.1363282E+00
         21   -1    0    0  503  501  0.00000000000E+00  0.00000000000E+00  0.37320374244E+03  0.37320374244E+03  0.00000000000E+00 0.  1.
         21   -1    0    0  504  502 -0.00000000000E+00 -0.00000000000E+00 -0.46768059987E+01  0.46768059987E+01  0.00000000000E+00 0.  1.
         21    1    1    2  503  502  0.29320380432E+02  0.23506795860E+02  0.10171765614E+03  0.10843770438E+03  0.00000000000E+00 0.  1.
         21    1    1    2  504  501 -0.29320380432E+02 -0.23506795860E+02  0.26680928029E+03  0.26944284405E+03  0.00000000000E+00 0.  1.
</event>
<event>
 4    1  0.3080871E+006  0.2032749E+02  0.7546771E-02  0.1529087E+00
         21   -1    0    0  504  501  0.00000000000E+00  0.00000000000E+00  0.75545308539E+01  0.75545308539E+01  0.00000000000E+00 0. -1.
         21   -1    0    0  503  502 -0.00000000000E+00 -0.00000000000E+00 -0.16241531522E+03  0.16241531522E+03  0.00000000000E+00 0. -1.
         21    1    1    2  503  501 -0.15921967027E+02 -0.12637161600E+02 -0.82195635478E+01  0.21926424976E+02  0.00000000000E+00 0. -1.
         21    1    1    2  504  502  0.15921967027E+02  0.12637161600E+02 -0.14664122082E+03  0.14804342110E+03  0.00000000000E+00 0. -1.
</event>
<event>
 4    1  0.3080871E+006  0.2199523E+02  0.7546771E-02  0.1505516E+00
         21   -1    0    0  503  501  0.00000000000E+00  0.00000000000E+00  0.37165135382E+01  0.37165135382E+01  0.00000000000E+00 0. -1.
         21   -1    0    0  504  502 -0.00000000000E+00 -0.00000000000E+00 -0.13688795056E+03  0.13688795056E+03  0.00000000000E+00 0. -1.
         21    1    1    2  503  502 -0.14982041523E+02  0.16103681292E+02 -0.82156284880E+02  0.85049663518E+02  0.00000000000E+00 0. -1.
         21    1    1    2  504  501  0.14982041523E+02 -0.16103681292E+02 -0.51015152139E+02  0.55554800577E+02  0.00000000000E+00 0. -1.
</event>
<event>
 4    1  0.3080871E+006  0.3509067E+02  0.7546771E-02  0.1379927E+00
         21   -1    0    0  503  501  0.00000000000E+00  0.00000000000E+00  0.96060462645E+03  0.96060462645E+03  0.00000000000E+00 0.  1.
         21   -1    0    0  504  502 -0.00000000000E+00 -0.00000000000E+00 -0.23670254134E+01  0.23670254134E+01  0.00000000000E+00 0.  1.
         21    1    1    2  503  502  0.28826092659E+02 -0.20010280672E+02  0.80512901287E+03  0.80589334425E+03  0.00000000000E+00 0.  1.
         21    1    1    2  504  501 -0.28826092659E+02  0.20010280672E+02  0.15310858817E+03  0.15707830761E+03  0.00000000000E+00 0.  1.
</event>
<event>
 4    1  0.3080871E+006  0.2060011E+02  0.7546771E-02  0.1525052E+00
         21   -1    0    0  503  501  0.00000000000E+00  0.00000000000E+00  0.80784054247E+01  0.80784054247E+01  0.00000000000E+00 0.  1.
         21   -1    0    0  504  502 -0.00000000000E+00 -0.00000000000E+00 -0.53083783070E+02  0.53083783070E+02  0.00000000000E+00 0.  1.
         21    1    1    2  503  502 -0.23667948716E+01  0.20463690719E+02 -0.25624194734E+02  0.32878012585E+02  0.00000000000E+00 0.  1.
         21    1    1    2  504  501  0.23667948716E+01 -0.20463690719E+02 -0.19381182912E+02  0.28284175910E+02  0.00000000000E+00 0.  1.
</event>
<event>
 4    1  0.3080871E+006  0.2569023E+02  0.7546771E-02  0.1461228E+00
         21   -1    0    0  502  501  0.00000000000E+00  0.00000000000E+00  0.21833546604E+02  0.21833546604E+02  0.00000000000E+00 0.  1.
         21   -1    0    0  504  502 -0.00000000000E+00 -0.00000000000E+00 -0.30236447153E+02  0.30236447153E+02  0.00000000000E+00 0.  1.
         21    1    1    2  503  501 -0.17916925806E+02  0.18411183165E+02 -0.37703801676E+01  0.25965432068E+02  0.00000000000E+00 0.  1.
         21    1    1    2  504  503  0.17916925806E+02 -0.18411183165E+02 -0.46325203816E+01  0.26104561689E+02  0.00000000000E+00 0.  1.
</event>
<event>
 4    1  0.3080871E+006  0.3055327E+02  0.7546771E-02  0.1414848E+00
         21   -1    0    0  504  501  0.00000000000E+00  0.00000000000E+00  0.44412529330E+03  0.44412529330E+03  0.00000000000E+00 0.  1.
         21   -1    0    0  503  502 -0.00000000000E+00 -0.00000000000E+00 -0.19309229348E+02  0.19309229348E+02  0.00000000000E+00 0. -1.
         21    1    1    2  503  501  0.22351612510E+02  0.20830454202E+02  0.43115033553E+03  0.43223155163E+03  0.00000000000E+00 0.  1.
         21    1    1    2  504  502 -0.22351612510E+02 -0.20830454202E+02 -0.63342715704E+01  0.31202971018E+02  0.00000000000E+00 0. -1.
</event>
<event>
 4    1  0.3080871E+006  0.2339332E+02  0.7546771E-02  0.1487617E+00
         21   -1    0    0  502  501  0.00000000000E+00  0.00000000000E+00  0.35926226438E+02  0.35926226438E+02  0.00000000000E+00 0.  1.
         21   -1    0    0  504  502 -0.00000000000E+00 -0.00000000000E+00 -0.93540921301E+03  0.93540921301E+03  0.00000000000E+00 0. -1.
         21    1    1    2  503  501  0.23228590755E+02 -0.27713098202E+01  0.31955602109E+02  0.39603132360E+02  0.00000000000E+00 0.  1.
         21    1    1    2  504  503 -0.23228590755E+02  0.27713098202E+01 -0.93143858868E+03  0.93173230709E+03  0.00000000000E+00 0. -1.
</event>
<event>
 4    1  0.3080871E+006  0.2231238E+02  0.7546771E-02  0.1501318E+00
         21   -1    0    0  502  501  0.00000000000E+00  0.00000000000E+00  0.14052875396E+03  0.14052875396E+03  0.00000000000E+00 0. -1.
         21   -1    0    0  503  502 -0.00000000000E+00 -0.00000000000E+00 -0.81825667263E+02  0.81825667263E+02  0.00000000000E+00 0.  1.
         21    1    1    2  503  504  0.14155117598E+02  0.17247467524E+02 -0.79392332366E+02  0.82468084304E+02  0.00000000000E+00 0.  1.
         21    1    1    2  504  501 -0.14155117598E+02 -0.17247467524E+02  0.13809541906E+03  0.13988633692E+03  0.00000000000E+00 0. -1.
</event>
<event>
 4    1  0.3080871E+006  0.2301725E+02  0.7546771E-02  0.1492282E+00
         21   -1    0    0  504  501  0.00000000000E+00  0.00000000000E+00  0.15370107023E+02  0.15370107023E+02  0.00000000000E+00 0. -1.
         21   -1    0    0  503  502 -0.00000000000E+00 -0.00000000000E+00 -0.11168954654E+03  0.11168954654E+03  0.00000000000E+00 0. -1.
         21    1    1    2  503  501 -0.13814347217E+02 -0.18410797073E+02  0.46650464082E+01  0.23485235700E+02  0.00000000000E+00 0. -1.
         21    1    1    2  504  502  0.13814347217E+02  0.18410797073E+02 -0.10098448592E+03  0.10357441786E+03  0.00000000000E+00 0. -1.
</event>
<event>
 4    1  0.3080871E+006  0.2286371E+02  0.7546771E-02  0.1494217E+00
         21   -1    0    0  503  501  0.00000000000E+00  0.00000000000E+00  0.98966630772E+01  0.98966630772E+01  0.00000000000E+00 0. -1.
         21   -1    0    0  501  502 -0.00000000000E+00 -0.00000000000E+00 -0.53554849229E+02  0.53554849229E+02  0.00000000000E+00 0. -1.
         21    1    1    2  503  504  0.15994125969E+02 -0.16338214700E+02 -0.18114722616E+02  0.29170061717E+02  0.00000000000E+00 0. -1.
         21    1    1    2  504  502 -0.15994125969E+02  0.16338214700E+02 -0.25543463536E+02  0.34281450590E+02  0.00000000000E+00 0. -1.
</event>
<event>
 4    1  0.3080871E+006  0.2094965E+02  0.7546771E-02  0.1519985E+00
         21   -1    0    0  503  501  0.00000000000E+00  0.00000000000E+00  0.19246878020E+03  0.19246878020E+03  0.00000000000E+00 0. -1.
         21   -1    0    0  504  502 -0.00000000000E+00 -0.00000000000E+00 -0.52541020670E+02  0.52541020670E+02  0.00000000000E+00 0.  1.
         21    1    1    2  503  502 -0.17758402594E+02  0.11114259578E+02  0.18978090718E+03  0.19093370671E+03  0.00000000000E+00 0. -1.
         21    1    1    2  504  501  0.17758402594E+02 -0.11114259578E+02 -0.49853147650E+02  0.54076094158E+02  0.00000000000E+00 0.  1.
</event>
<event>
 4    1  0.3080871E+006  0.2195519E+02  0.7546771E-02  0.1506052E+00
         21   -1    0    0  503  501  0.00000000000E+00  0.00000000000E+00  0.62947857570E+02  0.62947857570E+02  0.00000000000E+00 0. -1.
         21   -1    0    0  504  502 -0.00000000000E+00 -0.00000000000E+00 -0.28436825256E+03  0.28436825256E+03  0.00000000000E+00 0.  1.
         21    1    1    2  503  502  0.52709175134E+01  0.21313093459E+02 -0.28201411891E+03  0.28286744915E+03  0.00000000000E+00 0.  1.
         21    1    1    2  504  501 -0.52709175134E+01 -0.21313093459E+02  0.60593723918E+02  0.64448660982E+02  0.00000000000E+00 0. -1.
</event>
<event>
 4    1  0.3080871E+006  0.2027648E+02  0.7546771E-02  0.1529850E+00
         21   -1    0    0  503  501  0.00000000000E+00  0.00000000000E+00  0.13106639986E+03  0.13106639986E+03  0.00000000000E+00 0.  1.
         21   -1    0    0  504  502 -0.00000000000E+00 -0.00000000000E+00 -0.33997878200E+01  0.33997878200E+01  0.00000000000E+00 0.  1.
         21    1    1    2  503  502  0.60236631936E+01 -0.19361073880E+02  0.82530796367E+02  0.84985104866E+02  0.00000000000E+00 0.  1.
         21    1    1    2  504  501 -0.60236631936E+01  0.19361073880E+02  0.45135815675E+02  0.49481082817E+02  0.00000000000E+00 0.  1.
</event>
<event>
 4    1  0.3080871E+006  0.2219602E+02  0.7546771E-02  0.1502848E+00
         21   -1    0    0  503  501  0.00000000000E+00  0.00000000000E+00  0.86997822017E+02  0.86997822017E+02  0.00000000000E+00 0.  1.
         21   -1    0    0  501  502 -0.00000000000E+00 -0.00000000000E+00 -0.44584851536E+02  0.44584851536E+02  0.00000000000E+00 0.  1.
         21    1    1    2  503  504 -0.21754108761E+02 -0.44070481921E+01  0.82677748318E+02  0.85605335048E+02  0.00000000000E+00 0.  1.
         21    1    1    2  504  502  0.21754108761E+02  0.44070481921E+01 -0.40264777837E+02  0.45977338505E+02  0.00000000000E+00 0.  1.
</event>
<event>
 4    1  0.3080871E+006  0.2567331E+02  0.7546771E-02  0.1461410E+00
         21   -1    0    0  503  501  0.00000000000E+00  0.00000000000E+00  0.27656775262E+03  0.27656775262E+03  0.00000000000E+00 0.  1.
         21   -1    0    0  504  502 -0.00000000000E+00 -0.00000000000E+00 -0.23832166439E+01  0.23832166439E+01  0.00000000000E+00 0.  1.
         21    1    1    2  503  502  0.20335254855E+02 -0.15671515868E+02  0.13685723823E+03  0.13924447082E+03  0.00000000000E+00 0.  1.
         21    1    1    2  504  501 -0.20335254855E+02  0.15671515868E+02  0.13732729775E+03  0.13970649844E+03  0.00000000000E+00 0.  1.
</event>
<event>
 4    1  0.3080871E+006  0.2845306E+02  0.7546771E-02  0.1433534E+00
         21   -1    0    0  502  501  0.00000000000E+00  0.00000000000E+00  0.13243061268E+01  0.13243061268E+01  0.00000000000E+00 0. -1.
         21   -1    0    0  503  502 -0.00000000000E+00 -0.00000000000E+00 -0.76203892005E+03  0.76203892005E+03  0.00000000000E+00 0. -1.
         21    1    1    2  503  504 -0.13202563209E+02 -0.25204543853E+02 -0.55010133310E+03  0.55083668486E+03  0.00000000000E+00 0. -1.
         21    1    1    2  504  501  0.13202563209E+02  0.25204543853E+02 -0.21061328083E+03  0.21252654132E+03  0.00000000000E+00 0. -1.
</event>
<event>
 4    1  0.3080871E+006  0.2262019E+02  0.7546771E-02  0.1497323E+00
         21   -1    0    0  504  501  0.00000000000E+00  0.00000000000E+00  0.82374162446E+00  0.82374162446E+00  0.00000000000E+00 0. -1.
         21   -1    0    0  503  502 -0.00000000000E+00 -0.00000000000E+00 -0.11347011135E+04  0.11347011135E+04  0.00000000000E+00 0. -1.
         21    1    1    2  503  501  0.14877691459E+02  0.17038992145E+02 -0.18498144712E+03  0.18635935376E+03  0.00000000000E+00 0. -1.
         21    1    1    2  504  502 -0.14877691459E+02 -0.17038992145E+02 -0.94889592476E+03  0.94916550136E+03  0.00000000000E+00 0. -1.
</event>
<event>
 4    1  0.3080871E+006  0.2622588E+02  0.7546771E-02  0.1455543E+00
         21   -1    0    0  503  501  0.00000000000E+00  0.00000000000E+00  0.72892368674E+02  0.72892368674E+02  0.00000000000E+00 0. -1.
         21   -1    0    0  501  502 -0.00000000000E+00 -0.00000000000E+00 -0.10331470494E+02  0.10331470494E+02  0.00000000000E+00 0. -1.
         21    1    1    2  503  504  0.25159951659E+02 -0.74009066027E+01  0.19028226080E+02  0.32401697082E+02  0.00000000000E+00 0. -1.
         21    1    1    2  504  502 -0.25159951659E+02  0.74009066027E+01  0.43532672100E+02  0.50822142086E+02  0.00000000000E+00 0. -1.
</event>
<event>
 4    1  0.3080871E+006  0.2188470E+02  0.7546771E-02  0.1506999E+00
         21   -1    0    0  504  501  0.00000000000E+00  0.00000000000E+00  0.24333350014E+02  0.24333350014E+02  0.00000000000E+00 0. -1.
         21   -1    0    0  503  502 -0.00000000000E+00 -0.00000000000E+00 -0.56268798598E+02  0.56268798598E+02  0.00000000000E+00 0. -1.
         21    1    1    2  503  501  0.21813194698E+02  0.17676711340E+01  0.16529202520E+02  0.27425438194E+02  0.00000000000E+00 0. -1.
         21    1    1    2  504  502 -0.21813194698E+02 -0.17676711340E+01 -0.48464651104E+02  0.53176710418E+02  0.00000000000E+00 0. -1.
</event>
<event>
 4    1  0.3080871E+006  0.2317007E+02  0.7546771E-02  0.1490374E+00
         21   -1    0    0  503  501  0.00000000000E+00  0.00000000000E+00  0.19856231537E+03  0.19856231537E+03  0.00000000000E+00 0. -1.
         21   -1    0    0  504  502 -0.00000000000E+00 -0.00000000000E+00 -0.32744842602E+02  0.32744842602E+02  0.00000000000E+00 0. -1.
         21    1    1    2  503  502  0.22428661641E+02  0.58144136202E+01 -0.27867312502E+02  0.36241404151E+02  0.00000000000E+00 0. -1.
         21    1    1    2  504  501 -0.22428661641E+02 -0.58144136202E+01  0.19368478527E+03  0.19506575382E+03  0.00000000000E+00 0. -1.
</event>
<event>
 4    1  0.3080871E+006  0.2162900E+02  0.7546771E-02  0.1510471E+00
         21   -1    0    0  502  501  0.00000000000E+00  0.00000000000E+00  0.93242429843E+01  0.93242429843E+01  0.00000000000E+00 0. -1.
         21   -1    0    0  504  502 -0.00000000000E+00 -0.00000000000E+00 -0.87790668445E+02  0.87790668445E+02  0.00000000000E+00 0. -1.
         21    1    1    2  503  501 -0.28473808878E+01  0.21440755206E+02 -0.74472833808E+01  0.22875217845E+02  0.00000000000E+00 0. -1.
         21    1    1    2  504  503  0.28473808878E+01 -0.21440755206E+02 -0.71019142080E+02  0.74239693584E+02  0.00000000000E+00 0. -1.
</event>
<event>
 4    1  0.3080871E+006  0.2395676E+02  0.7546771E-02  0.1480821E+00
         21   -1    0    0  503  501  0.00000000000E+00  0.00000000000E+00  0.59528082507E+01  0.59528082507E+01  0.00000000000E+00 0.  1.
         21   -1    0    0  504  502 -0.00000000000E+00 -0.00000000000E+00 -0.97969410030E+02  0.97969410030E+02  0.00000000000E+00 0.  1.
         21    1    1    2  503  502 -0.10243683379E+02 -0.21656255710E+02 -0.39458416386E+02  0.46161597505E+02  0.00000000000E+00 0.  1.
         21    1    1    2  504  501  0.10243683379E+02  0.21656255710E+02 -0.52558185393E+02  0.57760620775E+02  0.00000000000E+00 0.  1.
</event>
<event>
 4    1  0.3080871E+006  0.2296299E+02  0.7546771E-02  0.1492963E+00
         21   -1    0    0  503  501  0.00000000000E+00  0.00000000000E+00  0.53900175822E+02  0.53900175822E+02  0.00000000000E+00 0. -1.
         21   -1    0    0  504  502 -0.00000000000E+00 -0.00000000000E+00 -0.37359604105E+02  0.37359604105E+02  0.00000000000E+00 0.  1.
         21    1    1    2  503  502 -0.20474347195E+02  0.10397125000E+02 -0.30932741355E+02  0.38524454429E+02  0.00000000000E+00 0.  1.
         21    1    1    2  504  501  0.20474347195E+02 -0.10397125000E+02  0.47473313072E+02  0.52735325498E+02  0.00000000000E+00 0. -1.
</event>
<event>
 4    1  0.3080871E+006  0.2546251E+02  0.7546771E-02  0.1463695E+00
         21   -1    0    0  503  501  0.00000000000E+00  0.00000000000E+00  0.11575200080E+03  0.11575200080E+03  0.00000000000E+00 0. -1.
         21   -1    0    0  501  502 -0.00000000000E+00 -0.00000000000E+00 -0.15527698004E+03  0.15527698004E+03  0.00000000000E+00 0. -1.
         21    1    1    2  503  504 -0.24084492639E+02  0.82629538318E+01  0.11328543370E+03  0.11611170777E+03  0.00000000000E+00 0. -1.
         21    1    1    2  504  502  0.24084492639E+02 -0.82629538318E+01 -0.15281041294E+03  0.15491727307E+03  0.00000000000E+00 0. -1.
</event>
<event>
 4    1  0.3080871E+006  0.2615255E+02  0.7546771E-02  0.1456312E+00
         21   -1    0    0  502  501  0.00000000000E+00  0.00000000000E+00  0.12258995110E+03  0.12258995110E+03  0.00000000000E+00 0. -1.
         21   -1    0    0  504  502 -0.00000000000E+00 -0.00000000000E+00 -0.12995764641E+02  0.12995764641E+02  0.00000000000E+00 0.  1.
         21    1    1    2  503  501  0.25653691263E+02 -0.50836794360E+01  0.10601053730E+03  0.10918878006E+03  0.00000000000E+00 0. -1.
         21    1    1    2  504  503 -0.25653691263E+02  0.50836794360E+01  0.35836491558E+01  0.26396935680E+02  0.00000000000E+00 0.  1.
</event>
<event>
 4    1  0.3080871E+006  0.2213341E+02  0.7546771E-02  0.1503676E+00
         21   -1    0    0  504  501  0.00000000000E+00  0.00000000000E+00  0.17728892567E+01  0.17728892567E+01  0.00000000000E+00 0. -1.
         21   -1    0    0  503  502 -0.00000000000E+00 -0.00000000000E+00 -0.40723677830E+03  0.40723677830E+03  0.00000000000E+00 0. -1.
         21    1    1    2  503  501  0.21802414946E+02 -0.38134660481E+01 -0.86780844886E+02  0.89558935121E+02  0.00000000000E+00 0. -1.
         21    1    1    2  504  502 -0.21802414946E+02  0.38134660481E+01 -0.31868304415E+03  0.31945073243E+03  0.00000000000E+00 0. -1.
</event>
<event>
 4    1  0.3080871E+006  0.2632142E+02  0.7546771E-02  0.1454546E+00
         21   -1    0    0  504  501  0.00000000000E+00  0.00000000000E+00  0.25466732280E+01  0.25466732280E+01  0.00000000000E+00 0. -1.
         21   -1    0    0  503  502 -0.00000000000E+00 -0.00000000000E+00 -0.43582039014E+03  0.43582039014E+03  0.00000000000E+00 0. -1.
         21    1    1    2  503  501 -0.24022916476E+02 -0.10757168880E+02 -0.35099827528E+03  0.35198381560E+03  0.00000000000E+00 0. -1.
         21    1    1    2  504  502  0.24022916476E+02  0.10757168880E+02 -0.82275441629E+02  0.86383247760E+02  0.00000000000E+00 0. -1.
</event>
<event>
 4    1  0.3080871E+006  0.2127925E+02  0.7546771E-02  0.1515315E+00
         21   -1    0    0  504  501  0.00000000000E+00  0.00000000000E+00  0.44516611569E+02  0.44516611569E+02  0.00000000000E+00 0.  1.
         21   -1    0    0  503  502 -0.00000000000E+00 -0.00000000000E+00 -0.11227791353E+03  0.11227791353E+03  0.00000000000E+00 0. -1.
         21    1    1    2  503  501  0.11124079227E+02  0.18140043763E+02  0.40881187823E+02  0.46087719017E+02  0.00000000000E+00 0.  1.
         21    1    1    2  504  502 -0.11124079227E+02 -0.18140043763E+02 -0.10864248979E+03  0.11070680609E+03  0.00000000000E+00 0. -1.
</event>
<event>
 4    1  0.3080871E+006  0.2104066E+02  0.7546771E-02  0.1518685E+00
         21   -1    0    0  503  501  0.00000000000E+00  0.00000000000E+00  0.20523640239E+03  0.20523640239E+03  0.00000000000E+00 0. -1.
         21   -1    0    0  501  502 -0.00000000000E+00 -0.00000000000E+00 -0.15579465655E+02  0.15579465655E+02  0.00000000000E+00 0.  1.
         21    1    1    2  503  504  0.57565963696E+01 -0.20237857245E+02  0.19730844648E+03  0.19842714613E+03  0.00000000000E+00 0. -1.
         21    1    1    2  504  502 -0.57565963696E+01  0.20237857245E+02 -0.76515097473E+01  0.22388721916E+02  0.00000000000E+00 0.  1.
</event>
<event>
 4    1  0.3080871E+006  0.2359636E+02  0.7546771E-02  0.1485142E+00
         21   -1    0    0  503  501  0.00000000000E+00  0.00000000000E+00  0.26289374829E+01  0.26289374829E+01  0.00000000000E+00 0. -1.
         21   -1    0    0  501  502 -0.00000000000E+00 -0.00000000000E+00 -0.39243054395E+03  0.39243054395E+03  0.00000000000E+00 0.  1.
         21    1    1    2  503  504  0.76138891096E+01 -0.22334213830E+02 -0.60884979044E+02  0.65297542741E+02  0.00000000000E+00 0. -1.
         21    1    1    2  504  502 -0.76138891096E+01  0.22334213830E+02 -0.32891662743E+03  0.32976193870E+03  0.00000000000E+00 0.  1.
</event>
<event>
 4    1  0.3080871E+006  0.2768007E+02  0.7546771E-02  0.1440894E+00
         21   -1    0    0  504  501  0.00000000000E+00  0.00000000000E+00  0.23316387156E+02  0.23316387156E+02  0.00000000000E+00 0. -1.
         21   -1    0    0  503  502 -0.00000000000E+00 -0.00000000000E+00 -0.48294607201E+02  0.48294607201E+02  0.00000000000E+00 0. -1.
         21    1    1    2  503  501  0.25650473175E+02 -0.10403834162E+02 -0.32730582932E+02  0.42865809200E+02  0.00000000000E+00 0. -1.
         21    1    1    2  504  502 -0.25650473175E+02  0.10403834162E+02  0.77523628866E+01  0.28745185157E+02  0.00000000000E+00 0. -1.
</event>
<event>
 4    1  0.3080871E+006  0.2028606E+02  0.7546771E-02  0.1529707E+00
         21   -1    0    0  504  501  0.00000000000E+00  0.00000000000E+00  0.20454067418E+02  0.20454067418E+02  0.00000000000E+00 0.  1.
         21   -1    0    0  503  502 -0.00000000000E+00 -0.00000000000E+00 -0.20426483160E+02  0.20426483160E+02  0.00000000000E+00 0.  1.
         21    1    1    2  503  501  0.19727480458E+02 -0.47276497941E+01  0.25198864447E+01  0.20441966282E+02  0.00000000000E+00 0.  1.
         21    1    1    2  504  502 -0.19727480458E+02  0.47276497941E+01 -0.24923021870E+01  0.20438584295E+02  0.00000000000E+00 0.  1.
</event>
<event>
 4    1  0.3080871E+006  0.2168418E+02  0.7546771E-02  0.1509717E+00
         21   -1    0    0  503  501  0.00000000000E+00  0.00000000000E+00  0.13902151075E+03  0.13902151075E+03  0.00000000000E+00 0.  1.
         21   -1    0    0  504  502 -0.00000000000E+00 -0.00000000000E+00 -0.34415366093E+01  0.34415366093E+01  0.00000000000E+00 0.  1.
         21    1    1    2  503  502  0.39755989593E+01 -0.21316615377E+02  0.77140334069E+02  0.80130110561E+02  0.00000000000E+00 0.  1.
         21    1    1    2  504  501 -0.39755989593E+01  0.21316615377E+02  0.58439640073E+02  0.62332936800E+02  0.00000000000E+00 0.  1.
</event>
<event>
 4    1  0.3080871E+006  0.4106836E+02  0.7546771E-02  0.1342336E+00
         21   -1    0    0  504  501  0.00000000000E+00  0.00000000000E+00  0.33067130503E+02  0.33067130503E+02  0.00000000000E+00 0. -1.
         21   -1    0    0  503  502 -0.00000000000E+00 -0.00000000000E+00 -0.68278632343E+02  0.68278632343E+02  0.00000000000E+00 0. -1.
         21    1    1    2  503  501  0.33264743219E+02 -0.24084575021E+02 -0.43092654875E+02  0.59528033728E+02  0.00000000000E+00 0. -1.
         21    1    1    2  504  502 -0.33264743219E+02  0.24084575021E+02  0.78811530356E+01  0.41817729118E+02  0.00000000000E+00 0. -1.
</event>
<event>
 4    1  0.3080871E+006  0.2093828E+02  0.7546771E-02  0.1520148E+00
         21   -1    0    0  504  501  0.00000000000E+00  0.00000000000E+00  0.13447919610E+03  0.13447919610E+03  0.00000000000E+00 0.  1.
         21   -1    0    0  503  502 -0.00000000000E+00 -0.00000000000E+00 -0.83502094106E+01  0.83502094106E+01  0.00000000000E+00 0.  1.
         21    1    1    2  503  501 -0.13968282534E+02 -0.15598035121E+02  0.73069307779E+01  0.22176628553E+02  0.00000000000E+00 0.  1.
         21    1    1    2  504  502  0.13968282534E+02  0.15598035121E+02  0.11882205591E+03  0.12065277696E+03  0.00000000000E+00 0.  1.
</event>
<event>
 4    1  0.3080871E+006  0.2294612E+02  0.7546771E-02  0.1493176E+00
         21   -1    0    0  502  501  0.00000000000E+00  0.00000000000E+00  0.13736271465E+03  0.13736271465E+03  0.00000000000E+00 0. -1.
         21   -1    0    0  504  502 -0.00000000000E+00 -0.00000000000E+00 -0.25386141792E+02  0.25386141792E+02  0.00000000000E+00 0.  1.
         21    1    1    2  503  501 -0.83872192852E+00  0.22930788714E+02  0.13096802489E+03  0.13296295751E+03  0.00000000000E+00 0. -1.
         21    1    1    2  504  503  0.83872192852E+00 -0.22930788714E+02 -0.18991452028E+02  0.29785898940E+02  0.00000000000E+00 0.  1.
</event>
<event>
 4    1  0.3080871E+006  0.2632211E+02  0.7546771E-02  0.1454539E+00
         21   -1    0    0  503  501  0.00000000000E+00  0.00000000000E+00  0.31966114291E+03  0.31966114291E+03  0.00000000000E+00 0. -1.
         21   -1    0    0  504  502 -0.00000000000E+00 -0.00000000000E+00 -0.47520963340E+01  0.47520963340E+01  0.00000000000E+00 0. -1.
         21    1    1    2  503  502 -0.11078589430E+02 -0.23877146179E+02  0.27708051292E+03  0.27832797900E+03  0.00000000000E+00 0. -1.
         21    1    1    2  504  501  0.11078589430E+02  0.23877146179E+02  0.37828533661E+02  0.46085260251E+02  0.00000000000E+00 0. -1.
</event>
<event>
 4    1  0.3080871E+006  0.2463529E+02  0.7546771E-02  0.1472925E+00
         21   -1    0    0  502  501  0.00000000000E+00  0.00000000000E+00  0.28808316714E+02  0.28808316714E+02  0.00000000000E+00 0.  1.
         21   -1    0    0  503  502 -0.00000000000E+00 -0.00000000000E+00 -0.17930659722E+03  0.17930659722E+03  0.00000000000E+00 0.  1.
         21    1    1    2  503  504 -0.23536808291E+02 -0.72743550397E+01 -0.17300279470E+03  0.17474800302E+03  0.00000000000E+00 0.  1.
         21    1    1    2  504  501  0.23536808291E+02  0.72743550397E+01  0.22504514185E+02  0.33366910922E+02  0.00000000000E+00 0.  1.
</event>
<event>
 4    1  0.3080871E+006  0.2012586E+02  0.7546771E-02  0.1532120E+00
         21   -1    0    0  504  501  0.00000000000E+00  0.00000000000E+00  0.19716218927E+01  0.19716218927E+01  0.00000000000E+00 0.  1.
         21   -1    0    0  503  502 -0.00000000000E+00 -0.00000000000E+00 -0.27110469490E+03  0.27110469490E+03  0.00000000000E+00 0.  1.
         21    1    1    2  503  501 -0.12594421914E+02  0.15698115546E+02 -0.20176370830E+03  0.20276499768E+03  0.00000000000E+00 0.  1.
         21    1    1    2  504  502  0.12594421914E+02 -0.15698115546E+02 -0.67369364707E+02  0.70311319118E+02  0.00000000000E+00 0.  1.
</event>
<event>
 4    1  0.3080871E+006  0.4582741E+02  0.7546771E-02  0.1317353E+00
         21   -1    0    0  504  501  0.00000000000E+00  0.00000000000E+00  0.39634838113E+03  0.39634838113E+03  0.00000000000E+00 0.  1.
         21   -1    0    0  503  502 -0.00000000000E+00 -0.00000000000E+00 -0.32199620869E+02  0.32199620869E+02  0.00000000000E+00 0.  1.
         21    1    1    2  503  501  0.35820073421E+02 -0.28584497754E+02  0.37792604422E+03  0.38069442611E+03  0.00000000000E+00 0.  1.
         21    1    1    2  504  502 -0.35820073421E+02  0.28584497754E+02 -0.13777283961E+02  0.47853575886E+02  0.00000000000E+00 0.  1.
</event>
<event>
 4    1  0.3080871E+006  0.5093892E+02  0.7546771E-02  0.1294152E+00
         21   -1    0    0  504  501  0.00000000000E+00  0.00000000000E+00  0.41607947212E+03  0.41607947212E+03  0.00000000000E+00 0.  1.
         21   -1    0    0  503  502 -0.00000000000E+00 -0.00000000000E+00 -0.42947780074E+02  0.42947780074E+02  0.00000000000E+00 0.  1.
         21    1    1    2  503  501 -0.48425084664E+02  0.15804588290E+02 -0.25631223616E+02  0.57023972677E+02  0.00000000000E+00 0.  1.
         21    1    1    2  504  502  0.48425084664E+02 -0.15804588290E+02  0.39876291566E+03  0.40200327952E+03  0.00000000000E+00 0.  1.
</event>
<event>
 4    1  0.3080871E+006  0.2015661E+02  0.7546771E-02  0.1531655E+00
         21   -1    0    0  503  501  0.00000000000E+00  0.00000000000E+00  0.74860251674E+02  0.74860251674E+02  0.00000000000E+00 0. -1.
         21   -1    0    0  504  502 -0.00000000000E+00 -0.00000000000E+00 -0.12101688847E+02  0.12101688847E+02  0.00000000000E+00 0. -1.
         21    1    1    2  503  502  0.13503039206E+02 -0.14965188647E+02 -0.91175865134E+00  0.20177220890E+02  0.00000000000E+00 0. -1.
         21    1    1    2  504  501 -0.13503039206E+02  0.14965188647E+02  0.63670321478E+02  0.66784719630E+02  0.00000000000E+00 0. -1.
</event>
<event>
 4    1  0.3080871E+006  0.2319051E+02  0.7546771E-02  0.1490120E+00
         21   -1    0    0  502  501  0.00000000000E+00  0.00000000000E+00  0.26691092363E+02  0.26691092363E+02  0.00000000000E+00 0.  1.
         21   -1    0    0  504  502 -0.00000000000E+00 -0.00000000000E+00 -0.57130320115E+02  0.57130320115E+02  0.00000000000E+00 0.  1.
         21    1    1    2  503  501 -0.75418683864E+01 -0.21929892135E+02  0.18500001125E+02  0.29665636509E+02  0.00000000000E+00 0.  1.
         21    1    1    2  504  503  0.75418683864E+01  0.21929892135E+02 -0.48939228877E+02  0.54155775970E+02  0.00000000000E+00 0.  1.
</event>
<event>
 4    1  0.3080871E+006  0.2386977E+02  0.7546771E-02  0.1481856E+00
         21   -1    0    0  504  501  0.00000000000E+00  0.00000000000E+00  0.57056059358E+03  0.57056059358E+03  0.00000000000E+00 0. -1.
         21   -1    0    0  503  502 -0.00000000000E+00 -0.00000000000E+00 -0.37928764210E+02  0.37928764210E+02  0.00000000000E+00 0.  1.
         21    1    1    2  503  501  0.22000500296E+02  0.92597972119E+01 -0.33896897431E+02  0.41457996974E+02  0.00000000000E+00 0.  1.
         21    1    1    2  504  502 -0.22000500296E+02 -0.92597972119E+01  0.56652872680E+03  0.56703136082E+03  0.00000000000E+00 0. -1.
</event>
<event>
 4    1  0.3080871E+006  0.2303923E+02  0.7546771E-02  0.1492006E+00
         21   -1    0    0  504  501  0.00000000000E+00  0.00000000000E+00  0.35626919874E+03  0.35626919874E+03  0.00000000000E+00 0.  1.
         21   -1    0    0  501  502 -0.00000000000E+00 -0.00000000000E+00 -0.15221399589E+01  0.15221399589E+01  0.00000000000E+00 0.  1.
         21    1    1    2  503  502  0.22865731486E+02 -0.28221608793E+01  0.15133869302E+03  0.15308235128E+03  0.00000000000E+00 0.  1.
         21    1    1    2  504  503 -0.22865731486E+02  0.28221608793E+01  0.20340836575E+03  0.20470898741E+03  0.00000000000E+00 0.  1.
</event>
<event>
 4    1  0.3080871E+006  0.3210897E+02  0.7546771E-02  0.1402113E+00
         21   -1    0    0  504  501  0.00000000000E+00  0.00000000000E+00  0.60482460970E+02  0.60482460970E+02  0.00000000000E+00 0. -1.
         21   -1    0    0  501  502 -0.00000000000E+00 -0.00000000000E+00 -0.15398953952E+03  0.15398953952E+03  0.00000000000E+00 0. -1.
         21    1    1    2  503  502  0.15561032688E+02 -0.28086296610E+02 -0.14788021354E+03  0.15132595069E+03  0.00000000000E+00 0. -1.
         21    1    1    2  504  503 -0.15561032688E+02  0.28086296610E+02  0.54373134995E+02  0.63146049796E+02  0.00000000000E+00 0. -1.
</event>
<event>
 4    1  0.3080871E+006  0.2582288E+02  0.7546771E-02  0.1459805E+00
         21   -1    0    0  503  501  0.00000000000E+00  0.00000000000E+00  0.12555483303E+04  0.12555483303E+04  0.00000000000E+00 0. -1.
         21   -1    0    0  504  502 -0.00000000000E+00 -0.00000000000E+00 -0.11285315171E+01  0.11285315171E+01  0.00000000000E+00 0.  1.
         21    1    1    2  503  502 -0.20458682508E+02  0.15756383867E+02  0.17003649644E+03  0.17198613736E+03  0.00000000000E+00 0.  1.
         21    1    1    2  504  501  0.20458682508E+02 -0.15756383867E+02  0.10843833024E+04  0.10846907245E+04  0.00000000000E+00 0. -1.
</event>
<event>
 4    1  0.3080871E+006  0.2140183E+02  0.7546771E-02  0.1513604E+00
         21   -1    0    0  504  501  0.00000000000E+00  0.00000000000E+00  0.50109134184E+03  0.50109134184E+03  0.00000000000E+00 0.  1.
         21   -1    0    0  503  502 -0.00000000000E+00 -0.00000000000E+00 -0.18004956631E+02  0.18004956631E+02  0.00000000000E+00 0.  1.
         21    1    1    2  503  501 -0.19637900005E+02 -0.85083037847E+01 -0.11330730651E+02  0.24216188944E+02  0.00000000000E+00 0.  1.
         21    1    1    2  504  502  0.19637900005E+02  0.85083037847E+01  0.49441711586E+03  0.49488010953E+03  0.00000000000E+00 0.  1.
</event>
<event>
 4    1  0.3080871E+006  0.2209524E+02  0.7546771E-02  0.1504183E+00
         21   -1    0    0  504  501  0.00000000000E+00  0.00000000000E+00  0.41152645874E+01  0.41152645874E+01  0.00000000000E+00 0.  1.
         21   -1    0    0  503  502 -0.00000000000E+00 -0.00000000000E+00 -0.20111407309E+03  0.20111407309E+03  0.00000000000E+00 0.  1.
         21    1    1    2  503  501  0.81455327047E+01 -0.20538982637E+02 -0.32783628758E+02  0.39534362590E+02  0.00000000000E+00 0.  1.
         21    1    1    2  504  502 -0.81455327047E+01  0.20538982637E+02 -0.16421517974E+03  0.16569497509E+03  0.00000000000E+00 0.  1.
</event>
<event>
 4    1  0.3080871E+006  0.2134064E+02  0.7546771E-02  0.1514457E+00
         21   -1    0    0  504  501  0.00000000000E+00  0.00000000000E+00  0.10230638858E+02  0.10230638858E+02  0.00000000000E+00 0. -1.
         21   -1    0    0  503  502 -0.00000000000E+00 -0.00000000000E+00 -0.10453190314E+03  0.10453190314E+03  0.00000000000E+00 0.  1.
         21    1    1    2  503  501 -0.17096767113E+02 -0.12771980481E+02 -0.36715478230E+01  0.21654172682E+02  0.00000000000E+00 0. -1.
         21    1    1    2  504  502  0.17096767113E+02  0.12771980481E+02 -0.90629716460E+02  0.93108369316E+02  0.00000000000E+00 0.  1.
</event>
<event>
 4    1  0.3080871E+006  0.2049465E+02  0.7546771E-02  0.1526604E+00
         21   -1    0    0  502  501  0.00000000000E+00  0.00000000000E+00  0.15337626068E+02  0.15337626068E+02  0.00000000000E+00 0. -1.
         21   -1    0    0  503  502 -0.00000000000E+00 -0.00000000000E+00 -0.74341176436E+02  0.74341176436E+02  0.00000000000E+00 0. -1.
         21    1    1    2  503  504  0.19318935922E+02 -0.68417451638E+01 -0.65137736297E+02  0.68285836393E+02  0.00000000000E+00 0. -1.
         21    1    1    2  504  501 -0.19318935922E+02  0.68417451638E+01  0.61341859284E+01  0.21392966111E+02  0.00000000000E+00 0. -1.
</event>
<event>
 4    1  0.3080871E+006  0.2988861E+02  0.7546771E-02  0.1420567E+00
         21   -1    0    0  503  501  0.00000000000E+00  0.00000000000E+00  0.20936402768E+03  0.20936402768E+03  0.00000000000E+00 0. -1.
         21   -1    0    0  504  502 -0.00000000000E+00 -0.00000000000E+00 -0.17620984623E+02  0.17620984623E+02  0.00000000000E+00 0.  1.
         21    1    1    2  503  502 -0.28227370987E+02  0.98257229925E+01  0.19467213316E+03  0.19695321459E+03  0.00000000000E+00 0. -1.
         21    1    1    2  504  501  0.28227370987E+02 -0.98257229925E+01 -0.29290901087E+01  0.30031797715E+02  0.00000000000E+00 0.  1.
</event>
<event>
 4    1  0.3080871E+006  0.2004142E+02  0.7546771E-02  0.1533403E+00
         21   -1    0    0  502  501  0.00000000000E+00  0.00000000000E+00  0.32807737239E+02  0.32807737239E+02  0.00000000000E+00 0.  1.
         21   -1    0    0  503  502 -0.00000000000E+00 -0.00000000000E+00 -0.27360764286E+02  0.27360764286E+02  0.00000000000E+00 0.  1.
         21    1    1    2  503  504  0.76675127730E+00  0.20026744305E+02 -0.19639089025E+02  0.28059797090E+02  0.00000000000E+00 0.  1.
         21    1    1    2  504  501 -0.76675127730E+00 -0.20026744305E+02  0.25086061978E+02  0.32108704436E+02  0.00000000000E+00 0.  1.
</event>
<event>
 4    1  0.3080871E+006  0.2042309E+02  0.7546771E-02  0.1527663E+00
         21   -1    0    0  503  501  0.00000000000E+00  0.00000000000E+00  0.13111291205E+02  0.13111291205E+02  0.00000000000E+00 0.  1.
         21   -1    0    0  504  502 -0.00000000000E+00 -0.00000000000E+00 -0.36135061079E+02  0.36135061079E+02  0.00000000000E+00 0. -1.
         21    1    1    2  503  502 -0.10274722506E+02 -0.17650290006E+02 -0.20028192979E+02  0.28604740409E+02  0.00000000000E+00 0. -1.
         21    1    1    2  504  501  0.10274722506E+02  0.17650290006E+02 -0.29955768952E+01  0.20641611875E+02  0.00000000000E+00 0.  1.
</event>
<event>
 4    1  0.3080871E+006  0.2121072E+02  0.7546771E-02  0.1516277E+00
         21   -1    0    0  503  501  0.00000000000E+00  0.00000000000E+00  0.41112232357E+02  0.41112232357E+02  0.00000000000E+00 0.  1.
         21   -1    0    0  504  502 -0.00000000000E+00 -0.00000000000E+00 -0.31558632370E+03  0.31558632370E+03  0.00000000000E+00 0. -1.
         21    1    1    2  503  502  0.20003784718E+02  0.70528966600E+01 -0.31246687526E+03  0.31318595576E+03  0.00000000000E+00 0. -1.
         21    1    1    2  504  501 -0.20003784718E+02 -0.70528966600E+01  0.37992783916E+02  0.43512600291E+02  0.00000000000E+00 0.  1.
</event>
<event>
 4    1  0.3080871E+006  0.2335219E+02  0.7546771E-02  0.1488122E+00
         21   -1    0    0  504  501  0.00000000000E+00  0.00000000000E+00  0.98868609970E+01  0.98868609970E+01  0.00000000000E+00 0.  1.
         21   -1    0    0  501  502 -0.00000000000E+00 -0.00000000000E+00 -0.11348483772E+03  0.11348483772E+03  0.00000000000E+00 0.  1.
         21    1    1    2  503  502 -0.19028627448E+02  0.13536478640E+02 -0.96022815877E+02  0.98821587143E+02  0.00000000000E+00 0.  1.
         21    1    1    2  504  503  0.19028627448E+02 -0.13536478640E+02 -0.75751608482E+01  0.24550111576E+02  0.00000000000E+00 0.  1.
</event>
<event>
 4    1  0.3080871E+006  0.2279007E+02  0.7546771E-02  0.1495151E+00
         21   -1    0    0  504  501  0.00000000000E+00  0.00000000000E+00  0.45394976216E+02  0.45394976216E+02  0.00000000000E+00 0.  1.
         21   -1    0    0  503  502 -0.00000000000E+00 -0.00000000000E+00 -0.12042979799E+02  0.12042979799E+02  0.00000000000E+00 0.  1.
         21    1    1    2  503  501 -0.71503065397E+01  0.21639326442E+02  0.10257892558E+02  0.24992232637E+02  0.00000000000E+00 0.  1.
         21    1    1    2  504  502  0.71503065397E+01 -0.21639326442E+02  0.23094103859E+02  0.32445723378E+02  0.00000000000E+00 0.  1.
</event>
<event>
 4    1  0.3080871E+006  0.2099716E+02  0.7546771E-02  0.1519305E+00
         21   -1    0    0  502  501  0.00000000000E+00  0.00000000000E+00  0.17993079310E+02  0.17993079310E+02  0.00000000000E+00 0.  1.
         21   -1    0    0  503  502 -0.00000000000E+00 -0.00000000000E+00 -0.24550120401E+02  0.24550120401E+02  0.00000000000E+00 0.  1.
         21    1    1    2  503  504 -0.86381705923E+01 -0.19137989984E+02 -0.42125087482E+01  0.21415552334E+02  0.00000000000E+00 0.  1.
         21    1    1    2  504  501  0.86381705923E+01  0.19137989984E+02 -0.23445323429E+01  0.21127647378E+02  0.00000000000E+00 0.  1.
</event>
<event>
 4    1  0.3080871E+006  0.2138164E+02  0.7546771E-02  0.1513885E+00
         21   -1    0    0  504  501  0.00000000000E+00  0.00000000000E+00  0.22994644615E+01  0.22994644615E+01  0.00000000000E+00 0. -1.
         21   -1    0    0  503  502 -0.00000000000E+00 -0.00000000000E+00 -0.20762430939E+03  0.20762430939E+03  0.00000000000E+00 0.  1.
         21    1    1    2  503  501 -0.87780285575E+01  0.19496685628E+02 -0.12427933549E+03  0.12610522497E+03  0.00000000000E+00 0.  1.
         21    1    1    2  504  502  0.87780285575E+01 -0.19496685628E+02 -0.81045509446E+02  0.83818548885E+02  0.00000000000E+00 0. -1.
</event>
<event>
 4    1  0.3080871E+006  0.2629495E+02  0.7546771E-02  0.1454822E+00
         21   -1    0    0  502  501  0.00000000000E+00  0.00000000000E+00  0.60829121646E+02  0.60829121646E+02  0.00000000000E+00 0.  1.
         21   -1    0    0  504  502 -0.00000000000E+00 -0.00000000000E+00 -0.17362581361E+02  0.17362581361E+02  0.00000000000E+00 0. -1.
         21    1    1    2  503  501 -0.15687783770E+02 -0.21102552337E+02  0.44708046718E+02  0.51867462981E+02  0.00000000000E+00 0.  1.
         21    1    1    2  504  503  0.15687783770E+02  0.21102552337E+02 -0.12415064331E+01  0.26324240026E+02  0.00000000000E+00 0. -1.
</event>
<event>
 4    1  0.3080871E+006  0.2671996E+02  0.7546771E-02  0.1450442E+00
         21   -1    0    0  502  501  0.00000000000E+00  0.00000000000E+00  0.12644303255E+03  0.12644303255E+03  0.00000000000E+00 0. -1.
         21   -1    0    0  504  502 -0.00000000000E+00 -0.00000000000E+00 -0.56484013088E+01  0.56484013088E+01  0.00000000000E+00 0. -1.
         21    1    1    2  503  501  0.20024995144E+02 -0.17690552955E+02  0.61620312677E+02  0.67164120100E+02  0.00000000000E+00 0. -1.
         21    1    1    2  504  503 -0.20024995144E+02  0.17690552955E+02  0.59174318562E+02  0.64927313756E+02  0.00000000000E+00 0. -1.
</event>
<event>
 4    1  0.3080871E+006  0.2941457E+02  0.7546771E-02  0.1424753E+00
         21   -1    0    0  503  501  0.00000000000E+00  0.00000000000E+00  0.16308558959E+02  0.16308558959E+02  0.00000000000E+00 0.  1.
         21   -1    0    0  504  502 -0.00000000000E+00 -0.00000000000E+00 -0.78937630112E+02  0.78937630112E+02  0.00000000000E+00 0. -1.
         21    1    1    2  503  502  0.92651311833E+01  0.27917273777E+02 -0.58585289362E+02  0.65554961373E+02  0.00000000000E+00 0. -1.
         21    1    1    2  504  501 -0.92651311833E+01 -0.27917273777E+02 -0.40437817909E+01  0.29691227697E+02  0.00000000000E+00 0.  1.
</event>
<event>
 4    1  0.3080871E+006  0.5318804E+02  0.7546771E-02  0.1284912E+00
         21   -1    0    0  504  501  0.00000000000E+00  0.00000000000E+00  0.76411653465E+03  0.76411653465E+03  0.00000000000E+00 0. -1.
         21   -1    0    0  503  502 -0.00000000000E+00 -0.00000000000E+00 -0.24788460588E+02  0.24788460588E+02  0.00000000000E+00 0.  1.
         21    1    1    2  503  501  0.31076233098E+02 -0.43165204471E+02  0.73346929914E+03  0.73539525421E+03  0.00000000000E+00 0. -1.
         21    1    1    2  504  502 -0.31076233098E+02  0.43165204471E+02  0.58587749200E+01  0.53509741021E+02  0.00000000000E+00 0.  1.
</event>
<event>
 4    1  0.3080871E+006  0.2845948E+02  0.7546771E-02  0.1433474E+00
         21   -1    0    0  503  501  0.00000000000E+00  0.00000000000E+00  0.54699572785E+02  0.54699572785E+02  0.00000000000E+00 0.  1.
         21   -1    0    0  504  502 -0.00000000000E+00 -0.00000000000E+00 -0.14816189385E+02  0.14816189385E+02  0.00000000000E+00 0.  1.
         21    1    1    2  503  502  0.24785933111E+02  0.13985697728E+02  0.20802437635E+02  0.35251718152E+02  0.00000000000E+00 0.  1.
         21    1    1    2  504  501 -0.24785933111E+02 -0.13985697728E+02  0.19080945765E+02  0.34264044017E+02  0.00000000000E+00 0.  1.
</event>
<event>
 4    1  0.3080871E+006  0.2288481E+02  0.7546771E-02  0.1493950E+00
         21   -1    0    0  502  501  0.00000000000E+00  0.00000000000E+00  0.12959061346E+02  0.12959061346E+02  0.00000000000E+00 0. -1.
         21   -1    0    0  503  502 -0.00000000000E+00 -0.00000000000E+00 -0.35707425416E+03  0.35707425416E+03  0.00000000000E+00 0. -1.
         21    1    1    2  503  504  0.81868726725E+01 -0.21370300093E+02 -0.34629003808E+03  0.34704539341E+03  0.00000000000E+00 0. -1.
         21    1    1    2  504  501 -0.81868726725E+01  0.21370300093E+02  0.21748452726E+01  0.22987922094E+02  0.00000000000E+00 0. -1.
</event>
<event>
 4    1  0.3080871E+006  0.2356447E+02  0.7546771E-02  0.1485529E+00
         21   -1    0    0  503  501  0.00000000000E+00  0.00000000000E+00  0.12128208144E+02  0.12128208144E+02  0.00000000000E+00 0. -1.
         21   -1    0    0  504  502 -0.00000000000E+00 -0.00000000000E+00 -0.57143176485E+02  0.57143176485E+02  0.00000000000E+00 0. -1.
         21    1    1    2  503  502  0.21553370925E+02 -0.95255577051E+01 -0.70654187503E+01  0.24600898153E+02  0.00000000000E+00 0. -1.
         21    1    1    2  504  501 -0.21553370925E+02  0.95255577051E+01 -0.37949549591E+02  0.44670486476E+02  0.00000000000E+00 0. -1.
</event>
<event>
 4    1  0.3080871E+006  0.2180372E+02  0.7546771E-02  0.1508092E+00
         21   -1    0    0  503  501  0.00000000000E+00  0.00000000000E+00  0.30813530024E+02  0.30813530024E+02  0.00000000000E+00 0.  1.
         21   -1    0    0  501  502 -0.00000000000E+00 -0.00000000000E+00 -0.16318634643E+02  0.16318634643E+02  0.00000000000E+00 0.  1.
         21    1    1    2  503  504  0.19177232587E+02  0.10374772170E+02  0.12751824670E+02  0.25258883184E+02  0.00000000000E+00 0.  1.
         21    1    1    2  504  502 -0.19177232587E+02 -0.10374772170E+02  0.17430707106E+01  0.21873281482E+02  0.00000000000E+00 0.  1.
</event>
<event>
 4    1  0.3080871E+006  0.2247217E+02  0.7546771E-02  0.1499235E+00
         21   -1    0    0  502  501  0.00000000000E+00  0.00000000000E+00  0.14200743657E+03  0.14200743657E+03  0.00000000000E+00 0.  1.
         21   -1    0    0  503  502 -0.00000000000E+00 -0.00000000000E+00 -0.79304550836E+01  0.79304550836E+01  0.00000000000E+00 0.  1.
         21    1    1    2  503  504  0.40586354759E+01 -0.22102622642E+02  0.11360015070E+02  0.25180317551E+02  0.00000000000E+00 0.  1.
         21    1    1    2  504  501 -0.40586354759E+01  0.22102622642E+02  0.12271696642E+03  0.12475757411E+03  0.00000000000E+00 0.  1.
</event>
<event>
 4    1  0.3080871E+006  0.2023446E+02  0.7546771E-02  0.1530481E+00
         21   -1    0    0  504  501  0.00000000000E+00  0.00000000000E+00  0.20841870542E+01  0.20841870542E+01  0.00000000000E+00 0.  1.
         21   -1    0    0  503  502 -0.00000000000E+00 -0.00000000000E+00 -0.25345109408E+03  0.25345109408E+03  0.00000000000E+00 0.  1.
         21    1    1    2  503  501  0.10033757463E+02 -0.17571483841E+02 -0.65090110338E+02  0.68162715593E+02  0.00000000000E+00 0.  1.
         21    1    1    2  504  502 -0.10033757463E+02  0.17571483841E+02 -0.18627679669E+03  0.18737256554E+03  0.00000000000E+00 0.  1.
</event>
<event>
 4    1  0.3080871E+006  0.3415785E+02  0.7546771E-02  0.1386582E+00
         21   -1    0    0  503  501  0.00000000000E+00  0.00000000000E+00  0.66128963498E+02  0.66128963498E+02  0.00000000000E+00 0. -1.
         21   -1    0    0  504  502 -0.00000000000E+00 -0.00000000000E+00 -0.37451183301E+02  0.37451183301E+02  0.00000000000E+00 0. -1.
         21    1    1    2  503  502 -0.29898584963E+02  0.16517666395E+02  0.52003073342E+02  0.62217990348E+02  0.00000000000E+00 0. -1.
         21    1    1    2  504  501  0.29898584963E+02 -0.16517666395E+02 -0.23325293145E+02  0.41362156450E+02  0.00000000000E+00 0. -1.
</event>
<event>
 4    1  0.3080871E+006  0.2569059E+02  0.7546771E-02  0.1461224E+00
         21   -1    0    0  503  501  0.00000000000E+00  0.00000000000E+00  0.11656800193E+02  0.11656800193E+02  0.00000000000E+00 0. -1.
         21   -1    0    0  501  502 -0.00000000000E+00 -0.00000000000E+00 -0.40824898898E+03  0.40824898898E+03  0.00000000000E+00 0.  1.
         21    1    1    2  503  504 -0.24380571985E+02 -0.80990111679E+01 -0.34454992784E+01  0.25920604497E+02  0.00000000000E+00 0. -1.
         21    1    1    2  504  502  0.24380571985E+02  0.80990111679E+01 -0.39314668951E+03  0.39398518468E+03  0.00000000000E+00 0.  1.
</event>
<event>
 4    1  0.3080871E+006  0.2033601E+02  0.7546771E-02  0.1528960E+00
         21   -1    0    0  503  501  0.00000000000E+00  0.00000000000E+00  0.36580677064E+02  0.36580677064E+02  0.00000000000E+00 0. -1.
         21   -1    0    0  504  502 -0.00000000000E+00 -0.00000000000E+00 -0.22095925841E+02  0.22095925841E+02  0.00000000000E+00 0. -1.
         21    1    1    2  503  502  0.41709099689E+01 -0.19903693235E+02 -0.13259958222E+02  0.24277149470E+02  0.00000000000E+00 0. -1.
         21    1    1    2  504  501 -0.41709099689E+01  0.19903693235E+02  0.27744709446E+02  0.34399453434E+02  0.00000000000E+00 0. -1.
</event>
<event>
 4    1  0.3080871E+006  0.2215593E+02  0.7546771E-02  0.1503378E+00
         21   -1    0    0  503  501  0.00000000000E+00  0.00000000000E+00  0.11059635886E+02  0.11059635886E+02  0.00000000000E+00 0. -1.
         21   -1    0    0  504  502 -0.00000000000E+00 -0.00000000000E+00 -0.10873610985E+03  0.10873610985E+03  0.00000000000E+00 0. -1.
         21    1    1    2  503  502  0.23525390160E+01 -0.22030674997E+02 -0.94917080007E+02  0.97468647050E+02  0.00000000000E+00 0. -1.
         21    1    1    2  504  501 -0.23525390160E+01  0.22030674997E+02 -0.27593939540E+01  0.22327098683E+02  0.00000000000E+00 0. -1.
</event>
<event>
 4    1  0.3080871E+006  0.3727653E+02  0.7546771E-02  0.1365229E+00
         21   -1    0    0  504  501  0.00000000000E+00  0.00000000000E+00  0.22138031982E+03  0.22138031982E+03  0.00000000000E+00 0. -1.
         21   -1    0    0  503  502 -0.00000000000E+00 -0.00000000000E+00 -0.21890909216E+03  0.21890909216E+03  0.00000000000E+00 0. -1.
         21    1    1    2  503  501 -0.37185301643E+02  0.26063380342E+01 -0.21573007043E+03  0.21892693517E+03  0.00000000000E+00 0. -1.
         21    1    1    2  504  502  0.37185301643E+02 -0.26063380342E+01  0.21820129808E+03  0.22136247681E+03  0.00000000000E+00 0. -1.
</event>
<event>
 4    1  0.3080871E+006  0.2929169E+02  0.7546771E-02  0.1425853E+00
         21   -1    0    0  504  501  0.00000000000E+00  0.00000000000E+00  0.91623653684E+01  0.91623653684E+01  0.00000000000E+00 0.  1.
         21   -1    0    0  501  502 -0.00000000000E+00 -0.00000000000E+00 -0.16585009547E+03  0.16585009547E+03  0.00000000000E+00 0.  1.
         21    1    1    2  503  502 -0.25426824848E+02  0.14542341048E+02 -0.13608259177E+03  0.13919940693E+03  0.00000000000E+00 0.  1.
         21    1    1    2  504  503  0.25426824848E+02 -0.14542341048E+02 -0.20605138331E+02  0.35813053914E+02  0.00000000000E+00 0.  1.
</event>
<event>
 4    1  0.3080871E+006  0.2094854E+02  0.7546771E-02  0.1520001E+00
         21   -1    0    0  503  501  0.00000000000E+00  0.00000000000E+00  0.91554811233E+00  0.91554811233E+00  0.00000000000E+00 0. -1.
         21   -1    0    0  501  502 -0.00000000000E+00 -0.00000000000E+00 -0.75413587363E+03  0.75413587363E+03  0.00000000000E+00 0. -1.
         21    1    1    2  503  504 -0.56406349326E+01  0.20174846066E+02 -0.14871134318E+03  0.15017957507E+03  0.00000000000E+00 0. -1.
         21    1    1    2  504  502  0.56406349326E+01 -0.20174846066E+02 -0.60450898233E+03  0.60487184667E+03  0.00000000000E+00 0. -1.
</event>
<event>
 4    1  0.3080871E+006  0.4074267E+02  0.7546771E-02  0.1344188E+00
         21   -1    0    0  502  501  0.00000000000E+00  0.00000000000E+00  0.14296148011E+03  0.14296148011E+03  0.00000000000E+00 0.  1.
         21   -1    0    0  503  502 -0.00000000000E+00 -0.00000000000E+00 -0.28256967548E+02  0.28256967548E+02  0.00000000000E+00 0.  1.
         21    1    1    2  503  504  0.40040394862E+02  0.75320378253E+01 -0.83543051103E+01  0.41590374227E+02  0.00000000000E+00 0.  1.
         21    1    1    2  504  501 -0.40040394862E+02 -0.75320378253E+01  0.12305881767E+03  0.12962807343E+03  0.00000000000E+00 0.  1.
</event>
<event>
 4    1  0.3080871E+006  0.2189344E+02  0.7546771E-02  0.1506881E+00
         21   -1    0    0  502  501  0.00000000000E+00  0.00000000000E+00  0.84802538903E+00  0.84802538903E+00  0.00000000000E+00 0. -1.
         21   -1    0    0  504  502 -0.00000000000E+00 -0.00000000000E+00 -0.71754228536E+03  0.71754228536E+03  0.00000000000E+00 0.  1.
         21    1    1    2  503  501 -0.36605834616E+01 -0.21585244249E+02 -0.19285187905E+03  0.19409062289E+03  0.00000000000E+00 0. -1.
         21    1    1    2  504  503  0.36605834616E+01  0.21585244249E+02 -0.52384238092E+03  0.52429968786E+03  0.00000000000E+00 0.  1.
</event>
<event>
 4    1  0.3080871E+006  0.2246765E+02  0.7546771E-02  0.1499293E+00
         21   -1    0    0  502  501  0.00000000000E+00  0.00000000000E+00  0.47543124383E+01  0.47543124383E+01  0.00000000000E+00 0.  1.
         21   -1    0    0  504  502 -0.00000000000E+00 -0.00000000000E+00 -0.38571975962E+03  0.38571975962E+03  0.00000000000E+00 0.  1.
         21    1    1    2  503  501 -0.22434298778E+02 -0.12236610419E+01 -0.24275091631E+02  0.33076807308E+02  0.00000000000E+00 0.  1.
         21    1    1    2  504  503  0.22434298778E+02  0.12236610419E+01 -0.35669035555E+03  0.35739726475E+03  0.00000000000E+00 0.  1.
</event>
<event>
 4    1  0.3080871E+006  0.2910278E+02  0.7546771E-02  0.1427557E+00
         21   -1    0    0  503  501  0.00000000000E+00  0.00000000000E+00  0.13705932225E+03  0.13705932225E+03  0.00000000000E+00 0. -1.
         21   -1    0    0  501  502 -0.00000000000E+00 -0.00000000000E+00 -0.15554095354E+02  0.15554095354E+02  0.00000000000E+00 0. -1.
         21    1    1    2  503  504 -0.35953308590E+01 -0.28879842666E+02  0.11999251183E+03  0.12347135138E+03  0.00000000000E+00 0. -1.
         21    1    1    2  504  502  0.35953308590E+01  0.28879842666E+02  0.15127150565E+01  0.29142066214E+02  0.00000000000E+00 0. -1.
</event>
<event>
 4    1  0.3080871E+006  0.2050654E+02  0.7546771E-02  0.1526428E+00
         21   -1    0    0  503  501  0.00000000000E+00  0.00000000000E+00  0.17005769964E+03  0.17005769964E+03  0.00000000000E+00 0. -1.
         21   -1    0    0  504  502 -0.00000000000E+00 -0.00000000000E+00 -0.21982600034E+02  0.21982600034E+02  0.00000000000E+00 0. -1.
         21    1    1    2  503  502  0.18570451618E+02  0.86980796257E+01 -0.16420930350E+02  0.26270995719E+02  0.00000000000E+00 0. -1.
         21    1    1    2  504  501 -0.18570451618E+02 -0.86980796257E+01  0.16449602995E+03  0.16576930395E+03  0.00000000000E+00 0. -1.
</event>
<event>
 4    1  0.3080871E+006  0.2076313E+02  0.7546771E-02  0.1522674E+00
         21   -1    0    0  503  501  0.00000000000E+00  0.00000000000E+00  0.13848867340E+01  0.13848867340E+01  0.00000000000E+00 0.  1.
         21   -1    0    0  504  502 -0.00000000000E+00 -0.00000000000E+00 -0.36304189074E+03  0.36304189074E+03  0.00000000000E+00 0.  1.
         21    1    1    2  503  502 -0.11934626079E+02  0.16990361313E+02 -0.11203522781E+03  0.11394296796E+03  0.00000000000E+00 0.  1.
         21    1    1    2  504  501  0.11934626079E+02 -0.16990361313E+02 -0.24962177620E+03  0.25048380951E+03  0.00000000000E+00 0.  1.
</event>
<event>
 4    1  0.3080871E+006  0.4321560E+02  0.7546771E-02  0.1330607E+00
         21   -1    0    0  503  501  0.00000000000E+00  0.00000000000E+00  0.18679054729E+02  0.18679054729E+02  0.00000000000E+00 0. -1.
         21   -1    0    0  504  502 -0.00000000000E+00 -0.00000000000E+00 -0.57232376756E+03  0.57232376756E+03  0.00000000000E+00 0.  1.
         21    1    1    2  503  502 -0.34100707195E+02 -0.26546744280E+02 -0.54527419666E+03  0.54698403762E+03  0.00000000000E+00 0.  1.
         21    1    1    2  504  501  0.34100707195E+02  0.26546744280E+02 -0.83705161689E+01  0.44018784672E+02  0.00000000000E+00 0. -1.
</event>
<event>
 4    1  0.3080871E+006  0.2997487E+02  0.7546771E-02  0.1419815E+00
         21   -1    0    0  504  501  0.00000000000E+00  0.00000000000E+00  0.35491285352E+02  0.35491285352E+02  0.00000000000E+00 0. -1.
         21   -1    0    0  503  502 -0.00000000000E+00 -0.00000000000E+00 -0.39118499350E+02  0.39118499350E+02  0.00000000000E+00 0. -1.
         21    1    1    2  503  501 -0.19035656621E+02  0.23154622255E+02 -0.23972885507E+02  0.38382183292E+02  0.00000000000E+00 0. -1.
         21    1    1    2  504  502  0.19035656621E+02 -0.23154622255E+02  0.20345671509E+02  0.36227601410E+02  0.00000000000E+00 0. -1.
</event>
<event>
 4    1  0.3080871E+006  0.2025027E+02  0.7546771E-02  0.1530244E+00
         21   -1    0    0  503  501  0.00000000000E+00  0.00000000000E+00  0.24156791346E+02  0.24156791346E+02  0.00000000000E+00 0.  1.
         21   -1    0    0  504  502 -0.00000000000E+00 -0.00000000000E+00 -0.56772642766E+02  0.56772642766E+02  0.00000000000E+00 0. -1.
         21    1    1    2  503  502 -0.18878008272E+02 -0.73276383314E+01 -0.50187108708E+02  0.54118567612E+02  0.00000000000E+00 0. -1.
         21    1    1    2  504  501  0.18878008272E+02  0.73276383314E+01  0.17571257288E+02  0.26810866501E+02  0.00000000000E+00 0.  1.
</event>
<event>
 4    1  0.3080871E+006  0.3844948E+02  0.7546771E-02  0.1357819E+00
         21   -1    0    0  503  501  0.00000000000E+00  0.00000000000E+00  0.18386733687E+02  0.18386733687E+02  0.00000000000E+00 0. -1.
         21   -1    0    0  504  502 -0.00000000000E+00 -0.00000000000E+00 -0.93005328206E+02  0.93005328206E+02  0.00000000000E+00 0.  1.
         21    1    1    2  503  502 -0.37019673780E+02  0.10387781197E+02 -0.16807926973E+02  0.41962705514E+02  0.00000000000E+00 0. -1.
         21    1    1    2  504  501  0.37019673780E+02 -0.10387781197E+02 -0.57810667546E+02  0.69429356378E+02  0.00000000000E+00 0.  1.
</event>
<event>
 4    1  0.3080871E+006  0.3764168E+02  0.7546771E-02  0.1362889E+00
         21   -1    0    0  503  501  0.00000000000E+00  0.00000000000E+00  0.95612704635E+02  0.95612704635E+02  0.00000000000E+00 0. -1.
         21   -1    0    0  501  502 -0.00000000000E+00 -0.00000000000E+00 -0.11426636392E+03  0.11426636392E+03  0.00000000000E+00 0.  1.
         21    1    1    2  503  504  0.35522513397E+02 -0.12451780863E+02  0.88571732227E+02  0.96238493101E+02  0.00000000000E+00 0. -1.
         21    1    1    2  504  502 -0.35522513397E+02  0.12451780863E+02 -0.10722539151E+03  0.11364057546E+03  0.00000000000E+00 0.  1.
</event>
<event>
 4    1  0.3080871E+006  0.2027024E+02  0.7546771E-02  0.1529944E+00
         21   -1    0    0  504  501  0.00000000000E+00  0.00000000000E+00  0.10882976514E+02  0.10882976514E+02  0.00000000000E+00 0.  1.
         21   -1    0    0  503  502 -0.00000000000E+00 -0.00000000000E+00 -0.67102794750E+03  0.67102794750E+03  0.00000000000E+00 0. -1.
         21    1    1    2  503  501 -0.54137936163E+01 -0.19533901898E+02  0.11523943310E+01  0.20302967699E+02  0.00000000000E+00 0.  1.
         21    1    1    2  504  502  0.54137936163E+01  0.19533901898E+02 -0.66129736531E+03  0.66160795631E+03  0.00000000000E+00 0. -1.
</event>
<event>
 4    1  0.3080871E+006  0.2099576E+02  0.7546771E-02  0.1519325E+00
         21   -1    0    0  503  501  0.00000000000E+00  0.00000000000E+00  0.10556550789E+03  0.10556550789E+03  0.00000000000E+00 0.  1.
         21   -1    0    0  504  502 -0.00000000000E+00 -0.00000000000E+00 -0.50312416228E+01  0.50312416228E+01  0.00000000000E+00 0. -1.
         21    1    1    2  503  502  0.72259709531E+01 -0.19713121956E+02  0.27465464128E+02  0.34571282204E+02  0.00000000000E+00 0. -1.
         21    1    1    2  504  501 -0.72259709531E+01  0.19713121956E+02  0.73068802142E+02  0.76025467312E+02  0.00000000000E+00 0.  1.
</event>
<event>
 4    1  0.3080871E+006  0.2343410E+02  0.7546771E-02  0.1487118E+00
         21   -1    0    0  503  501  0.00000000000E+00  0.00000000000E+00  0.60445104523E+01  0.60445104523E+01  0.00000000000E+00 0. -1.
         21   -1    0    0  504  502 -0.00000000000E+00 -0.00000000000E+00 -0.14589029491E+04  0.14589029491E+04  0.00000000000E+00 0.  1.
         21    1    1    2  503  502  0.17452575151E+02 -0.15638559383E+02 -0.17129218496E+02  0.29027005448E+02  0.00000000000E+00 0. -1.
         21    1    1    2  504  501 -0.17452575151E+02  0.15638559383E+02 -0.14357292202E+04  0.14359204541E+04  0.00000000000E+00 0.  1.
</event>
<event>
 4    1  0.3080871E+006  0.2214864E+02  0.7546771E-02  0.1503475E+00
         21   -1    0    0  504  501  0.00000000000E+00  0.00000000000E+00  0.39988550277E+02  0.39988550277E+02  0.00000000000E+00 0.  1.
         21   -1    0    0  503  502 -0.00000000000E+00 -0.00000000000E+00 -0.15502194850E+02  0.15502194850E+02  0.00000000000E+00 0.  1.
         21    1    1    2  503  501  0.14416108603E+02  0.16814814148E+02  0.24916959426E+02  0.33337921788E+02  0.00000000000E+00 0.  1.
         21    1    1    2  504  502 -0.14416108603E+02 -0.16814814148E+02 -0.43060399942E+00  0.22152823339E+02  0.00000000000E+00 0.  1.
</event>
<event>
 4    1  0.3080871E+006  0.2453119E+02  0.7546771E-02  0.1474117E+00
         21   -1    0    0  502  501  0.00000000000E+00  0.00000000000E+00  0.58580375574E+00  0.58580375574E+00  0.00000000000E+00 0. -1.
         21   -1    0    0  504  502 -0.00000000000E+00 -0.00000000000E+00 -0.10291201376E+04  0.10291201376E+04  0.00000000000E+00 0. -1.
         21    1    1    2  503  501 -0.22658717950E+02  0.94001016392E+01 -0.49244515928E+03  0.49305579228E+03  0.00000000000E+00 0. -1.
         21    1    1    2  504  503  0.22658717950E+02 -0.94001016392E+01 -0.53608917455E+03  0.53665014906E+03  0.00000000000E+00 0. -1.
</event>
<event>
 4    1  0.3080871E+006  0.3396839E+02  0.7546771E-02  0.1387964E+00
         21   -1    0    0  504  501  0.00000000000E+00  0.00000000000E+00  0.25404712149E+03  0.25404712149E+03  0.00000000000E+00 0. -1.
         21   -1    0    0  503  502 -0.00000000000E+00 -0.00000000000E+00 -0.10953940153E+02  0.10953940153E+02  0.00000000000E+00 0.  1.
         21    1    1    2  503  501 -0.28697675487E+02 -0.18174025712E+02  0.22292166765E+03  0.22549483741E+03  0.00000000000E+00 0. -1.
         21    1    1    2  504  502  0.28697675487E+02  0.18174025712E+02  0.20171513685E+02  0.39506224234E+02  0.00000000000E+00 0.  1.
</event>
<event>
 4    1  0.3080871E+006  0.3910946E+02  0.7546771E-02  0.1353785E+00
         21   -1    0    0  503  501  0.00000000000E+00  0.00000000000E+00  0.22727239739E+04  0.22727239739E+04  0.00000000000E+00 0. -1.
         21   -1    0    0  504  502 -0.00000000000E+00 -0.00000000000E+00 -0.68724397012E+00  0.68724397012E+00  0.00000000000E+00 0. -1.
         21    1    1    2  503  502 -0.26969370293E+02 -0.28323190244E+02  0.97238856153E+03  0.97317473490E+03  0.00000000000E+00 0. -1.
         21    1    1    2  504  501  0.26969370293E+02  0.28323190244E+02  0.12996481684E+04  0.13002364830E+04  0.00000000000E+00 0. -1.
</event>
<event>
 4    1  0.3080871E+006  0.2104769E+02  0.7546771E-02  0.1518585E+00
         21   -1    0    0  503  501  0.00000000000E+00  0.00000000000E+00  0.19572982064E+02  0.19572982064E+02  0.00000000000E+00 0. -1.
         21   -1    0    0  504  502 -0.00000000000E+00 -0.00000000000E+00 -0.77403912060E+03  0.77403912060E+03  0.00000000000E+00 0. -1.
         21    1    1    2  503  502 -0.20418916273E+02  0.51061932841E+01  0.13728479928E+02  0.25129196421E+02  0.00000000000E+00 0. -1.
         21    1    1    2  504  501  0.20418916273E+02 -0.51061932841E+01 -0.76819461847E+03  0.76848290625E+03  0.00000000000E+00 0. -1.
</event>
<event>
 4    1  0.3080871E+006  0.2007774E+02  0.7546771E-02  0.1532851E+00
         21   -1    0    0  504  501  0.00000000000E+00  0.00000000000E+00  0.80401144284E+01  0.80401144284E+01  0.00000000000E+00 0. -1.
         21   -1    0    0  503  502 -0.00000000000E+00 -0.00000000000E+00 -0.15006705863E+03  0.15006705863E+03  0.00000000000E+00 0. -1.
         21    1    1    2  503  501  0.43445284521E+01 -0.19602055381E+02 -0.65038163161E+01  0.21104860324E+02  0.00000000000E+00 0. -1.
         21    1    1    2  504  502 -0.43445284521E+01  0.19602055381E+02 -0.13552312788E+03  0.13700231273E+03  0.00000000000E+00 0. -1.
</event>
<event>
 4    1  0.3080871E+006  0.2429396E+02  0.7546771E-02  0.1476859E+00
         21   -1    0    0  502  501  0.00000000000E+00  0.00000000000E+00  0.23648985111E+03  0.23648985111E+03  0.00000000000E+00 0.  1.
         21   -1    0    0  504  502 -0.00000000000E+00 -0.00000000000E+00 -0.24960316202E+01  0.24960316202E+01  0.00000000000E+00 0.  1.
         21    1    1    2  503  501  0.22567161465E+02  0.89955466775E+01  0.11552545873E+03  0.11805222680E+03  0.00000000000E+00 0.  1.
         21    1    1    2  504  503 -0.22567161465E+02 -0.89955466775E+01  0.11846836075E+03  0.12093365593E+03  0.00000000000E+00 0.  1.
</event>
<event>
 4    1  0.3080871E+006  0.3188357E+02  0.7546771E-02  0.1403905E+00
         21   -1    0    0  503  501  0.00000000000E+00  0.00000000000E+00  0.74174836982E+03  0.74174836982E+03  0.00000000000E+00 0.  1.
         21   -1    0    0  504  502 -0.00000000000E+00 -0.00000000000E+00 -0.46695943465E+01  0.46695943465E+01  0.00000000000E+00 0.  1.
         21    1    1    2  503  502 -0.15062998335E+02  0.28101034079E+02  0.54842476663E+02  0.63437049755E+02  0.00000000000E+00 0.  1.
         21    1    1    2  504  501  0.15062998335E+02 -0.28101034079E+02  0.68223629881E+03  0.68298091441E+03  0.00000000000E+00 0.  1.
</event>
<event>
 4    1  0.3080871E+006  0.2026516E+02  0.7546771E-02  0.1530020E+00
         21   -1    0    0  503  501  0.00000000000E+00  0.00000000000E+00  0.40299637874E+01  0.40299637874E+01  0.00000000000E+00 0. -1.
         21   -1    0    0  501  502 -0.00000000000E+00 -0.00000000000E+00 -0.10702440716E+03  0.10702440716E+03  0.00000000000E+00 0. -1.
         21    1    1    2  503  504 -0.20165475021E+02 -0.20075293525E+01 -0.39353788708E+02  0.44265079267E+02  0.00000000000E+00 0. -1.
         21    1    1    2  504  502  0.20165475021E+02  0.20075293525E+01 -0.63640654663E+02  0.66789291678E+02  0.00000000000E+00 0. -1.
</event>
<event>
 4    1  0.3080871E+006  0.2399655E+02  0.7546771E-02  0.1480350E+00
         21   -1    0    0  503  501  0.00000000000E+00  0.00000000000E+00  0.16412395269E+03  0.16412395269E+03  0.00000000000E+00 0. -1.
         21   -1    0    0  504  502 -0.00000000000E+00 -0.00000000000E+00 -0.43718089722E+01  0.43718089722E+01  0.00000000000E+00 0.  1.
         21    1    1    2  503  502  0.45766780433E+01  0.23556068601E+02  0.11731325409E+03  0.11974236483E+03  0.00000000000E+00 0. -1.
         21    1    1    2  504  501 -0.45766780433E+01 -0.23556068601E+02  0.42438889628E+02  0.48753396833E+02  0.00000000000E+00 0.  1.
</event>
<event>
 4    1  0.3080871E+006  0.2050153E+02  0.7546771E-02  0.1526502E+00
         21   -1    0    0  503  501  0.00000000000E+00  0.00000000000E+00  0.29073476697E+02  0.29073476697E+02  0.00000000000E+00 0. -1.
         21   -1    0    0  504  502 -0.00000000000E+00 -0.00000000000E+00 -0.21695865015E+02  0.21695865015E+02  0.00000000000E+00 0. -1.
         21    1    1    2  503  502  0.20256973801E+02  0.31572047206E+01 -0.10974121681E+02  0.23253908831E+02  0.00000000000E+00 0. -1.
         21    1    1    2  504  501 -0.20256973801E+02 -0.31572047206E+01  0.18351733363E+02  0.27515432881E+02  0.00000000000E+00 0. -1.
</event>
<event>
 4    1  0.3080871E+006  0.2260091E+02  0.7546771E-02  0.1497571E+00
         21   -1    0    0  502  501  0.00000000000E+00  0.00000000000E+00  0.53028606892E+01  0.53028606892E+01  0.00000000000E+00 0. -1.
         21   -1    0    0  503  502 -0.00000000000E+00 -0.00000000000E+00 -0.14149774674E+03  0.14149774674E+03  0.00000000000E+00 0. -1.
         21    1    1    2  503  504 -0.19258090145E+02 -0.11829079246E+02 -0.10956978278E+03  0.11187644279E+03  0.00000000000E+00 0. -1.
         21    1    1    2  504  501  0.19258090145E+02  0.11829079246E+02 -0.26625103267E+02  0.34924164640E+02  0.00000000000E+00 0. -1.
</event>
<event>
 4    1  0.3080871E+006  0.2352763E+02  0.7546771E-02  0.1485977E+00
         21   -1    0    0  504  501  0.00000000000E+00  0.00000000000E+00  0.42855011642E+02  0.42855011642E+02  0.00000000000E+00 0.  1.
         21   -1    0    0  503  502 -0.00000000000E+00 -0.00000000000E+00 -0.11000742189E+03  0.11000742189E+03  0.00000000000E+00 0.  1.
         21    1    1    2  503  501  0.30340842931E+01  0.23331174896E+02 -0.10538017124E+03  0.10797467240E+03  0.00000000000E+00 0.  1.
         21    1    1    2  504  502 -0.30340842931E+01 -0.23331174896E+02  0.38227760989E+02  0.44887761135E+02  0.00000000000E+00 0.  1.
</event>
<event>
 4    1  0.3080871E+006  0.2160315E+02  0.7546771E-02  0.1510825E+00
         21   -1    0    0  503  501  0.00000000000E+00  0.00000000000E+00  0.32313215113E+02  0.32313215113E+02  0.00000000000E+00 0.  1.
         21   -1    0    0  504  502 -0.00000000000E+00 -0.00000000000E+00 -0.16700738383E+02  0.16700738383E+02  0.00000000000E+00 0. -1.
         21    1    1    2  503  502  0.99082729999E+01 -0.19196931204E+02  0.16817172094E+02  0.27377240890E+02  0.00000000000E+00 0.  1.
         21    1    1    2  504  501 -0.99082729999E+01  0.19196931204E+02 -0.12046953639E+01  0.21636712607E+02  0.00000000000E+00 0. -1.
</event>
<event>
 4    1  0.3080871E+006  0.2355306E+02  0.7546771E-02  0.1485668E+00
         21   -1    0    0  504  501  0.00000000000E+00  0.00000000000E+00  0.16723252488E+01  0.16723252488E+01  0.00000000000E+00 0.  1.
         21   -1    0    0  503  502 -0.00000000000E+00 -0.00000000000E+00 -0.55372016913E+03  0.55372016913E+03  0.00000000000E+00 0. -1.
         21    1    1    2  503  501  0.17503666572E+02  0.15759701991E+02 -0.45185670221E+03  0.45247013811E+03  0.00000000000E+00 0. -1.
         21    1    1    2  504  502 -0.17503666572E+02 -0.15759701991E+02 -0.10019114167E+03  0.10292235627E+03  0.00000000000E+00 0.  1.
</event>
<event>
 4    1  0.3080871E+006  0.3693159E+02  0.7546771E-02  0.1367470E+00
         21   -1    0    0  504  501  0.00000000000E+00  0.00000000000E+00  0.45359882532E+01  0.45359882532E+01  0.00000000000E+00 0.  1.
         21   -1    0    0  503  502 -0.00000000000E+00 -0.00000000000E+00 -0.73183353106E+03  0.73183353106E+03  0.00000000000E+00 0.  1.
         21    1    1    2  503  501  0.26133975392E+02  0.26095172489E+02 -0.64624656909E+03  0.64730098931E+03  0.00000000000E+00 0.  1.
         21    1    1    2  504  502 -0.26133975392E+02 -0.26095172489E+02 -0.81050973713E+02  0.89068530003E+02  0.00000000000E+00 0.  1.
</event>
<event>
 4    1  0.3080871E+006  0.4847898E+02  0.7546771E-02  0.1304905E+00
         21   -1    0    0  503  501  0.00000000000E+00  0.00000000000E+00  0.16651004565E+02  0.16651004565E+02  0.00000000000E+00 0.  1.
         21   -1    0    0  501  502 -0.00000000000E+00 -0.00000000000E+00 -0.26791785866E+03  0.26791785866E+03  0.00000000000E+00 0. -1.
         21    1    1    2  503  504  0.45124331834E+02 -0.17720207012E+02 -0.27759012580E+02  0.55863886719E+02  0.00000000000E+00 0.  1.
         21    1    1    2  504  502 -0.45124331834E+02  0.17720207012E+02 -0.22350784151E+03  0.22870497651E+03  0.00000000000E+00 0. -1.
</event>
<event>
 4    1  0.3080871E+006  0.2266615E+02  0.7546771E-02  0.1496733E+00
         21   -1    0    0  503  501  0.00000000000E+00  0.00000000000E+00  0.10271485019E+02  0.10271485019E+02  0.00000000000E+00 0. -1.
         21   -1    0    0  504  502 -0.00000000000E+00 -0.00000000000E+00 -0.92160592207E+02  0.92160592207E+02  0.00000000000E+00 0. -1.
         21    1    1    2  503  502 -0.26294334848E+01 -0.22513119567E+02 -0.63110587092E+01  0.23528364481E+02  0.00000000000E+00 0. -1.
         21    1    1    2  504  501  0.26294334848E+01  0.22513119567E+02 -0.75578048479E+02  0.78903712745E+02  0.00000000000E+00 0. -1.
</event>
<event>
 4    1  0.3080871E+006  0.2688427E+02  0.7546771E-02  0.1448774E+00
         21   -1    0    0  504  501  0.00000000000E+00  0.00000000000E+00  0.58019983342E+01  0.58019983342E+01  0.00000000000E+00 0. -1.
         21   -1    0    0  501  502 -0.00000000000E+00 -0.00000000000E+00 -0.51565992909E+03  0.51565992909E+03  0.00000000000E+00 0.  1.
         21    1    1    2  503  502 -0.25690959502E+02 -0.79207650457E+01 -0.48199301229E+03  0.48274219602E+03  0.00000000000E+00 0.  1.
         21    1    1    2  504  503  0.25690959502E+02  0.79207650457E+01 -0.27864918461E+02  0.38719731402E+02  0.00000000000E+00 0. -1.
</event>
<event>
 4    1  0.3080871E+006  0.2642614E+02  0.7546771E-02  0.1453459E+00
         21   -1    0    0  504  501  0.00000000000E+00  0.00000000000E+00  0.14367570673E+02  0.14367570673E+02  0.00000000000E+00 0. -1.
         21   -1    0    0  503  502 -0.00000000000E+00 -0.00000000000E+00 -0.11128797406E+04  0.11128797406E+04  0.00000000000E+00 0.  1.
         21    1    1    2  503  501  0.25399768724E+02 -0.72933156209E+01 -0.11004341192E+04  0.11007513758E+04  0.00000000000E+00 0.  1.
         21    1    1    2  504  502 -0.25399768724E+02  0.72933156209E+01  0.19219493025E+01  0.26495935408E+02  0.00000000000E+00 0. -1.
</event>
<event>
 4    1  0.3080871E+006  0.2001730E+02  0.7546771E-02  0.1533771E+00
         21   -1    0    0  504  501  0.00000000000E+00  0.00000000000E+00  0.10728684239E+03  0.10728684239E+03  0.00000000000E+00 0.  1.
         21   -1    0    0  503  502 -0.00000000000E+00 -0.00000000000E+00 -0.96530910823E+01  0.96530910823E+01  0.00000000000E+00 0.  1.
         21    1    1    2  503  501 -0.19303055171E+02  0.52994506774E+01  0.94599296913E+02  0.96693945482E+02  0.00000000000E+00 0.  1.
         21    1    1    2  504  502  0.19303055171E+02 -0.52994506774E+01  0.30344543993E+01  0.20245987995E+02  0.00000000000E+00 0.  1.
</event>
<event>
 4    1  0.3080871E+006  0.3157129E+02  0.7546771E-02  0.1406416E+00
         21   -1    0    0  504  501  0.00000000000E+00  0.00000000000E+00  0.57883556480E+01  0.57883556480E+01  0.00000000000E+00 0. -1.
         21   -1    0    0  503  502 -0.00000000000E+00 -0.00000000000E+00 -0.13017048310E+04  0.13017048310E+04  0.00000000000E+00 0. -1.
         21    1    1    2  503  501  0.72645888307E+01  0.30724132463E+02 -0.38985989339E+02  0.50166262879E+02  0.00000000000E+00 0. -1.
         21    1    1    2  504  502 -0.72645888307E+01 -0.30724132463E+02 -0.12569304861E+04  0.12573269238E+04  0.00000000000E+00 0. -1.
</event>
<event>
 4    1  0.3080871E+006  0.2089125E+02  0.7546771E-02  0.1520823E+00
         21   -1    0    0  504  501  0.00000000000E+00  0.00000000000E+00  0.86703712974E+02  0.86703712974E+02  0.00000000000E+00 0. -1.
         21   -1    0    0  503  502 -0.00000000000E+00 -0.00000000000E+00 -0.64275453599E+01  0.64275453599E+01  0.00000000000E+00 0.  1.
         21    1    1    2  503  501 -0.19874985710E+02  0.64365417678E+01  0.61822295782E+02  0.65256726723E+02  0.00000000000E+00 0. -1.
         21    1    1    2  504  502  0.19874985710E+02 -0.64365417678E+01  0.18453871832E+02  0.27874531611E+02  0.00000000000E+00 0.  1.
</event>
<event>
 4    1  0.3080871E+006  0.3007215E+02  0.7546771E-02  0.1418970E+00
         21   -1    0    0  504  501  0.00000000000E+00  0.00000000000E+00  0.14241730437E+03  0.14241730437E+03  0.00000000000E+00 0.  1.
         21   -1    0    0  501  502 -0.00000000000E+00 -0.00000000000E+00 -0.26153369902E+02  0.26153369902E+02  0.00000000000E+00 0. -1.
         21    1    1    2  503  502  0.29289374902E+02  0.68166568916E+01 -0.15211080050E+02  0.33700315275E+02  0.00000000000E+00 0. -1.
         21    1    1    2  504  503 -0.29289374902E+02 -0.68166568916E+01  0.13147501452E+03  0.13487035900E+03  0.00000000000E+00 0.  1.
</event>
<event>
 4    1  0.3080871E+006  0.2602459E+02  0.7546771E-02  0.1457660E+00
         21   -1    0    0  503  501  0.00000000000E+00  0.00000000000E+00  0.12738342611E+02  0.12738342611E+02  0.00000000000E+00 0. -1.
         21   -1    0    0  504  502 -0.00000000000E+00 -0.00000000000E+00 -0.13117902112E+03  0.13117902112E+03  0.00000000000E+00 0. -1.
         21    1    1    2  503  502  0.24384347126E+02 -0.90930191746E+01 -0.37287173831E+01  0.26290354045E+02  0.00000000000E+00 0. -1.
         21    1    1    2  504  501 -0.24384347126E+02  0.90930191746E+01 -0.11471196113E+03  0.11762700969E+03  0.00000000000E+00 0. -1.
</event>
<event>
 4    1  0.3080871E+006  0.2564914E+02  0.7546771E-02  0.1461671E+00
         21   -1    0    0  503  501  0.00000000000E+00  0.00000000000E+00  0.13052414839E+03  0.13052414839E+03  0.00000000000E+00 0.  1.
         21   -1    0    0  501  502 -0.00000000000E+00 -0.00000000000E+00 -0.62223022621E+01  0.62223022621E+01  0.00000000000E+00 0.  1.
         21    1    1    2  503  504  0.25387833673E+02  0.36518996786E+01  0.91951388020E+02  0.95461700324E+02  0.00000000000E+00 0.  1.
         21    1    1    2  504  502 -0.25387833673E+02 -0.36518996786E+01  0.32350458106E+02  0.41284750327E+02  0.00000000000E+00 0.  1.
</event>
<event>
 4    1  0.3080871E+006  0.2107758E+02  0.7546771E-02  0.1518160E+00
         21   -1    0    0  504  501  0.00000000000E+00  0.00000000000E+00  0.13601476238E+03  0.13601476238E+03  0.00000000000E+00 0.  1.
         21   -1    0    0  503  502 -0.00000000000E+00 -0.00000000000E+00 -0.45391961392E+01  0.45391961392E+01  0.00000000000E+00 0. -1.
         21    1    1    2  503  501  0.10998041979E+02  0.17980752365E+02  0.28522537235E+02  0.35465469309E+02  0.00000000000E+00 0. -1.
         21    1    1    2  504  502 -0.10998041979E+02 -0.17980752365E+02  0.10295302900E+03  0.10508848921E+03  0.00000000000E+00 0.  1.
</event>
<event>
 4    1  0.3080871E+006  0.2042880E+02  0.7546771E-02  0.1527578E+00
         21   -1    0    0  504  501  0.00000000000E+00  0.00000000000E+00  0.24325019201E+01  0.24325019201E+01  0.00000000000E+00 0.  1.
         21   -1    0    0  503  502 -0.00000000000E+00 -0.00000000000E+00 -0.72833659333E+03  0.72833659333E+03  0.00000000000E+00 0. -1.
         21    1    1    2  503  501 -0.98816754964E+01  0.17879834821E+02 -0.43487964880E+02  0.48047258957E+02  0.00000000000E+00 0.  1.
         21    1    1    2  504  502  0.98816754964E+01 -0.17879834821E+02 -0.68241612653E+03  0.68272183629E+03  0.00000000000E+00 0. -1.
</event>
<event>
 4    1  0.3080871E+006  0.2784391E+02  0.7546771E-02  0.1439310E+00
         21   -1    0    0  502  501  0.00000000000E+00  0.00000000000E+00  0.42441413629E+03  0.42441413629E+03  0.00000000000E+00 0. -1.
         21   -1    0    0  504  502 -0.00000000000E+00 -0.00000000000E+00 -0.45104540926E+01  0.45104540926E+01  0.00000000000E+00 0.  1.
         21    1    1    2  503  501 -0.27843912927E+02  0.17673585467E-02  0.37538059420E+03  0.37641184093E+03  0.00000000000E+00 0. -1.
         21    1    1    2  504  503  0.27843912927E+02 -0.17673585467E-02  0.44523087993E+02  0.52512749449E+02  0.00000000000E+00 0.  1.
</event>
<event>
 4    1  0.3080871E+006  0.7167692E+02  0.7546771E-02  0.1224611E+00
         21   -1    0    0  503  501  0.00000000000E+00  0.00000000000E+00  0.66520293946E+02  0.66520293946E+02  0.00000000000E+00 0. -1.
         21   -1    0    0  501  502 -0.00000000000E+00 -0.00000000000E+00 -0.77809491464E+02  0.77809491464E+02  0.00000000000E+00 0. -1.
         21    1    1    2  503  504  0.90145516906E+01 -0.71107793465E+02  0.56553474573E+00  0.71679148037E+02  0.00000000000E+00 0. -1.
         21    1    1    2  504  502 -0.90145516906E+01  0.71107793465E+02 -0.11854732264E+02  0.72650637373E+02  0.00000000000E+00 0. -1.
</event>
<event>
 4    1  0.3080871E+006  0.2507509E+02  0.7546771E-02  0.1467965E+00
         21   -1    0    0  503  501  0.00000000000E+00  0.00000000000E+00  0.17960993414E+03  0.17960993414E+03  0.00000000000E+00 0. -1.
         21   -1    0    0  501  502 -0.00000000000E+00 -0.00000000000E+00 -0.19424003048E+02  0.19424003048E+02  0.00000000000E+00 0.  1.
         21    1    1    2  503  504  0.24907548780E+02 -0.28937759353E+01  0.17019703239E+03  0.17203426915E+03  0.00000000000E+00 0. -1.
         21    1    1    2  504  502 -0.24907548780E+02  0.28937759353E+01 -0.10011101296E+02  0.26999668046E+02  0.00000000000E+00 0.  1.
</event>
<event>
 4    1  0.3080871E+006  0.2619274E+02  0.7546771E-02  0.1455890E+00
         21   -1    0    0  504  501  0.00000000000E+00  0.00000000000E+00  0.68832930751E+01  0.68832930751E+01  0.00000000000E+00 0.  1.
         21   -1    0    0  501  502 -0.00000000000E+00 -0.00000000000E+00 -0.21583880661E+03  0.21583880661E+03  0.00000000000E+00 0.  1.
         21    1    1    2  503  502 -0.26106786808E+02  0.21201710186E+01 -0.18617602946E+03  0.18800950345E+03  0.00000000000E+00 0.  1.
         21    1    1    2  504  503  0.26106786808E+02 -0.21201710186E+01 -0.22779484077E+02  0.34712596235E+02  0.00000000000E+00 0.  1.
</event>
<event>
 4    1  0.3080871E+006  0.2067056E+02  0.7546771E-02  0.1524021E+00
         21   -1    0    0  503  501  0.00000000000E+00  0.00000000000E+00  0.94538742136E+02  0.94538742136E+02  0.00000000000E+00 0.  1.
         21   -1    0    0  504  502 -0.00000000000E+00 -0.00000000000E+00 -0.51448407490E+01  0.51448407490E+01  0.00000000000E+00 0.  1.
         21    1    1    2  503  502 -0.16357912973E+02 -0.12636874746E+02  0.27320900133E+02  0.34259356448E+02  0.00000000000E+00 0.  1.
         21    1    1    2  504  501  0.16357912973E+02  0.12636874746E+02  0.62073001254E+02  0.65424226437E+02  0.00000000000E+00 0.  1.
</event>
<event>
 4    1  0.3080871E+006  0.2299844E+02  0.7546771E-02  0.1492518E+00
         21   -1    0    0  504  501  0.00000000000E+00  0.00000000000E+00  0.13880263379E+04  0.13880263379E+04  0.00000000000E+00 0. -1.
         21   -1    0    0  501  502 -0.00000000000E+00 -0.00000000000E+00 -0.93325831160E+00  0.93325831160E+00  0.00000000000E+00 0. -1.
         21    1    1    2  503  502 -0.17053796021E+02  0.15430363719E+02  0.15934602304E+03  0.16099715259E+03  0.00000000000E+00 0. -1.
         21    1    1    2  504  503  0.17053796021E+02 -0.15430363719E+02  0.12277470565E+04  0.12279624436E+04  0.00000000000E+00 0. -1.
</event>
<event>
 4    1  0.3080871E+006  0.2062572E+02  0.7546771E-02  0.1524676E+00
         21   -1    0    0  502  501  0.00000000000E+00  0.00000000000E+00  0.53941966082E+02  0.53941966082E+02  0.00000000000E+00 0.  1.
         21   -1    0    0  503  502 -0.00000000000E+00 -0.00000000000E+00 -0.10725219297E+02  0.10725219297E+02  0.00000000000E+00 0.  1.
         21    1    1    2  503  504 -0.98078322183E+01 -0.18144603547E+02  0.49741580498E+01  0.21217032285E+02  0.00000000000E+00 0.  1.
         21    1    1    2  504  501  0.98078322183E+01  0.18144603547E+02  0.38242588735E+02  0.43450153094E+02  0.00000000000E+00 0.  1.
</event>
<event>
 4    1  0.3080871E+006  0.4518076E+02  0.7546771E-02  0.1320538E+00
         21   -1    0    0  504  501  0.00000000000E+00  0.00000000000E+00  0.25934793914E+02  0.25934793914E+02  0.00000000000E+00 0. -1.
         21   -1    0    0  503  502 -0.00000000000E+00 -0.00000000000E+00 -0.95081775443E+02  0.95081775443E+02  0.00000000000E+00 0. -1.
         21    1    1    2  503  501  0.44581532583E+02 -0.73340231487E+01 -0.94645878748E+01  0.46161448923E+02  0.00000000000E+00 0. -1.
         21    1    1    2  504  502 -0.44581532583E+02  0.73340231487E+01 -0.59682393654E+02  0.74855120434E+02  0.00000000000E+00 0. -1.
</event>
<event>
 4    1  0.3080871E+006  0.5303914E+02  0.7546771E-02  0.1285507E+00
         21   -1    0    0  503  501  0.00000000000E+00  0.00000000000E+00  0.19914283910E+02  0.19914283910E+02  0.00000000000E+00 0. -1.
         21   -1    0    0  501  502 -0.00000000000E+00 -0.00000000000E+00 -0.19101798140E+03  0.19101798140E+03  0.00000000000E+00 0.  1.
         21    1    1    2  503  504 -0.16672269079E+02 -0.50350629250E+02 -0.31725562926E+02  0.61803412244E+02  0.00000000000E+00 0. -1.
         21    1    1    2  504  502  0.16672269079E+02  0.50350629250E+02 -0.13937813457E+03  0.14912885307E+03  0.00000000000E+00 0.  1.
</event>
<event>
 4    1  0.3080871E+006  0.2497055E+02  0.7546771E-02  0.1469133E+00
         21   -1    0    0  503  501  0.00000000000E+00  0.00000000000E+00  0.78130618113E+02  0.78130618113E+02  0.00000000000E+00 0. -1.
         21   -1    0    0  504  502 -0.00000000000E+00 -0.00000000000E+00 -0.34962720255E+03  0.34962720255E+03  0.00000000000E+00 0. -1.
         21    1    1    2  503  502  0.24583460123E+02  0.43797286278E+01  0.75675527008E+02  0.79688856952E+02  0.00000000000E+00 0. -1.
         21    1    1    2  504  501 -0.24583460123E+02 -0.43797286278E+01 -0.34717211145E+03  0.34806896371E+03  0.00000000000E+00 0. -1.
</event>
