<event>
 4    1  0.9360795E+003  0.4301040E+02  0.7546771E-02  0.1331694E+00
          2   -1    0    0  502    0  0.00000000000E+00  0.00000000000E+00  0.18532064096E+04  0.18532064096E+04  0.00000000000E+00 0. -1.
          2   -1    0    0  501    0 -0.00000000000E+00 -0.00000000000E+00 -0.72345166793E+01  0.72345166793E+01  0.00000000000E+00 0. -1.
          2    1    1    2  501    0 -0.27304453555E+00 -0.43009530075E+02  0.17866498420E+04  0.17871674661E+04  0.00000000000E+00 0. -1.
          2    1    1    2  502    0  0.27304453555E+00  0.43009530075E+02  0.59322050927E+02  0.73273460112E+02  0.00000000000E+00 0. -1.
</event>
<event>
 4    1  0.9360795E+003  0.2830522E+02  0.7546771E-02  0.1434920E+00
          2   -1    0    0  501    0  0.00000000000E+00  0.00000000000E+00  0.16941606226E+04  0.16941606226E+04  0.00000000000E+00 0. -1.
          2   -1    0    0  502    0 -0.00000000000E+00 -0.00000000000E+00 -0.28523996059E+03  0.28523996059E+03  0.00000000000E+00 0. -1.
          2    1    1    2  501    0  0.25735731871E+02  0.11783779508E+02 -0.28441918984E+03  0.28582417830E+03  0.00000000000E+00 0. -1.
          2    1    1    2  502    0 -0.25735731871E+02 -0.11783779508E+02  0.16933398518E+04  0.16935764049E+04  0.00000000000E+00 0. -1.
</event>
<event>
 4    1  0.9360795E+003  0.2031934E+02  0.7546771E-02  0.1529209E+00
          2   -1    0    0  501    0  0.00000000000E+00  0.00000000000E+00  0.14221379872E+04  0.14221379872E+04  0.00000000000E+00 0. -1.
          2   -1    0    0  502    0 -0.00000000000E+00 -0.00000000000E+00 -0.22151107995E+01  0.22151107995E+01  0.00000000000E+00 0. -1.
          2    1    1    2  501    0  0.16107540127E+02 -0.12386392162E+02  0.46093534357E+02  0.50373499672E+02  0.00000000000E+00 0. -1.
          2    1    1    2  502    0 -0.16107540127E+02  0.12386392162E+02  0.13738293421E+04  0.13739795984E+04  0.00000000000E+00 0. -1.
</event>
<event>
 4    1  0.9360795E+003  0.2188479E+02  0.7546771E-02  0.1506998E+00
          2   -1    0    0  501    0  0.00000000000E+00  0.00000000000E+00  0.77640997539E+02  0.77640997539E+02  0.00000000000E+00 0.  1.
          2   -1    0    0  502    0 -0.00000000000E+00 -0.00000000000E+00 -0.12260893961E+02  0.12260893961E+02  0.00000000000E+00 0.  1.
          2    1    1    2  501    0 -0.19032642601E+02  0.10802885568E+02  0.10042487472E+01  0.21907814508E+02  0.00000000000E+00 0.  1.
          2    1    1    2  502    0  0.19032642601E+02 -0.10802885568E+02  0.64375854830E+02  0.67994076992E+02  0.00000000000E+00 0.  1.
</event>
<event>
 4    1  0.9360795E+003  0.3387598E+02  0.7546771E-02  0.1388642E+00
          2   -1    0    0  502    0  0.00000000000E+00  0.00000000000E+00  0.19838735770E+01  0.19838735770E+01  0.00000000000E+00 0.  1.
          2   -1    0    0  501    0 -0.00000000000E+00 -0.00000000000E+00 -0.11803715763E+04  0.11803715763E+04  0.00000000000E+00 0. -1.
          2    1    1    2  501    0 -0.33800070697E+02 -0.22665096872E+01 -0.16703412882E+03  0.17043468555E+03  0.00000000000E+00 0.  1.
          2    1    1    2  502    0  0.33800070697E+02  0.22665096872E+01 -0.10113535739E+04  0.10119207643E+04  0.00000000000E+00 0. -1.
</event>
<event>
 4    1  0.9360795E+003  0.2519401E+02  0.7546771E-02  0.1466645E+00
          2   -1    0    0  502    0  0.00000000000E+00  0.00000000000E+00  0.91817455379E+02  0.91817455379E+02  0.00000000000E+00 0.  1.
          2   -1    0    0  501    0 -0.00000000000E+00 -0.00000000000E+00 -0.15602004747E+02  0.15602004747E+02  0.00000000000E+00 0. -1.
          2    1    1    2  501    0 -0.14915858330E+02 -0.20304071647E+02  0.78189475039E+02  0.82148232860E+02  0.00000000000E+00 0.  1.
          2    1    1    2  502    0  0.14915858330E+02  0.20304071647E+02 -0.19740244067E+01  0.25271227266E+02  0.00000000000E+00 0. -1.
</event>
<event>
 4    1  0.1095250E+004  0.2373348E+02  0.7546771E-02  0.1483488E+00
          2   -1    0    0  501    0  0.00000000000E+00  0.00000000000E+00  0.94467369698E+03  0.94467369698E+03  0.00000000000E+00 0.  1.
          2   -1    0    0  502    0 -0.00000000000E+00 -0.00000000000E+00 -0.39354809177E+03  0.39354809177E+03  0.00000000000E+00 0. -1.
          2    1    1    2  501    0  0.98081511505E+01  0.21611998329E+02 -0.39304101223E+03  0.39375692451E+03  0.00000000000E+00 0. -1.
          2    1    1    2  502    0 -0.98081511505E+01 -0.21611998329E+02  0.94416661744E+03  0.94446486425E+03  0.00000000000E+00 0.  1.
</event>
<event>
 4    1  0.9360795E+003  0.2860429E+02  0.7546771E-02  0.1432126E+00
          2   -1    0    0  501    0  0.00000000000E+00  0.00000000000E+00  0.19104155738E+04  0.19104155738E+04  0.00000000000E+00 0.  1.
          2   -1    0    0  502    0 -0.00000000000E+00 -0.00000000000E+00 -0.96422323829E+00  0.96422323829E+00  0.00000000000E+00 0. -1.
          2    1    1    2  501    0 -0.17141848938E+02  0.22898965154E+02  0.24222565638E+03  0.24390874154E+03  0.00000000000E+00 0. -1.
          2    1    1    2  502    0  0.17141848938E+02 -0.22898965154E+02  0.16672256942E+04  0.16674710555E+04  0.00000000000E+00 0.  1.
</event>
<event>
 4    1  0.9360795E+003  0.2270989E+02  0.7546771E-02  0.1496174E+00
          2   -1    0    0  502    0  0.00000000000E+00  0.00000000000E+00  0.23175726060E+02  0.23175726060E+02  0.00000000000E+00 0.  1.
          2   -1    0    0  501    0 -0.00000000000E+00 -0.00000000000E+00 -0.57780090261E+02  0.57780090261E+02  0.00000000000E+00 0. -1.
          2    1    1    2  501    0  0.30461407631E+01 -0.22504667082E+02  0.14437768415E+02  0.26910744523E+02  0.00000000000E+00 0.  1.
          2    1    1    2  502    0 -0.30461407631E+01  0.22504667082E+02 -0.49042132616E+02  0.54045071797E+02  0.00000000000E+00 0. -1.
</event>
<event>
 4    1  0.9360795E+003  0.2326434E+02  0.7546771E-02  0.1489205E+00
          2   -1    0    0  502    0  0.00000000000E+00  0.00000000000E+00  0.77580711530E+03  0.77580711530E+03  0.00000000000E+00 0.  1.
          2   -1    0    0  501    0 -0.00000000000E+00 -0.00000000000E+00 -0.30911605336E+03  0.30911605336E+03  0.00000000000E+00 0.  1.
          2    1    1    2  501    0  0.17871214465E+02  0.14894605182E+02  0.77519463738E+03  0.77554365151E+03  0.00000000000E+00 0.  1.
          2    1    1    2  502    0 -0.17871214465E+02 -0.14894605182E+02 -0.30850357544E+03  0.30937951715E+03  0.00000000000E+00 0.  1.
</event>
<event>
 4    1  0.9360795E+003  0.4528877E+02  0.7546771E-02  0.1320002E+00
          2   -1    0    0  501    0  0.00000000000E+00  0.00000000000E+00  0.62203395389E+03  0.62203395389E+03  0.00000000000E+00 0. -1.
          2   -1    0    0  502    0 -0.00000000000E+00 -0.00000000000E+00 -0.30238026260E+03  0.30238026260E+03  0.00000000000E+00 0.  1.
          2    1    1    2  501    0 -0.25528469376E+02 -0.37408152764E+02 -0.29985324092E+03  0.30325408279E+03  0.00000000000E+00 0.  1.
          2    1    1    2  502    0  0.25528469376E+02  0.37408152764E+02  0.61950693221E+03  0.62116013370E+03  0.00000000000E+00 0. -1.
</event>
<event>
 4    1  0.9360795E+003  0.2069519E+02  0.7546771E-02  0.1523662E+00
          2   -1    0    0  502    0  0.00000000000E+00  0.00000000000E+00  0.39580662352E+02  0.39580662352E+02  0.00000000000E+00 0.  1.
          2   -1    0    0  501    0 -0.00000000000E+00 -0.00000000000E+00 -0.28458688845E+03  0.28458688845E+03  0.00000000000E+00 0.  1.
          2    1    1    2  501    0 -0.56473651752E+01  0.19909746725E+02  0.36469385375E+02  0.41932169246E+02  0.00000000000E+00 0.  1.
          2    1    1    2  502    0  0.56473651752E+01 -0.19909746725E+02 -0.28147561147E+03  0.28223538156E+03  0.00000000000E+00 0.  1.
</event>
<event>
 4    1  0.9360795E+003  0.3143410E+02  0.7546771E-02  0.1407530E+00
          2   -1    0    0  502    0  0.00000000000E+00  0.00000000000E+00  0.39288586197E+02  0.39288586197E+02  0.00000000000E+00 0. -1.
          2   -1    0    0  501    0 -0.00000000000E+00 -0.00000000000E+00 -0.40011782804E+03  0.40011782804E+03  0.00000000000E+00 0. -1.
          2    1    1    2  501    0 -0.16443113927E+02 -0.26790416473E+02  0.32271686074E+02  0.45050684040E+02  0.00000000000E+00 0. -1.
          2    1    1    2  502    0  0.16443113927E+02  0.26790416473E+02 -0.39310092792E+03  0.39435573020E+03  0.00000000000E+00 0. -1.
</event>
<event>
 4    1  0.9360795E+003  0.3847503E+02  0.7546771E-02  0.1357661E+00
          2   -1    0    0  502    0  0.00000000000E+00  0.00000000000E+00  0.22722237252E+01  0.22722237252E+01  0.00000000000E+00 0.  1.
          2   -1    0    0  501    0 -0.00000000000E+00 -0.00000000000E+00 -0.92447278056E+03  0.92447278056E+03  0.00000000000E+00 0.  1.
          2    1    1    2  501    0  0.32340617838E+02 -0.20842559777E+02 -0.20930247829E+03  0.21280943419E+03  0.00000000000E+00 0.  1.
          2    1    1    2  502    0 -0.32340617838E+02  0.20842559777E+02 -0.71289807854E+03  0.71393557010E+03  0.00000000000E+00 0.  1.
</event>
<event>
 4    1  0.9360795E+003  0.3433139E+02  0.7546771E-02  0.1385326E+00
          2   -1    0    0  502    0  0.00000000000E+00  0.00000000000E+00  0.11548385291E+02  0.11548385291E+02  0.00000000000E+00 0.  1.
          2   -1    0    0  501    0 -0.00000000000E+00 -0.00000000000E+00 -0.30062825494E+03  0.30062825494E+03  0.00000000000E+00 0.  1.
          2    1    1    2  501    0 -0.31875046522E+02  0.12752479459E+02 -0.17684554499E+02  0.38618490273E+02  0.00000000000E+00 0.  1.
          2    1    1    2  502    0  0.31875046522E+02 -0.12752479459E+02 -0.27139531515E+03  0.27355814996E+03  0.00000000000E+00 0.  1.
</event>
<event>
 4    1  0.9360795E+003  0.2497665E+02  0.7546771E-02  0.1469065E+00
          2   -1    0    0  501    0  0.00000000000E+00  0.00000000000E+00  0.33221955156E+03  0.33221955156E+03  0.00000000000E+00 0. -1.
          2   -1    0    0  502    0 -0.00000000000E+00 -0.00000000000E+00 -0.38400677578E+01  0.38400677578E+01  0.00000000000E+00 0. -1.
          2    1    1    2  501    0 -0.19399022954E+02  0.15732481987E+02  0.44074269264E+02  0.50659394905E+02  0.00000000000E+00 0. -1.
          2    1    1    2  502    0  0.19399022954E+02 -0.15732481987E+02  0.28430521454E+03  0.28540022441E+03  0.00000000000E+00 0. -1.
</event>
<event>
 4    1  0.9360795E+003  0.2581167E+02  0.7546771E-02  0.1459925E+00
          2   -1    0    0  502    0  0.00000000000E+00  0.00000000000E+00  0.68000849461E+01  0.68000849461E+01  0.00000000000E+00 0.  1.
          2   -1    0    0  501    0 -0.00000000000E+00 -0.00000000000E+00 -0.17886877004E+03  0.17886877004E+03  0.00000000000E+00 0.  1.
          2    1    1    2  501    0 -0.21583388079E+02 -0.14156255781E+02 -0.23603700228E+02  0.34976804930E+02  0.00000000000E+00 0.  1.
          2    1    1    2  502    0  0.21583388079E+02  0.14156255781E+02 -0.14846498486E+03  0.15069205005E+03  0.00000000000E+00 0.  1.
</event>
<event>
 4    1  0.9360795E+003  0.2624413E+02  0.7546771E-02  0.1455352E+00
          2   -1    0    0  502    0  0.00000000000E+00  0.00000000000E+00  0.71685888009E+03  0.71685888009E+03  0.00000000000E+00 0. -1.
          2   -1    0    0  501    0 -0.00000000000E+00 -0.00000000000E+00 -0.14864307999E+01  0.14864307999E+01  0.00000000000E+00 0. -1.
          2    1    1    2  501    0 -0.28236486787E+01 -0.26091789449E+02  0.57127250987E+03  0.57187501694E+03  0.00000000000E+00 0. -1.
          2    1    1    2  502    0  0.28236486787E+01  0.26091789449E+02  0.14409993943E+03  0.14647029396E+03  0.00000000000E+00 0. -1.
</event>
<event>
 4    1  0.9360795E+003  0.2183672E+02  0.7546771E-02  0.1507646E+00
          2   -1    0    0  501    0  0.00000000000E+00  0.00000000000E+00  0.69900266293E+02  0.69900266293E+02  0.00000000000E+00 0.  1.
          2   -1    0    0  502    0 -0.00000000000E+00 -0.00000000000E+00 -0.10592786039E+03  0.10592786039E+03  0.00000000000E+00 0. -1.
          2    1    1    2  501    0 -0.21172590465E+02 -0.53445211033E+01 -0.10304992136E+03  0.10533816395E+03  0.00000000000E+00 0. -1.
          2    1    1    2  502    0  0.21172590465E+02  0.53445211033E+01  0.67022327267E+02  0.70489962726E+02  0.00000000000E+00 0.  1.
</event>
<event>
 4    1  0.9360795E+003  0.3061286E+02  0.7546771E-02  0.1414344E+00
          2   -1    0    0  501    0  0.00000000000E+00  0.00000000000E+00  0.12103403400E+02  0.12103403400E+02  0.00000000000E+00 0. -1.
          2   -1    0    0  502    0 -0.00000000000E+00 -0.00000000000E+00 -0.12429564785E+03  0.12429564785E+03  0.00000000000E+00 0.  1.
          2    1    1    2  501    0 -0.24940818702E+02  0.17751134212E+02 -0.97974331397E+02  0.10264558839E+03  0.00000000000E+00 0.  1.
          2    1    1    2  502    0  0.24940818702E+02 -0.17751134212E+02 -0.14217913051E+02  0.33753462857E+02  0.00000000000E+00 0. -1.
</event>
<event>
 4    1  0.9360795E+003  0.6339006E+02  0.7546771E-02  0.1248730E+00
          2   -1    0    0  502    0  0.00000000000E+00  0.00000000000E+00  0.11142780677E+04  0.11142780677E+04  0.00000000000E+00 0. -1.
          2   -1    0    0  501    0 -0.00000000000E+00 -0.00000000000E+00 -0.39135559191E+03  0.39135559191E+03  0.00000000000E+00 0.  1.
          2    1    1    2  501    0  0.62590701234E+02  0.10035116878E+02  0.11108015821E+04  0.11126088506E+04  0.00000000000E+00 0. -1.
          2    1    1    2  502    0 -0.62590701234E+02 -0.10035116878E+02 -0.38787910631E+03  0.39302480909E+03  0.00000000000E+00 0.  1.
</event>
<event>
 4    1  0.9360795E+003  0.2101428E+02  0.7546771E-02  0.1519061E+00
          2   -1    0    0  501    0  0.00000000000E+00  0.00000000000E+00  0.12204646334E+04  0.12204646334E+04  0.00000000000E+00 0. -1.
          2   -1    0    0  502    0 -0.00000000000E+00 -0.00000000000E+00 -0.36349734314E+02  0.36349734314E+02  0.00000000000E+00 0.  1.
          2    1    1    2  501    0  0.30510478876E+01  0.20791612662E+02 -0.33214293329E+02  0.39303808106E+02  0.00000000000E+00 0.  1.
          2    1    1    2  502    0 -0.30510478876E+01 -0.20791612662E+02  0.12173291924E+04  0.12175105596E+04  0.00000000000E+00 0. -1.
</event>
<event>
 4    1  0.9360795E+003  0.2050000E+02  0.7546771E-02  0.1526525E+00
          2   -1    0    0  502    0  0.00000000000E+00  0.00000000000E+00  0.15330657587E+01  0.15330657587E+01  0.00000000000E+00 0. -1.
          2   -1    0    0  501    0 -0.00000000000E+00 -0.00000000000E+00 -0.42455926982E+03  0.42455926982E+03  0.00000000000E+00 0. -1.
          2    1    1    2  501    0  0.14491345664E+02 -0.14500036595E+02 -0.84695552375E+02  0.87141188611E+02  0.00000000000E+00 0. -1.
          2    1    1    2  502    0 -0.14491345664E+02  0.14500036595E+02 -0.33833065169E+03  0.33895114697E+03  0.00000000000E+00 0. -1.
</event>
<event>
 4    1  0.9360795E+003  0.5284314E+02  0.7546771E-02  0.1286295E+00
          2   -1    0    0  501    0  0.00000000000E+00  0.00000000000E+00  0.55719949807E+02  0.55719949807E+02  0.00000000000E+00 0. -1.
          2   -1    0    0  502    0 -0.00000000000E+00 -0.00000000000E+00 -0.97506953801E+03  0.97506953801E+03  0.00000000000E+00 0. -1.
          2    1    1    2  501    0  0.39633721067E+02  0.34950897842E+02 -0.96165017617E+03  0.96310095963E+03  0.00000000000E+00 0. -1.
          2    1    1    2  502    0 -0.39633721067E+02 -0.34950897842E+02  0.42300587970E+02  0.67688528188E+02  0.00000000000E+00 0. -1.
</event>
<event>
 4    1  0.9360795E+003  0.2066805E+02  0.7546771E-02  0.1524057E+00
          2   -1    0    0  502    0  0.00000000000E+00  0.00000000000E+00  0.35084514633E+02  0.35084514633E+02  0.00000000000E+00 0. -1.
          2   -1    0    0  501    0 -0.00000000000E+00 -0.00000000000E+00 -0.88208824254E+03  0.88208824254E+03  0.00000000000E+00 0. -1.
          2    1    1    2  501    0 -0.13621528319E+02  0.15544204803E+02  0.31908597554E+02  0.38017455656E+02  0.00000000000E+00 0. -1.
          2    1    1    2  502    0  0.13621528319E+02 -0.15544204803E+02 -0.87891232546E+03  0.87915530152E+03  0.00000000000E+00 0. -1.
</event>
<event>
 4    1  0.9360795E+003  0.2175077E+02  0.7546771E-02  0.1508810E+00
          2   -1    0    0  501    0  0.00000000000E+00  0.00000000000E+00  0.32165657027E+03  0.32165657027E+03  0.00000000000E+00 0. -1.
          2   -1    0    0  502    0 -0.00000000000E+00 -0.00000000000E+00 -0.25586263574E+03  0.25586263574E+03  0.00000000000E+00 0.  1.
          2    1    1    2  501    0  0.16344546731E+02  0.14351018002E+02 -0.25503148110E+03  0.25595732511E+03  0.00000000000E+00 0.  1.
          2    1    1    2  502    0 -0.16344546731E+02 -0.14351018002E+02  0.32082541564E+03  0.32156188089E+03  0.00000000000E+00 0. -1.
</event>
<event>
 4    1  0.9360795E+003  0.2034480E+02  0.7546771E-02  0.1528828E+00
          2   -1    0    0  501    0  0.00000000000E+00  0.00000000000E+00  0.61953694611E+03  0.61953694611E+03  0.00000000000E+00 0. -1.
          2   -1    0    0  502    0 -0.00000000000E+00 -0.00000000000E+00 -0.14773314083E+03  0.14773314083E+03  0.00000000000E+00 0. -1.
          2    1    1    2  501    0 -0.19451117580E+02  0.59636257724E+01 -0.14686469699E+03  0.14826715762E+03  0.00000000000E+00 0. -1.
          2    1    1    2  502    0  0.19451117580E+02 -0.59636257724E+01  0.61866850227E+03  0.61900292932E+03  0.00000000000E+00 0. -1.
</event>
<event>
 4    1  0.9360795E+003  0.3983737E+02  0.7546771E-02  0.1349441E+00
          2   -1    0    0  501    0  0.00000000000E+00  0.00000000000E+00  0.20076713046E+04  0.20076713046E+04  0.00000000000E+00 0.  1.
          2   -1    0    0  502    0 -0.00000000000E+00 -0.00000000000E+00 -0.22528764114E+01  0.22528764114E+01  0.00000000000E+00 0. -1.
          2    1    1    2  501    0 -0.37991151238E+02  0.11986998567E+02  0.19302780770E+03  0.19709578954E+03  0.00000000000E+00 0. -1.
          2    1    1    2  502    0  0.37991151238E+02 -0.11986998567E+02  0.18123906205E+04  0.18128283915E+04  0.00000000000E+00 0.  1.
</event>
<event>
 4    1  0.9360795E+003  0.3929775E+02  0.7546771E-02  0.1352651E+00
          2   -1    0    0  501    0  0.00000000000E+00  0.00000000000E+00  0.13458506700E+03  0.13458506700E+03  0.00000000000E+00 0.  1.
          2   -1    0    0  502    0 -0.00000000000E+00 -0.00000000000E+00 -0.24725804018E+02  0.24725804018E+02  0.00000000000E+00 0. -1.
          2    1    1    2  501    0  0.15509280570E+02 -0.36107829159E+02 -0.33836489434E+01  0.39443151377E+02  0.00000000000E+00 0. -1.
          2    1    1    2  502    0 -0.15509280570E+02  0.36107829159E+02  0.11324291192E+03  0.11986771964E+03  0.00000000000E+00 0.  1.
</event>
<event>
 4    1  0.9360795E+003  0.2047063E+02  0.7546771E-02  0.1526959E+00
          2   -1    0    0  502    0  0.00000000000E+00  0.00000000000E+00  0.10267071417E+03  0.10267071417E+03  0.00000000000E+00 0. -1.
          2   -1    0    0  501    0 -0.00000000000E+00 -0.00000000000E+00 -0.70725174375E+02  0.70725174375E+02  0.00000000000E+00 0.  1.
          2    1    1    2  501    0 -0.14800911305E+02 -0.14141424140E+02  0.10013192556E+03  0.10220298121E+03  0.00000000000E+00 0. -1.
          2    1    1    2  502    0  0.14800911305E+02  0.14141424140E+02 -0.68186385760E+02  0.71192907338E+02  0.00000000000E+00 0.  1.
</event>
<event>
 4    1  0.9360795E+003  0.3803346E+02  0.7546771E-02  0.1360412E+00
          2   -1    0    0  502    0  0.00000000000E+00  0.00000000000E+00  0.12609642648E+04  0.12609642648E+04  0.00000000000E+00 0.  1.
          2   -1    0    0  501    0 -0.00000000000E+00 -0.00000000000E+00 -0.51395200567E+03  0.51395200567E+03  0.00000000000E+00 0.  1.
          2    1    1    2  501    0  0.33465905990E+02 -0.18071453279E+02  0.12599732804E+04  0.12605471874E+04  0.00000000000E+00 0.  1.
          2    1    1    2  502    0 -0.33465905990E+02  0.18071453279E+02 -0.51296102127E+03  0.51436908308E+03  0.00000000000E+00 0.  1.
</event>
<event>
 4    1  0.9360795E+003  0.2349401E+02  0.7546771E-02  0.1486386E+00
          2   -1    0    0  501    0  0.00000000000E+00  0.00000000000E+00  0.16569088665E+01  0.16569088665E+01  0.00000000000E+00 0. -1.
          2   -1    0    0  502    0 -0.00000000000E+00 -0.00000000000E+00 -0.71789887372E+03  0.71789887372E+03  0.00000000000E+00 0.  1.
          2    1    1    2  501    0 -0.17409876484E+02 -0.15775450602E+02 -0.62151258203E+03  0.62195647618E+03  0.00000000000E+00 0.  1.
          2    1    1    2  502    0  0.17409876484E+02  0.15775450602E+02 -0.94729382823E+02  0.97599306406E+02  0.00000000000E+00 0. -1.
</event>
<event>
 4    1  0.9360795E+003  0.3125983E+02  0.7546771E-02  0.1408956E+00
          2   -1    0    0  501    0  0.00000000000E+00  0.00000000000E+00  0.15076890540E+04  0.15076890540E+04  0.00000000000E+00 0. -1.
          2   -1    0    0  502    0 -0.00000000000E+00 -0.00000000000E+00 -0.13254262199E+01  0.13254262199E+01  0.00000000000E+00 0. -1.
          2    1    1    2  501    0  0.13534532901E+02  0.28177883825E+02  0.21382603169E+03  0.21609893231E+03  0.00000000000E+00 0. -1.
          2    1    1    2  502    0 -0.13534532901E+02 -0.28177883825E+02  0.12925375961E+04  0.12929155479E+04  0.00000000000E+00 0. -1.
</event>
<event>
 4    1  0.9360795E+003  0.2106425E+02  0.7546771E-02  0.1518349E+00
          2   -1    0    0  501    0  0.00000000000E+00  0.00000000000E+00  0.13974169943E+03  0.13974169943E+03  0.00000000000E+00 0. -1.
          2   -1    0    0  502    0 -0.00000000000E+00 -0.00000000000E+00 -0.48049780996E+01  0.48049780996E+01  0.00000000000E+00 0.  1.
          2    1    1    2  501    0  0.18872598188E+02  0.93556266916E+01  0.25376168685E+02  0.32979579292E+02  0.00000000000E+00 0.  1.
          2    1    1    2  502    0 -0.18872598188E+02 -0.93556266916E+01  0.10956055265E+03  0.11156709824E+03  0.00000000000E+00 0. -1.
</event>
<event>
 4    1  0.9360795E+003  0.2054218E+02  0.7546771E-02  0.1525903E+00
          2   -1    0    0  502    0  0.00000000000E+00  0.00000000000E+00  0.11095119526E+04  0.11095119526E+04  0.00000000000E+00 0. -1.
          2   -1    0    0  501    0 -0.00000000000E+00 -0.00000000000E+00 -0.12594691688E+02  0.12594691688E+02  0.00000000000E+00 0. -1.
          2    1    1    2  501    0 -0.19727646659E+02  0.57272238443E+01  0.11009757623E+04  0.11011673853E+04  0.00000000000E+00 0. -1.
          2    1    1    2  502    0  0.19727646659E+02 -0.57272238443E+01 -0.40585013962E+01  0.20939259043E+02  0.00000000000E+00 0. -1.
</event>
<event>
 4    1  0.9360795E+003  0.3529133E+02  0.7546771E-02  0.1378527E+00
          2   -1    0    0  502    0  0.00000000000E+00  0.00000000000E+00  0.97519400256E+03  0.97519400256E+03  0.00000000000E+00 0.  1.
          2   -1    0    0  501    0 -0.00000000000E+00 -0.00000000000E+00 -0.12872755055E+01  0.12872755055E+01  0.00000000000E+00 0.  1.
          2    1    1    2  501    0  0.24016693889E+02  0.25858784448E+02  0.44367189794E+03  0.44507328760E+03  0.00000000000E+00 0.  1.
          2    1    1    2  502    0 -0.24016693889E+02 -0.25858784448E+02  0.53023482912E+03  0.53140799047E+03  0.00000000000E+00 0.  1.
</event>
<event>
 4    1  0.9360795E+003  0.4513004E+02  0.7546771E-02  0.1320790E+00
          2   -1    0    0  501    0  0.00000000000E+00  0.00000000000E+00  0.51113185469E+02  0.51113185469E+02  0.00000000000E+00 0.  1.
          2   -1    0    0  502    0 -0.00000000000E+00 -0.00000000000E+00 -0.10553754754E+03  0.10553754754E+03  0.00000000000E+00 0.  1.
          2    1    1    2  501    0  0.44737397022E+02  0.59401496880E+01 -0.89006640679E+02  0.99794299214E+02  0.00000000000E+00 0.  1.
          2    1    1    2  502    0 -0.44737397022E+02 -0.59401496880E+01  0.34582278605E+02  0.56856433798E+02  0.00000000000E+00 0.  1.
</event>
<event>
 4    1  0.9360795E+003  0.3516010E+02  0.7546771E-02  0.1379441E+00
          2   -1    0    0  502    0  0.00000000000E+00  0.00000000000E+00  0.86561627247E+02  0.86561627247E+02  0.00000000000E+00 0.  1.
          2   -1    0    0  501    0 -0.00000000000E+00 -0.00000000000E+00 -0.91951559807E+03  0.91951559807E+03  0.00000000000E+00 0. -1.
          2    1    1    2  501    0 -0.26557364760E+01  0.35059662339E+02  0.82639846369E+02  0.89808557874E+02  0.00000000000E+00 0.  1.
          2    1    1    2  502    0  0.26557364760E+01 -0.35059662339E+02 -0.91559381719E+03  0.91626866744E+03  0.00000000000E+00 0. -1.
</event>
<event>
 4    1  0.9360795E+003  0.2070846E+02  0.7546771E-02  0.1523468E+00
          2   -1    0    0  502    0  0.00000000000E+00  0.00000000000E+00  0.40592286827E+03  0.40592286827E+03  0.00000000000E+00 0. -1.
          2   -1    0    0  501    0 -0.00000000000E+00 -0.00000000000E+00 -0.99423724225E+01  0.99423724225E+01  0.00000000000E+00 0. -1.
          2    1    1    2  501    0 -0.41973339339E+00 -0.20704206313E+02  0.39456542875E+03  0.39510848877E+03  0.00000000000E+00 0. -1.
          2    1    1    2  502    0  0.41973339339E+00  0.20704206313E+02  0.14150670919E+01  0.20756751915E+02  0.00000000000E+00 0. -1.
</event>
<event>
 4    1  0.9360795E+003  0.3368325E+02  0.7546771E-02  0.1390064E+00
          2   -1    0    0  502    0  0.00000000000E+00  0.00000000000E+00  0.78221712610E+02  0.78221712610E+02  0.00000000000E+00 0.  1.
          2   -1    0    0  501    0 -0.00000000000E+00 -0.00000000000E+00 -0.24701245114E+04  0.24701245114E+04  0.00000000000E+00 0. -1.
          2    1    1    2  501    0 -0.52061634903E+01  0.33278479536E+02  0.74475268985E+02  0.81738161399E+02  0.00000000000E+00 0.  1.
          2    1    1    2  502    0  0.52061634903E+01 -0.33278479536E+02 -0.24663780678E+04  0.24666080626E+04  0.00000000000E+00 0. -1.
</event>
<event>
 4    1  0.9360795E+003  0.4648357E+02  0.7546771E-02  0.1314183E+00
          2   -1    0    0  502    0  0.00000000000E+00  0.00000000000E+00  0.62709277724E+02  0.62709277724E+02  0.00000000000E+00 0. -1.
          2   -1    0    0  501    0 -0.00000000000E+00 -0.00000000000E+00 -0.39239427766E+02  0.39239427766E+02  0.00000000000E+00 0. -1.
          2    1    1    2  501    0 -0.35427152021E+02  0.30093834888E+02  0.29532135736E+02  0.55071490263E+02  0.00000000000E+00 0. -1.
          2    1    1    2  502    0  0.35427152021E+02 -0.30093834888E+02 -0.60622857780E+01  0.46877215227E+02  0.00000000000E+00 0. -1.
</event>
<event>
 4    1  0.9360795E+003  0.2165056E+02  0.7546771E-02  0.1510176E+00
          2   -1    0    0  502    0  0.00000000000E+00  0.00000000000E+00  0.25564932315E+03  0.25564932315E+03  0.00000000000E+00 0.  1.
          2   -1    0    0  501    0 -0.00000000000E+00 -0.00000000000E+00 -0.26120009812E+02  0.26120009812E+02  0.00000000000E+00 0. -1.
          2    1    1    2  501    0  0.12308439105E+02 -0.17811492914E+02  0.25061449539E+03  0.25154795220E+03  0.00000000000E+00 0.  1.
          2    1    1    2  502    0 -0.12308439105E+02  0.17811492914E+02 -0.21085182056E+02  0.30221380765E+02  0.00000000000E+00 0. -1.
</event>
<event>
 4    1  0.9360795E+003  0.2376714E+02  0.7546771E-02  0.1483083E+00
          2   -1    0    0  501    0  0.00000000000E+00  0.00000000000E+00  0.61200263022E+03  0.61200263022E+03  0.00000000000E+00 0.  1.
          2   -1    0    0  502    0 -0.00000000000E+00 -0.00000000000E+00 -0.23969126188E+01  0.23969126188E+01  0.00000000000E+00 0. -1.
          2    1    1    2  501    0 -0.19574522350E+02 -0.13480173397E+02  0.63906076267E+02  0.68182575368E+02  0.00000000000E+00 0. -1.
          2    1    1    2  502    0  0.19574522350E+02  0.13480173397E+02  0.54569964134E+03  0.54621696747E+03  0.00000000000E+00 0.  1.
</event>
<event>
 4    1  0.9360795E+003  0.2355043E+02  0.7546771E-02  0.1485700E+00
          2   -1    0    0  501    0  0.00000000000E+00  0.00000000000E+00  0.11835732028E+03  0.11835732028E+03  0.00000000000E+00 0.  1.
          2   -1    0    0  502    0 -0.00000000000E+00 -0.00000000000E+00 -0.86976174009E+03  0.86976174009E+03  0.00000000000E+00 0.  1.
          2    1    1    2  501    0  0.19590467573E+02 -0.13070443314E+02 -0.86842902348E+03  0.86874829020E+03  0.00000000000E+00 0.  1.
          2    1    1    2  502    0 -0.19590467573E+02  0.13070443314E+02  0.11702460366E+03  0.11937077017E+03  0.00000000000E+00 0.  1.
</event>
<event>
 4    1  0.9360795E+003  0.2597539E+02  0.7546771E-02  0.1458181E+00
          2   -1    0    0  502    0  0.00000000000E+00  0.00000000000E+00  0.43568059780E+03  0.43568059780E+03  0.00000000000E+00 0.  1.
          2   -1    0    0  501    0 -0.00000000000E+00 -0.00000000000E+00 -0.21566078695E+02  0.21566078695E+02  0.00000000000E+00 0. -1.
          2    1    1    2  501    0  0.13320402096E+02  0.22299945463E+02  0.42731897457E+03  0.42810772793E+03  0.00000000000E+00 0.  1.
          2    1    1    2  502    0 -0.13320402096E+02 -0.22299945463E+02 -0.13204455467E+02  0.29138948571E+02  0.00000000000E+00 0. -1.
</event>
<event>
 4    1  0.9360795E+003  0.2014102E+02  0.7546771E-02  0.1531891E+00
          2   -1    0    0  501    0  0.00000000000E+00  0.00000000000E+00  0.34480547897E+01  0.34480547897E+01  0.00000000000E+00 0.  1.
          2   -1    0    0  502    0 -0.00000000000E+00 -0.00000000000E+00 -0.64350039944E+03  0.64350039944E+03  0.00000000000E+00 0.  1.
          2    1    1    2  501    0 -0.72456628108E+01 -0.18792585092E+02 -0.61243919378E+03  0.61277028891E+03  0.00000000000E+00 0.  1.
          2    1    1    2  502    0  0.72456628108E+01  0.18792585092E+02 -0.27613150862E+02  0.34178165319E+02  0.00000000000E+00 0.  1.
</event>
<event>
 4    1  0.9360795E+003  0.3144463E+02  0.7546771E-02  0.1407445E+00
          2   -1    0    0  501    0  0.00000000000E+00  0.00000000000E+00  0.59676556475E+02  0.59676556475E+02  0.00000000000E+00 0.  1.
          2   -1    0    0  502    0 -0.00000000000E+00 -0.00000000000E+00 -0.60544182927E+02  0.60544182927E+02  0.00000000000E+00 0. -1.
          2    1    1    2  501    0 -0.20165823578E+02  0.24126836691E+02 -0.51663105184E+02  0.60480088678E+02  0.00000000000E+00 0. -1.
          2    1    1    2  502    0  0.20165823578E+02 -0.24126836691E+02  0.50795478732E+02  0.59740650724E+02  0.00000000000E+00 0.  1.
</event>
<event>
 4    1  0.9360795E+003  0.2541853E+02  0.7546771E-02  0.1464175E+00
          2   -1    0    0  501    0  0.00000000000E+00  0.00000000000E+00  0.55675154393E+01  0.55675154393E+01  0.00000000000E+00 0. -1.
          2   -1    0    0  502    0 -0.00000000000E+00 -0.00000000000E+00 -0.22896995821E+03  0.22896995821E+03  0.00000000000E+00 0. -1.
          2    1    1    2  501    0  0.24291375612E+02 -0.74853641775E+01 -0.19405457815E+03  0.19571224006E+03  0.00000000000E+00 0. -1.
          2    1    1    2  502    0 -0.24291375612E+02  0.74853641775E+01 -0.29347864624E+02  0.38825233598E+02  0.00000000000E+00 0. -1.
</event>
<event>
 4    1  0.9360795E+003  0.3020396E+02  0.7546771E-02  0.1417832E+00
          2   -1    0    0  501    0  0.00000000000E+00  0.00000000000E+00  0.33146643163E+03  0.33146643163E+03  0.00000000000E+00 0.  1.
          2   -1    0    0  502    0 -0.00000000000E+00 -0.00000000000E+00 -0.18618616249E+02  0.18618616249E+02  0.00000000000E+00 0. -1.
          2    1    1    2  501    0  0.21764697887E+02  0.20942233204E+02 -0.51638945949E+01  0.30642209664E+02  0.00000000000E+00 0. -1.
          2    1    1    2  502    0 -0.21764697887E+02 -0.20942233204E+02  0.31801170998E+03  0.31944283822E+03  0.00000000000E+00 0.  1.
</event>
<event>
 4    1  0.9360795E+003  0.2311130E+02  0.7546771E-02  0.1491105E+00
          2   -1    0    0  502    0  0.00000000000E+00  0.00000000000E+00  0.13259769085E+04  0.13259769085E+04  0.00000000000E+00 0. -1.
          2   -1    0    0  501    0 -0.00000000000E+00 -0.00000000000E+00 -0.69442642173E+01  0.69442642173E+01  0.00000000000E+00 0. -1.
          2    1    1    2  501    0  0.88732904536E+01 -0.21340026912E+02  0.13063581911E+04  0.13065626107E+04  0.00000000000E+00 0. -1.
          2    1    1    2  502    0 -0.88732904536E+01  0.21340026912E+02  0.12674453184E+02  0.26358562093E+02  0.00000000000E+00 0. -1.
</event>
<event>
 4    1  0.9360795E+003  0.3466129E+02  0.7546771E-02  0.1382960E+00
          2   -1    0    0  501    0  0.00000000000E+00  0.00000000000E+00  0.23056519825E+04  0.23056519825E+04  0.00000000000E+00 0. -1.
          2   -1    0    0  502    0 -0.00000000000E+00 -0.00000000000E+00 -0.61424409498E+00  0.61424409498E+00  0.00000000000E+00 0.  1.
          2    1    1    2  501    0  0.28452581277E+02 -0.19795349910E+02  0.70340406814E+03  0.70425754404E+03  0.00000000000E+00 0.  1.
          2    1    1    2  502    0 -0.28452581277E+02  0.19795349910E+02  0.16016336702E+04  0.16020086825E+04  0.00000000000E+00 0. -1.
</event>
<event>
 4    1  0.9360795E+003  0.2235811E+02  0.7546771E-02  0.1500720E+00
          2   -1    0    0  501    0  0.00000000000E+00  0.00000000000E+00  0.12079867419E+02  0.12079867419E+02  0.00000000000E+00 0. -1.
          2   -1    0    0  502    0 -0.00000000000E+00 -0.00000000000E+00 -0.78706565295E+02  0.78706565295E+02  0.00000000000E+00 0. -1.
          2    1    1    2  501    0  0.10173731164E+02 -0.19909302043E+02 -0.64573045791E+02  0.68334203415E+02  0.00000000000E+00 0. -1.
          2    1    1    2  502    0 -0.10173731164E+02  0.19909302043E+02 -0.20536520851E+01  0.22452229299E+02  0.00000000000E+00 0. -1.
</event>
<event>
 4    1  0.9360795E+003  0.2339253E+02  0.7546771E-02  0.1487627E+00
          2   -1    0    0  502    0  0.00000000000E+00  0.00000000000E+00  0.23787906259E+03  0.23787906259E+03  0.00000000000E+00 0.  1.
          2   -1    0    0  501    0 -0.00000000000E+00 -0.00000000000E+00 -0.88025589260E+01  0.88025589260E+01  0.00000000000E+00 0.  1.
          2    1    1    2  501    0  0.23361860706E+02 -0.11973684591E+01  0.22054464762E+03  0.22178176620E+03  0.00000000000E+00 0.  1.
          2    1    1    2  502    0 -0.23361860706E+02  0.11973684591E+01  0.85318560406E+01  0.24899855308E+02  0.00000000000E+00 0.  1.
</event>
<event>
 4    1  0.9360795E+003  0.3054494E+02  0.7546771E-02  0.1414919E+00
          2   -1    0    0  501    0  0.00000000000E+00  0.00000000000E+00  0.32599797820E+03  0.32599797820E+03  0.00000000000E+00 0.  1.
          2   -1    0    0  502    0 -0.00000000000E+00 -0.00000000000E+00 -0.31637210673E+01  0.31637210673E+01  0.00000000000E+00 0.  1.
          2    1    1    2  501    0  0.28259455705E+02 -0.11592942271E+02  0.11058809309E+03  0.11472889558E+03  0.00000000000E+00 0.  1.
          2    1    1    2  502    0 -0.28259455705E+02  0.11592942271E+02  0.21224616404E+03  0.21443280369E+03  0.00000000000E+00 0.  1.
</event>
<event>
 4    1  0.9360795E+003  0.2508464E+02  0.7546771E-02  0.1467859E+00
          2   -1    0    0  501    0  0.00000000000E+00  0.00000000000E+00  0.33416330797E+03  0.33416330797E+03  0.00000000000E+00 0.  1.
          2   -1    0    0  502    0 -0.00000000000E+00 -0.00000000000E+00 -0.29006377251E+01  0.29006377251E+01  0.00000000000E+00 0. -1.
          2    1    1    2  501    0 -0.24474735638E+02  0.54978823387E+01  0.65809431981E+02  0.70428124584E+02  0.00000000000E+00 0. -1.
          2    1    1    2  502    0  0.24474735638E+02 -0.54978823387E+01  0.26545323827E+03  0.26663582111E+03  0.00000000000E+00 0.  1.
</event>
<event>
 4    1  0.9360795E+003  0.3592412E+02  0.7546771E-02  0.1374180E+00
          2   -1    0    0  502    0  0.00000000000E+00  0.00000000000E+00  0.74528077717E+03  0.74528077717E+03  0.00000000000E+00 0.  1.
          2   -1    0    0  501    0 -0.00000000000E+00 -0.00000000000E+00 -0.12446312228E+03  0.12446312228E+03  0.00000000000E+00 0. -1.
          2    1    1    2  501    0  0.33133222892E+02 -0.13882792514E+02  0.74224505825E+03  0.74311390035E+03  0.00000000000E+00 0.  1.
          2    1    1    2  502    0 -0.33133222892E+02  0.13882792514E+02 -0.12142740336E+03  0.12662999911E+03  0.00000000000E+00 0. -1.
</event>
<event>
 4    1  0.9360795E+003  0.2632684E+02  0.7546771E-02  0.1454490E+00
          2   -1    0    0  501    0  0.00000000000E+00  0.00000000000E+00  0.42888869803E+01  0.42888869803E+01  0.00000000000E+00 0. -1.
          2   -1    0    0  502    0 -0.00000000000E+00 -0.00000000000E+00 -0.55446160899E+03  0.55446160899E+03  0.00000000000E+00 0. -1.
          2    1    1    2  501    0 -0.24469219123E+02 -0.97139102201E+01 -0.51024968156E+03  0.51092841012E+03  0.00000000000E+00 0. -1.
          2    1    1    2  502    0  0.24469219123E+02  0.97139102201E+01 -0.39923040449E+02  0.47822085849E+02  0.00000000000E+00 0. -1.
</event>
<event>
 4    1  0.9360795E+003  0.2402016E+02  0.7546771E-02  0.1480070E+00
          2   -1    0    0  502    0  0.00000000000E+00  0.00000000000E+00  0.24342637103E+03  0.24342637103E+03  0.00000000000E+00 0. -1.
          2   -1    0    0  501    0 -0.00000000000E+00 -0.00000000000E+00 -0.13709460296E+02  0.13709460296E+02  0.00000000000E+00 0.  1.
          2    1    1    2  501    0 -0.72934835947E+01 -0.22886094512E+02  0.23178547015E+03  0.23302676326E+03  0.00000000000E+00 0. -1.
          2    1    1    2  502    0  0.72934835947E+01  0.22886094512E+02 -0.20685594111E+01  0.24109068066E+02  0.00000000000E+00 0.  1.
</event>
<event>
 4    1  0.9360795E+003  0.2146345E+02  0.7546771E-02  0.1512750E+00
          2   -1    0    0  501    0  0.00000000000E+00  0.00000000000E+00  0.13732272321E+02  0.13732272321E+02  0.00000000000E+00 0. -1.
          2   -1    0    0  502    0 -0.00000000000E+00 -0.00000000000E+00 -0.36176205427E+02  0.36176205427E+02  0.00000000000E+00 0. -1.
          2    1    1    2  501    0  0.16296848886E+01  0.21401488451E+02 -0.17949049628E+02  0.27979420353E+02  0.00000000000E+00 0. -1.
          2    1    1    2  502    0 -0.16296848886E+01 -0.21401488451E+02 -0.44948834780E+01  0.21929057395E+02  0.00000000000E+00 0. -1.
</event>
<event>
 4    1  0.9360795E+003  0.4784742E+02  0.7546771E-02  0.1307785E+00
          2   -1    0    0  501    0  0.00000000000E+00  0.00000000000E+00  0.38922142569E+02  0.38922142569E+02  0.00000000000E+00 0.  1.
          2   -1    0    0  502    0 -0.00000000000E+00 -0.00000000000E+00 -0.36616760464E+03  0.36616760464E+03  0.00000000000E+00 0. -1.
          2    1    1    2  501    0  0.45405057197E+02 -0.15091592709E+02 -0.34918798786E+03  0.35245088488E+03  0.00000000000E+00 0. -1.
          2    1    1    2  502    0 -0.45405057197E+02  0.15091592709E+02  0.21942525785E+02  0.52638862330E+02  0.00000000000E+00 0.  1.
</event>
<event>
 4    1  0.9360795E+003  0.3384059E+02  0.7546771E-02  0.1388903E+00
          2   -1    0    0  501    0  0.00000000000E+00  0.00000000000E+00  0.13111515617E+03  0.13111515617E+03  0.00000000000E+00 0. -1.
          2   -1    0    0  502    0 -0.00000000000E+00 -0.00000000000E+00 -0.19285947900E+02  0.19285947900E+02  0.00000000000E+00 0.  1.
          2    1    1    2  501    0 -0.33454907962E+02  0.50945753753E+01  0.29052871914E+00  0.33841837597E+02  0.00000000000E+00 0.  1.
          2    1    1    2  502    0  0.33454907962E+02 -0.50945753753E+01  0.11153867955E+03  0.11655926647E+03  0.00000000000E+00 0. -1.
</event>
<event>
 4    1  0.9360795E+003  0.2104679E+02  0.7546771E-02  0.1518598E+00
          2   -1    0    0  502    0  0.00000000000E+00  0.00000000000E+00  0.16551649150E+02  0.16551649150E+02  0.00000000000E+00 0.  1.
          2   -1    0    0  501    0 -0.00000000000E+00 -0.00000000000E+00 -0.26876968036E+02  0.26876968036E+02  0.00000000000E+00 0.  1.
          2    1    1    2  501    0 -0.21046444951E+02  0.12052235321E+00 -0.65783068313E+01  0.22050884143E+02  0.00000000000E+00 0.  1.
          2    1    1    2  502    0  0.21046444951E+02 -0.12052235321E+00 -0.37470120550E+01  0.21377733043E+02  0.00000000000E+00 0.  1.
</event>
<event>
 4    1  0.9360795E+003  0.2842233E+02  0.7546771E-02  0.1433821E+00
          2   -1    0    0  502    0  0.00000000000E+00  0.00000000000E+00  0.48665284319E+02  0.48665284319E+02  0.00000000000E+00 0. -1.
          2   -1    0    0  501    0 -0.00000000000E+00 -0.00000000000E+00 -0.19495711706E+03  0.19495711706E+03  0.00000000000E+00 0.  1.
          2    1    1    2  501    0  0.27983888232E+02 -0.49730394609E+01  0.43364100230E+02  0.51848570962E+02  0.00000000000E+00 0. -1.
          2    1    1    2  502    0 -0.27983888232E+02  0.49730394609E+01 -0.18965593297E+03  0.19177383042E+03  0.00000000000E+00 0.  1.
</event>
<event>
 4    1  0.9360795E+003  0.2248611E+02  0.7546771E-02  0.1499054E+00
          2   -1    0    0  501    0  0.00000000000E+00  0.00000000000E+00  0.10818836271E+03  0.10818836271E+03  0.00000000000E+00 0.  1.
          2   -1    0    0  502    0 -0.00000000000E+00 -0.00000000000E+00 -0.11239571211E+03  0.11239571211E+03  0.00000000000E+00 0. -1.
          2    1    1    2  501    0  0.37527073326E+01  0.22170755849E+02 -0.11007832113E+03  0.11235151094E+03  0.00000000000E+00 0. -1.
          2    1    1    2  502    0 -0.37527073326E+01 -0.22170755849E+02  0.10587097174E+03  0.10823256388E+03  0.00000000000E+00 0.  1.
</event>
<event>
 4    1  0.9360795E+003  0.2409878E+02  0.7546771E-02  0.1479143E+00
          2   -1    0    0  502    0  0.00000000000E+00  0.00000000000E+00  0.55910199197E+01  0.55910199197E+01  0.00000000000E+00 0. -1.
          2   -1    0    0  501    0 -0.00000000000E+00 -0.00000000000E+00 -0.12277974084E+04  0.12277974084E+04  0.00000000000E+00 0.  1.
          2    1    1    2  501    0 -0.12768241486E+02  0.20438273869E+02 -0.21071635233E+02  0.32011948406E+02  0.00000000000E+00 0. -1.
          2    1    1    2  502    0  0.12768241486E+02 -0.20438273869E+02 -0.12011347533E+04  0.12013764799E+04  0.00000000000E+00 0.  1.
</event>
<event>
 4    1  0.9360795E+003  0.3115457E+02  0.7546771E-02  0.1409822E+00
          2   -1    0    0  501    0  0.00000000000E+00  0.00000000000E+00  0.55678938316E+03  0.55678938316E+03  0.00000000000E+00 0.  1.
          2   -1    0    0  502    0 -0.00000000000E+00 -0.00000000000E+00 -0.97824397604E+02  0.97824397604E+02  0.00000000000E+00 0. -1.
          2    1    1    2  501    0  0.29955866307E+02 -0.85588292482E+01 -0.94894998859E+02  0.99878267370E+02  0.00000000000E+00 0. -1.
          2    1    1    2  502    0 -0.29955866307E+02  0.85588292482E+01  0.55385998441E+03  0.55473551339E+03  0.00000000000E+00 0.  1.
</event>
<event>
 4    1  0.9360795E+003  0.4087870E+02  0.7546771E-02  0.1343412E+00
          2   -1    0    0  502    0  0.00000000000E+00  0.00000000000E+00  0.13735531498E+03  0.13735531498E+03  0.00000000000E+00 0. -1.
          2   -1    0    0  501    0 -0.00000000000E+00 -0.00000000000E+00 -0.50093618846E+02  0.50093618846E+02  0.00000000000E+00 0.  1.
          2    1    1    2  501    0  0.20731622006E+02  0.35231629039E+02  0.12518375317E+03  0.13168917911E+03  0.00000000000E+00 0. -1.
          2    1    1    2  502    0 -0.20731622006E+02 -0.35231629039E+02 -0.37922057041E+02  0.55759754715E+02  0.00000000000E+00 0.  1.
</event>
<event>
 4    1  0.9360795E+003  0.2719442E+02  0.7546771E-02  0.1445665E+00
          2   -1    0    0  501    0  0.00000000000E+00  0.00000000000E+00  0.27883197045E+02  0.27883197045E+02  0.00000000000E+00 0.  1.
          2   -1    0    0  502    0 -0.00000000000E+00 -0.00000000000E+00 -0.76476637012E+02  0.76476637012E+02  0.00000000000E+00 0.  1.
          2    1    1    2  501    0 -0.40981222075E+01  0.26883854683E+02 -0.66468708135E+02  0.71816609565E+02  0.00000000000E+00 0.  1.
          2    1    1    2  502    0  0.40981222075E+01 -0.26883854683E+02  0.17875268168E+02  0.32543224492E+02  0.00000000000E+00 0.  1.
</event>
<event>
 4    1  0.9360795E+003  0.2586825E+02  0.7546771E-02  0.1459320E+00
          2   -1    0    0  502    0  0.00000000000E+00  0.00000000000E+00  0.48196208385E+02  0.48196208385E+02  0.00000000000E+00 0.  1.
          2   -1    0    0  501    0 -0.00000000000E+00 -0.00000000000E+00 -0.15866689657E+03  0.15866689657E+03  0.00000000000E+00 0. -1.
          2    1    1    2  501    0 -0.12880546348E+02  0.22433411695E+02  0.43567214314E+02  0.50668220786E+02  0.00000000000E+00 0.  1.
          2    1    1    2  502    0  0.12880546348E+02 -0.22433411695E+02 -0.15403790249E+03  0.15619488417E+03  0.00000000000E+00 0. -1.
</event>
<event>
 4    1  0.9360795E+003  0.2267282E+02  0.7546771E-02  0.1496648E+00
          2   -1    0    0  502    0  0.00000000000E+00  0.00000000000E+00  0.11653449252E+03  0.11653449252E+03  0.00000000000E+00 0.  1.
          2   -1    0    0  501    0 -0.00000000000E+00 -0.00000000000E+00 -0.10745058977E+02  0.10745058977E+02  0.00000000000E+00 0.  1.
          2    1    1    2  501    0 -0.21492349066E+02 -0.72205068619E+01  0.10175528152E+03  0.10425063120E+03  0.00000000000E+00 0.  1.
          2    1    1    2  502    0  0.21492349066E+02  0.72205068619E+01  0.40341520247E+01  0.23028920302E+02  0.00000000000E+00 0.  1.
</event>
<event>
 4    1  0.9360795E+003  0.5836829E+02  0.7546771E-02  0.1265480E+00
          2   -1    0    0  501    0  0.00000000000E+00  0.00000000000E+00  0.11862222580E+04  0.11862222580E+04  0.00000000000E+00 0. -1.
          2   -1    0    0  502    0 -0.00000000000E+00 -0.00000000000E+00 -0.14890850657E+03  0.14890850657E+03  0.00000000000E+00 0. -1.
          2    1    1    2  501    0 -0.20900559607E+01 -0.58330858781E+02 -0.14243944059E+03  0.15393456940E+03  0.00000000000E+00 0. -1.
          2    1    1    2  502    0  0.20900559607E+01  0.58330858781E+02  0.11797531920E+04  0.11811961952E+04  0.00000000000E+00 0. -1.
</event>
<event>
 4    1  0.9360795E+003  0.3199730E+02  0.7546771E-02  0.1402999E+00
          2   -1    0    0  502    0  0.00000000000E+00  0.00000000000E+00  0.54486053629E+00  0.54486053629E+00  0.00000000000E+00 0. -1.
          2   -1    0    0  501    0 -0.00000000000E+00 -0.00000000000E+00 -0.19283386955E+04  0.19283386955E+04  0.00000000000E+00 0. -1.
          2    1    1    2  501    0  0.31764918610E+02 -0.38493214216E+01 -0.11180670646E+04  0.11185248269E+04  0.00000000000E+00 0. -1.
          2    1    1    2  502    0 -0.31764918610E+02  0.38493214216E+01 -0.80972677029E+03  0.81035872911E+03  0.00000000000E+00 0. -1.
</event>
<event>
 4    1  0.9360795E+003  0.2187491E+02  0.7546771E-02  0.1507131E+00
          2   -1    0    0  501    0  0.00000000000E+00  0.00000000000E+00  0.21647677731E+03  0.21647677731E+03  0.00000000000E+00 0.  1.
          2   -1    0    0  502    0 -0.00000000000E+00 -0.00000000000E+00 -0.31304298037E+01  0.31304298037E+01  0.00000000000E+00 0.  1.
          2    1    1    2  501    0 -0.12695976406E+02  0.17813587930E+02  0.47147672970E+02  0.51975136347E+02  0.00000000000E+00 0.  1.
          2    1    1    2  502    0  0.12695976406E+02 -0.17813587930E+02  0.16619867454E+03  0.16763207077E+03  0.00000000000E+00 0.  1.
</event>
<event>
 4    1  0.9360795E+003  0.3448964E+02  0.7546771E-02  0.1384187E+00
          2   -1    0    0  502    0  0.00000000000E+00  0.00000000000E+00  0.47800245747E+01  0.47800245747E+01  0.00000000000E+00 0.  1.
          2   -1    0    0  501    0 -0.00000000000E+00 -0.00000000000E+00 -0.18512783149E+04  0.18512783149E+04  0.00000000000E+00 0. -1.
          2    1    1    2  501    0 -0.27369301468E+02 -0.20987053731E+02 -0.59844583186E+02  0.69071768646E+02  0.00000000000E+00 0.  1.
          2    1    1    2  502    0  0.27369301468E+02  0.20987053731E+02 -0.17866537072E+04  0.17869865709E+04  0.00000000000E+00 0. -1.
</event>
<event>
 4    1  0.9360795E+003  0.2207464E+02  0.7546771E-02  0.1504457E+00
          2   -1    0    0  502    0  0.00000000000E+00  0.00000000000E+00  0.52994866677E+01  0.52994866677E+01  0.00000000000E+00 0.  1.
          2   -1    0    0  501    0 -0.00000000000E+00 -0.00000000000E+00 -0.32091028934E+03  0.32091028934E+03  0.00000000000E+00 0. -1.
          2    1    1    2  501    0  0.16180962449E+02 -0.15015530178E+02 -0.20035324971E+02  0.29811137835E+02  0.00000000000E+00 0.  1.
          2    1    1    2  502    0 -0.16180962449E+02  0.15015530178E+02 -0.29557547770E+03  0.29639863817E+03  0.00000000000E+00 0. -1.
</event>
<event>
 4    1  0.9360795E+003  0.2456150E+02  0.7546771E-02  0.1473769E+00
          2   -1    0    0  501    0  0.00000000000E+00  0.00000000000E+00  0.23185059393E+03  0.23185059393E+03  0.00000000000E+00 0. -1.
          2   -1    0    0  502    0 -0.00000000000E+00 -0.00000000000E+00 -0.51008480724E+03  0.51008480724E+03  0.00000000000E+00 0.  1.
          2    1    1    2  501    0  0.26828268205E+01  0.24414534850E+02 -0.50913743638E+03  0.50972953240E+03  0.00000000000E+00 0.  1.
          2    1    1    2  502    0 -0.26828268205E+01 -0.24414534850E+02  0.23090322307E+03  0.23220586878E+03  0.00000000000E+00 0. -1.
</event>
<event>
 4    1  0.9360795E+003  0.2077561E+02  0.7546771E-02  0.1522493E+00
          2   -1    0    0  502    0  0.00000000000E+00  0.00000000000E+00  0.81797340333E+03  0.81797340333E+03  0.00000000000E+00 0. -1.
          2   -1    0    0  501    0 -0.00000000000E+00 -0.00000000000E+00 -0.30168775998E+02  0.30168775998E+02  0.00000000000E+00 0.  1.
          2    1    1    2  501    0 -0.13549973759E+02  0.15748786719E+02  0.81424836205E+03  0.81451336464E+03  0.00000000000E+00 0. -1.
          2    1    1    2  502    0  0.13549973759E+02 -0.15748786719E+02 -0.26443734716E+02  0.33628814693E+02  0.00000000000E+00 0.  1.
</event>
<event>
 4    1  0.9360795E+003  0.4931222E+02  0.7546771E-02  0.1301182E+00
          2   -1    0    0  502    0  0.00000000000E+00  0.00000000000E+00  0.16236684980E+03  0.16236684980E+03  0.00000000000E+00 0.  1.
          2   -1    0    0  501    0 -0.00000000000E+00 -0.00000000000E+00 -0.20689688392E+03  0.20689688392E+03  0.00000000000E+00 0.  1.
          2    1    1    2  501    0 -0.88280113929E+00  0.49304314700E+02  0.15555890492E+03  0.16318782947E+03  0.00000000000E+00 0.  1.
          2    1    1    2  502    0  0.88280113929E+00 -0.49304314700E+02 -0.20008893904E+03  0.20607590425E+03  0.00000000000E+00 0.  1.
</event>
<event>
 4    1  0.9360795E+003  0.2014857E+02  0.7546771E-02  0.1531777E+00
          2   -1    0    0  501    0  0.00000000000E+00  0.00000000000E+00  0.35604463668E+02  0.35604463668E+02  0.00000000000E+00 0.  1.
          2   -1    0    0  502    0 -0.00000000000E+00 -0.00000000000E+00 -0.26843858332E+03  0.26843858332E+03  0.00000000000E+00 0. -1.
          2    1    1    2  501    0 -0.64538974839E+01  0.19086958145E+02 -0.26517495267E+03  0.26593931693E+03  0.00000000000E+00 0. -1.
          2    1    1    2  502    0  0.64538974839E+01 -0.19086958145E+02  0.32340833020E+02  0.38103730059E+02  0.00000000000E+00 0.  1.
</event>
<event>
 4    1  0.9360795E+003  0.4866883E+02  0.7546771E-02  0.1304049E+00
          2   -1    0    0  502    0  0.00000000000E+00  0.00000000000E+00  0.67606629433E+02  0.67606629433E+02  0.00000000000E+00 0. -1.
          2   -1    0    0  501    0 -0.00000000000E+00 -0.00000000000E+00 -0.18679470969E+04  0.18679470969E+04  0.00000000000E+00 0. -1.
          2    1    1    2  501    0  0.48476659221E+02 -0.43206817769E+01  0.58487695496E+02  0.76088535961E+02  0.00000000000E+00 0. -1.
          2    1    1    2  502    0 -0.48476659221E+02  0.43206817769E+01 -0.18588281630E+04  0.18594651904E+04  0.00000000000E+00 0. -1.
</event>
<event>
 4    1  0.9360795E+003  0.2156038E+02  0.7546771E-02  0.1511412E+00
          2   -1    0    0  501    0  0.00000000000E+00  0.00000000000E+00  0.15052744632E+04  0.15052744632E+04  0.00000000000E+00 0.  1.
          2   -1    0    0  502    0 -0.00000000000E+00 -0.00000000000E+00 -0.12399351771E+01  0.12399351771E+01  0.00000000000E+00 0. -1.
          2    1    1    2  501    0 -0.43900523604E+01 -0.21108705325E+02  0.99267270847E+02  0.10158169649E+03  0.00000000000E+00 0. -1.
          2    1    1    2  502    0  0.43900523604E+01  0.21108705325E+02  0.14047672571E+04  0.14049327019E+04  0.00000000000E+00 0.  1.
</event>
<event>
 4    1  0.9360795E+003  0.4219341E+02  0.7546771E-02  0.1336091E+00
          2   -1    0    0  501    0  0.00000000000E+00  0.00000000000E+00  0.44127222566E+03  0.44127222566E+03  0.00000000000E+00 0.  1.
          2   -1    0    0  502    0 -0.00000000000E+00 -0.00000000000E+00 -0.22808744219E+02  0.22808744219E+02  0.00000000000E+00 0.  1.
          2    1    1    2  501    0  0.35183270994E+02 -0.23289943228E+02 -0.12890840409E+01  0.42213099282E+02  0.00000000000E+00 0.  1.
          2    1    1    2  502    0 -0.35183270994E+02  0.23289943228E+02  0.41975256548E+03  0.42186787060E+03  0.00000000000E+00 0.  1.
</event>
<event>
 4    1  0.9360795E+003  0.2196360E+02  0.7546771E-02  0.1505939E+00
          2   -1    0    0  501    0  0.00000000000E+00  0.00000000000E+00  0.12414573570E+03  0.12414573570E+03  0.00000000000E+00 0. -1.
          2   -1    0    0  502    0 -0.00000000000E+00 -0.00000000000E+00 -0.14978635458E+02  0.14978635458E+02  0.00000000000E+00 0. -1.
          2    1    1    2  501    0  0.13198188504E+02  0.17555845547E+02 -0.52795581156E+01  0.22589236963E+02  0.00000000000E+00 0. -1.
          2    1    1    2  502    0 -0.13198188504E+02 -0.17555845547E+02  0.11444665835E+03  0.11653513419E+03  0.00000000000E+00 0. -1.
</event>
<event>
 4    1  0.9360795E+003  0.3110413E+02  0.7546771E-02  0.1410238E+00
          2   -1    0    0  502    0  0.00000000000E+00  0.00000000000E+00  0.12454284717E+04  0.12454284717E+04  0.00000000000E+00 0.  1.
          2   -1    0    0  501    0 -0.00000000000E+00 -0.00000000000E+00 -0.16669100401E+01  0.16669100401E+01  0.00000000000E+00 0. -1.
          2    1    1    2  501    0  0.21476054317E+02  0.22499914786E+02  0.10775313022E+04  0.10779801363E+04  0.00000000000E+00 0.  1.
          2    1    1    2  502    0 -0.21476054317E+02 -0.22499914786E+02  0.16623025950E+03  0.16911524546E+03  0.00000000000E+00 0. -1.
</event>
<event>
 4    1  0.9360795E+003  0.1168641E+03  0.7546771E-02  0.1137420E+00
          2   -1    0    0  502    0  0.00000000000E+00  0.00000000000E+00  0.28142770728E+02  0.28142770728E+02  0.00000000000E+00 0.  1.
          2   -1    0    0  501    0 -0.00000000000E+00 -0.00000000000E+00 -0.13210782633E+04  0.13210782633E+04  0.00000000000E+00 0.  1.
          2    1    1    2  501    0 -0.83673023721E+02  0.81584632571E+02 -0.10988264282E+03  0.16041016914E+03  0.00000000000E+00 0.  1.
          2    1    1    2  502    0  0.83673023721E+02 -0.81584632571E+02 -0.11830528497E+04  0.11888108648E+04  0.00000000000E+00 0.  1.
</event>
<event>
 4    1  0.9360795E+003  0.3755113E+02  0.7546771E-02  0.1363466E+00
          2   -1    0    0  501    0  0.00000000000E+00  0.00000000000E+00  0.15054547201E+03  0.15054547201E+03  0.00000000000E+00 0. -1.
          2   -1    0    0  502    0 -0.00000000000E+00 -0.00000000000E+00 -0.12714739047E+04  0.12714739047E+04  0.00000000000E+00 0. -1.
          2    1    1    2  501    0  0.37270798424E+02 -0.45798604499E+01 -0.12688501786E+04  0.12694057126E+04  0.00000000000E+00 0. -1.
          2    1    1    2  502    0 -0.37270798424E+02  0.45798604499E+01  0.14792174593E+03  0.15261366406E+03  0.00000000000E+00 0. -1.
</event>
<event>
 4    1  0.9360795E+003  0.2676667E+02  0.7546771E-02  0.1449966E+00
          2   -1    0    0  502    0  0.00000000000E+00  0.00000000000E+00  0.19456847507E+03  0.19456847507E+03  0.00000000000E+00 0. -1.
          2   -1    0    0  501    0 -0.00000000000E+00 -0.00000000000E+00 -0.32930275136E+02  0.32930275136E+02  0.00000000000E+00 0.  1.
          2    1    1    2  501    0  0.24798819046E+02 -0.10073396920E+02  0.18802024479E+03  0.18991594773E+03  0.00000000000E+00 0. -1.
          2    1    1    2  502    0 -0.24798819046E+02  0.10073396920E+02 -0.26382044853E+02  0.37582802479E+02  0.00000000000E+00 0.  1.
</event>
<event>
 4    1  0.9360795E+003  0.3741606E+02  0.7546771E-02  0.1364331E+00
          2   -1    0    0  501    0  0.00000000000E+00  0.00000000000E+00  0.13585337098E+02  0.13585337098E+02  0.00000000000E+00 0. -1.
          2   -1    0    0  502    0 -0.00000000000E+00 -0.00000000000E+00 -0.50301104267E+03  0.50301104267E+03  0.00000000000E+00 0. -1.
          2    1    1    2  501    0 -0.24301096859E+02 -0.28450277527E+02 -0.47503820516E+03  0.47650945213E+03  0.00000000000E+00 0. -1.
          2    1    1    2  502    0  0.24301096859E+02  0.28450277527E+02 -0.14387500411E+02  0.40086927645E+02  0.00000000000E+00 0. -1.
</event>
<event>
 4    1  0.9360795E+003  0.4322440E+02  0.7546771E-02  0.1330561E+00
          2   -1    0    0  502    0  0.00000000000E+00  0.00000000000E+00  0.68322454867E+03  0.68322454867E+03  0.00000000000E+00 0. -1.
          2   -1    0    0  501    0 -0.00000000000E+00 -0.00000000000E+00 -0.76698021908E+01  0.76698021908E+01  0.00000000000E+00 0. -1.
          2    1    1    2  501    0  0.44324974661E+01 -0.42996535442E+02  0.61488075791E+03  0.61639816315E+03  0.00000000000E+00 0. -1.
          2    1    1    2  502    0 -0.44324974661E+01  0.42996535442E+02  0.60673988572E+02  0.74496187708E+02  0.00000000000E+00 0. -1.
</event>
<event>
 4    1  0.9360795E+003  0.2497347E+02  0.7546771E-02  0.1469100E+00
          2   -1    0    0  502    0  0.00000000000E+00  0.00000000000E+00  0.58290577526E+03  0.58290577526E+03  0.00000000000E+00 0.  1.
          2   -1    0    0  501    0 -0.00000000000E+00 -0.00000000000E+00 -0.26147236710E+01  0.26147236710E+01  0.00000000000E+00 0.  1.
          2    1    1    2  501    0  0.24084754552E+02  0.66029221204E+01  0.51517173187E+03  0.51577668355E+03  0.00000000000E+00 0.  1.
          2    1    1    2  502    0 -0.24084754552E+02 -0.66029221204E+01  0.65119319720E+02  0.69743815376E+02  0.00000000000E+00 0.  1.
</event>
<event>
 4    1  0.9360795E+003  0.2131897E+02  0.7546771E-02  0.1514759E+00
          2   -1    0    0  501    0  0.00000000000E+00  0.00000000000E+00  0.20674999572E+02  0.20674999572E+02  0.00000000000E+00 0. -1.
          2   -1    0    0  502    0 -0.00000000000E+00 -0.00000000000E+00 -0.36347099932E+02  0.36347099932E+02  0.00000000000E+00 0. -1.
          2    1    1    2  501    0  0.20856937808E+02 -0.44143697632E+01 -0.25759332048E+02  0.33437130599E+02  0.00000000000E+00 0. -1.
          2    1    1    2  502    0 -0.20856937808E+02  0.44143697632E+01  0.10087231688E+02  0.23584968905E+02  0.00000000000E+00 0. -1.
</event>
<event>
 4    1  0.9360795E+003  0.3697236E+02  0.7546771E-02  0.1367203E+00
          2   -1    0    0  502    0  0.00000000000E+00  0.00000000000E+00  0.10642176142E+03  0.10642176142E+03  0.00000000000E+00 0. -1.
          2   -1    0    0  501    0 -0.00000000000E+00 -0.00000000000E+00 -0.10598782614E+03  0.10598782614E+03  0.00000000000E+00 0.  1.
          2    1    1    2  501    0  0.45606451854E+00  0.36969547871E+02  0.99778491599E+02  0.10640818977E+03  0.00000000000E+00 0. -1.
          2    1    1    2  502    0 -0.45606451854E+00 -0.36969547871E+02 -0.99344556312E+02  0.10600139779E+03  0.00000000000E+00 0.  1.
</event>
<event>
 4    1  0.9360795E+003  0.2248852E+02  0.7546771E-02  0.1499023E+00
          2   -1    0    0  501    0  0.00000000000E+00  0.00000000000E+00  0.11191422792E+04  0.11191422792E+04  0.00000000000E+00 0.  1.
          2   -1    0    0  502    0 -0.00000000000E+00 -0.00000000000E+00 -0.20601665849E+02  0.20601665849E+02  0.00000000000E+00 0. -1.
          2    1    1    2  501    0  0.19804394150E+02 -0.10654560707E+02 -0.14316989415E+02  0.26659142473E+02  0.00000000000E+00 0. -1.
          2    1    1    2  502    0 -0.19804394150E+02  0.10654560707E+02  0.11128576028E+04  0.11130848026E+04  0.00000000000E+00 0.  1.
</event>
<event>
 4    1  0.9360795E+003  0.7345065E+02  0.7546771E-02  0.1219927E+00
          2   -1    0    0  501    0  0.00000000000E+00  0.00000000000E+00  0.40956779438E+03  0.40956779438E+03  0.00000000000E+00 0. -1.
          2   -1    0    0  502    0 -0.00000000000E+00 -0.00000000000E+00 -0.32106516784E+02  0.32106516784E+02  0.00000000000E+00 0. -1.
          2    1    1    2  501    0  0.45341252272E+02 -0.57785539776E+02  0.19141560454E+02  0.75903867500E+02  0.00000000000E+00 0. -1.
          2    1    1    2  502    0 -0.45341252272E+02  0.57785539776E+02  0.35831971714E+03  0.36577044366E+03  0.00000000000E+00 0. -1.
</event>
<event>
 4    1  0.9360795E+003  0.4510199E+02  0.7546771E-02  0.1320930E+00
          2   -1    0    0  501    0  0.00000000000E+00  0.00000000000E+00  0.68305666403E+02  0.68305666403E+02  0.00000000000E+00 0. -1.
          2   -1    0    0  502    0 -0.00000000000E+00 -0.00000000000E+00 -0.42295518032E+02  0.42295518032E+02  0.00000000000E+00 0. -1.
          2    1    1    2  501    0 -0.44567156187E+01  0.44881257877E+02 -0.17076122931E+02  0.48226378644E+02  0.00000000000E+00 0. -1.
          2    1    1    2  502    0  0.44567156187E+01 -0.44881257877E+02  0.43086271303E+02  0.62374805791E+02  0.00000000000E+00 0. -1.
</event>
<event>
 4    1  0.9360795E+003  0.2857283E+02  0.7546771E-02  0.1432418E+00
          2   -1    0    0  502    0  0.00000000000E+00  0.00000000000E+00  0.91783825346E+02  0.91783825346E+02  0.00000000000E+00 0. -1.
          2   -1    0    0  501    0 -0.00000000000E+00 -0.00000000000E+00 -0.16506011282E+02  0.16506011282E+02  0.00000000000E+00 0. -1.
          2    1    1    2  501    0 -0.26769975550E+02  0.99887327271E+01  0.74406158016E+02  0.79703718377E+02  0.00000000000E+00 0. -1.
          2    1    1    2  502    0  0.26769975550E+02 -0.99887327271E+01  0.87165604823E+00  0.28586118251E+02  0.00000000000E+00 0. -1.
</event>
<event>
 4    1  0.9360795E+003  0.2775203E+02  0.7546771E-02  0.1440197E+00
          2   -1    0    0  502    0  0.00000000000E+00  0.00000000000E+00  0.51528900348E+02  0.51528900348E+02  0.00000000000E+00 0.  1.
          2   -1    0    0  501    0 -0.00000000000E+00 -0.00000000000E+00 -0.23178548353E+03  0.23178548353E+03  0.00000000000E+00 0.  1.
          2    1    1    2  501    0 -0.26983334761E+02 -0.64865029366E+01  0.46885481199E+02  0.54483239830E+02  0.00000000000E+00 0.  1.
          2    1    1    2  502    0  0.26983334761E+02  0.64865029366E+01 -0.22714206438E+03  0.22883114404E+03  0.00000000000E+00 0.  1.
</event>
<event>
 4    1  0.9360795E+003  0.2005730E+02  0.7546771E-02  0.1533162E+00
          2   -1    0    0  502    0  0.00000000000E+00  0.00000000000E+00  0.30052078215E+02  0.30052078215E+02  0.00000000000E+00 0. -1.
          2   -1    0    0  501    0 -0.00000000000E+00 -0.00000000000E+00 -0.43153746488E+02  0.43153746488E+02  0.00000000000E+00 0. -1.
          2    1    1    2  501    0 -0.69450309980E+00  0.20045267852E+02  0.23849265289E+02  0.31162197494E+02  0.00000000000E+00 0. -1.
          2    1    1    2  502    0  0.69450309980E+00 -0.20045267852E+02 -0.36950933562E+02  0.42043627209E+02  0.00000000000E+00 0. -1.
</event>
<event>
 4    1  0.9360795E+003  0.2320845E+02  0.7546771E-02  0.1489897E+00
          2   -1    0    0  502    0  0.00000000000E+00  0.00000000000E+00  0.19191750128E+03  0.19191750128E+03  0.00000000000E+00 0.  1.
          2   -1    0    0  501    0 -0.00000000000E+00 -0.00000000000E+00 -0.19310087490E+02  0.19310087490E+02  0.00000000000E+00 0.  1.
          2    1    1    2  501    0 -0.16196825237E+02  0.16622123361E+02  0.18394120243E+03  0.18539956334E+03  0.00000000000E+00 0.  1.
          2    1    1    2  502    0  0.16196825237E+02 -0.16622123361E+02 -0.11333788644E+02  0.25828025434E+02  0.00000000000E+00 0.  1.
</event>
<event>
 4    1  0.9360795E+003  0.4346087E+02  0.7546771E-02  0.1329317E+00
          2   -1    0    0  502    0  0.00000000000E+00  0.00000000000E+00  0.12827418973E+04  0.12827418973E+04  0.00000000000E+00 0. -1.
          2   -1    0    0  501    0 -0.00000000000E+00 -0.00000000000E+00 -0.74210162176E+01  0.74210162176E+01  0.00000000000E+00 0. -1.
          2    1    1    2  501    0 -0.42833996673E+02 -0.73550044470E+01  0.12152068795E+04  0.12159838023E+04  0.00000000000E+00 0. -1.
          2    1    1    2  502    0  0.42833996673E+02  0.73550044470E+01  0.60114001577E+02  0.74179111258E+02  0.00000000000E+00 0. -1.
</event>
<event>
 4    1  0.9360795E+003  0.3059233E+02  0.7546771E-02  0.1414518E+00
          2   -1    0    0  501    0  0.00000000000E+00  0.00000000000E+00  0.12305851444E+03  0.12305851444E+03  0.00000000000E+00 0. -1.
          2   -1    0    0  502    0 -0.00000000000E+00 -0.00000000000E+00 -0.10215735648E+03  0.10215735648E+03  0.00000000000E+00 0.  1.
          2    1    1    2  501    0 -0.23184466410E+02  0.19959239597E+02 -0.97884668124E+02  0.10255388331E+03  0.00000000000E+00 0.  1.
          2    1    1    2  502    0  0.23184466410E+02 -0.19959239597E+02  0.11878582608E+03  0.12266198762E+03  0.00000000000E+00 0. -1.
</event>
<event>
 4    1  0.9360795E+003  0.3178209E+02  0.7546771E-02  0.1404717E+00
          2   -1    0    0  502    0  0.00000000000E+00  0.00000000000E+00  0.11488554298E+04  0.11488554298E+04  0.00000000000E+00 0.  1.
          2   -1    0    0  501    0 -0.00000000000E+00 -0.00000000000E+00 -0.66153820053E+01  0.66153820053E+01  0.00000000000E+00 0.  1.
          2    1    1    2  501    0  0.91436445060E+01  0.30438381923E+02  0.11090949947E+04  0.11095502731E+04  0.00000000000E+00 0.  1.
          2    1    1    2  502    0 -0.91436445060E+01 -0.30438381923E+02  0.33145053139E+02  0.45920538722E+02  0.00000000000E+00 0.  1.
</event>
<event>
 4    1  0.9360795E+003  0.3942422E+02  0.7546771E-02  0.1351893E+00
          2   -1    0    0  502    0  0.00000000000E+00  0.00000000000E+00  0.14599501405E+04  0.14599501405E+04  0.00000000000E+00 0. -1.
          2   -1    0    0  501    0 -0.00000000000E+00 -0.00000000000E+00 -0.20277842554E+03  0.20277842554E+03  0.00000000000E+00 0.  1.
          2    1    1    2  501    0  0.32292083950E+02 -0.22616156236E+02  0.14577649013E+04  0.14582979039E+04  0.00000000000E+00 0. -1.
          2    1    1    2  502    0 -0.32292083950E+02  0.22616156236E+02 -0.20059318632E+03  0.20443066210E+03  0.00000000000E+00 0.  1.
</event>
<event>
 4    1  0.9360795E+003  0.5130629E+02  0.7546771E-02  0.1292606E+00
          2   -1    0    0  501    0  0.00000000000E+00  0.00000000000E+00  0.64869194757E+01  0.64869194757E+01  0.00000000000E+00 0. -1.
          2   -1    0    0  502    0 -0.00000000000E+00 -0.00000000000E+00 -0.12168230799E+04  0.12168230799E+04  0.00000000000E+00 0.  1.
          2    1    1    2  501    0  0.10163912215E+02 -0.50289469218E+02 -0.11045257593E+04  0.11057167308E+04  0.00000000000E+00 0.  1.
          2    1    1    2  502    0 -0.10163912215E+02  0.50289469218E+02 -0.10581040108E+03  0.11759326852E+03  0.00000000000E+00 0. -1.
</event>
<event>
 4    1  0.9360795E+003  0.3585426E+02  0.7546771E-02  0.1374655E+00
          2   -1    0    0  501    0  0.00000000000E+00  0.00000000000E+00  0.15456335745E+04  0.15456335745E+04  0.00000000000E+00 0. -1.
          2   -1    0    0  502    0 -0.00000000000E+00 -0.00000000000E+00 -0.47828512909E+02  0.47828512909E+02  0.00000000000E+00 0. -1.
          2    1    1    2  501    0  0.32079537541E+02  0.16013465698E+02 -0.40870739561E+02  0.54368604587E+02  0.00000000000E+00 0. -1.
          2    1    1    2  502    0 -0.32079537541E+02 -0.16013465698E+02  0.15386758011E+04  0.15390934828E+04  0.00000000000E+00 0. -1.
</event>
<event>
 4    1  0.9360795E+003  0.2287327E+02  0.7546771E-02  0.1494096E+00
          2   -1    0    0  501    0  0.00000000000E+00  0.00000000000E+00  0.10080896378E+04  0.10080896378E+04  0.00000000000E+00 0.  1.
          2   -1    0    0  502    0 -0.00000000000E+00 -0.00000000000E+00 -0.61528688063E+01  0.61528688063E+01  0.00000000000E+00 0. -1.
          2    1    1    2  501    0  0.22864488377E+02  0.63361900289E+00  0.15705789228E+02  0.27746317180E+02  0.00000000000E+00 0. -1.
          2    1    1    2  502    0 -0.22864488377E+02 -0.63361900289E+00  0.98623097973E+03  0.98649618939E+03  0.00000000000E+00 0.  1.
</event>
<event>
 4    1  0.9360795E+003  0.4270045E+02  0.7546771E-02  0.1333349E+00
          2   -1    0    0  502    0  0.00000000000E+00  0.00000000000E+00  0.64063405685E+03  0.64063405685E+03  0.00000000000E+00 0.  1.
          2   -1    0    0  501    0 -0.00000000000E+00 -0.00000000000E+00 -0.57441377352E+02  0.57441377352E+02  0.00000000000E+00 0. -1.
          2    1    1    2  501    0 -0.35365470297E+02 -0.23929308214E+02  0.63187706754E+03  0.63331821129E+03  0.00000000000E+00 0.  1.
          2    1    1    2  502    0  0.35365470297E+02  0.23929308214E+02 -0.48684388034E+02  0.64757222911E+02  0.00000000000E+00 0. -1.
</event>
<event>
 4    1  0.9360795E+003  0.2566794E+02  0.7546771E-02  0.1461468E+00
          2   -1    0    0  501    0  0.00000000000E+00  0.00000000000E+00  0.48003684915E+03  0.48003684915E+03  0.00000000000E+00 0. -1.
          2   -1    0    0  502    0 -0.00000000000E+00 -0.00000000000E+00 -0.54378038937E+02  0.54378038937E+02  0.00000000000E+00 0.  1.
          2    1    1    2  501    0  0.69655086498E+01 -0.24704748800E+02 -0.50984373734E+02  0.57081076454E+02  0.00000000000E+00 0.  1.
          2    1    1    2  502    0 -0.69655086498E+01  0.24704748800E+02  0.47664318394E+03  0.47733381163E+03  0.00000000000E+00 0. -1.
</event>
<event>
 4    1  0.9360795E+003  0.3166650E+02  0.7546771E-02  0.1405647E+00
          2   -1    0    0  502    0  0.00000000000E+00  0.00000000000E+00  0.11608714041E+04  0.11608714041E+04  0.00000000000E+00 0.  1.
          2   -1    0    0  501    0 -0.00000000000E+00 -0.00000000000E+00 -0.62601147196E+01  0.62601147196E+01  0.00000000000E+00 0. -1.
          2    1    1    2  501    0 -0.29713903951E+02  0.10947667282E+02  0.11191156937E+04  0.11195636219E+04  0.00000000000E+00 0.  1.
          2    1    1    2  502    0  0.29713903951E+02 -0.10947667282E+02  0.35495595617E+02  0.47567896896E+02  0.00000000000E+00 0. -1.
</event>
<event>
 4    1  0.9360795E+003  0.2460690E+02  0.7546771E-02  0.1473249E+00
          2   -1    0    0  501    0  0.00000000000E+00  0.00000000000E+00  0.30141394071E+02  0.30141394071E+02  0.00000000000E+00 0.  1.
          2   -1    0    0  502    0 -0.00000000000E+00 -0.00000000000E+00 -0.86879787732E+02  0.86879787732E+02  0.00000000000E+00 0. -1.
          2    1    1    2  501    0 -0.32745376910E+00 -0.24604720398E+02 -0.79671229743E+02  0.83384676893E+02  0.00000000000E+00 0. -1.
          2    1    1    2  502    0  0.32745376910E+00  0.24604720398E+02  0.22932836082E+02  0.33636504910E+02  0.00000000000E+00 0.  1.
</event>
<event>
 4    1  0.9360795E+003  0.2219488E+02  0.7546771E-02  0.1502863E+00
          2   -1    0    0  502    0  0.00000000000E+00  0.00000000000E+00  0.42775187834E+02  0.42775187834E+02  0.00000000000E+00 0. -1.
          2   -1    0    0  501    0 -0.00000000000E+00 -0.00000000000E+00 -0.33811923831E+03  0.33811923831E+03  0.00000000000E+00 0.  1.
          2    1    1    2  501    0 -0.12150913250E+02  0.18573308902E+02  0.39503782186E+02  0.45311822998E+02  0.00000000000E+00 0. -1.
          2    1    1    2  502    0  0.12150913250E+02 -0.18573308902E+02 -0.33484783266E+03  0.33558260315E+03  0.00000000000E+00 0.  1.
</event>
<event>
 4    1  0.9360795E+003  0.3039344E+02  0.7546771E-02  0.1416208E+00
          2   -1    0    0  502    0  0.00000000000E+00  0.00000000000E+00  0.34999063932E+03  0.34999063932E+03  0.00000000000E+00 0.  1.
          2   -1    0    0  501    0 -0.00000000000E+00 -0.00000000000E+00 -0.79005406921E+01  0.79005406921E+01  0.00000000000E+00 0. -1.
          2    1    1    2  501    0 -0.19861656209E+02  0.23005997521E+02  0.31707200138E+03  0.31852537634E+03  0.00000000000E+00 0.  1.
          2    1    1    2  502    0  0.19861656209E+02 -0.23005997521E+02  0.25018097246E+02  0.39365803677E+02  0.00000000000E+00 0. -1.
</event>
<event>
 4    1  0.9360795E+003  0.3482404E+02  0.7546771E-02  0.1381804E+00
          2   -1    0    0  501    0  0.00000000000E+00  0.00000000000E+00  0.56974446016E+02  0.56974446016E+02  0.00000000000E+00 0.  1.
          2   -1    0    0  502    0 -0.00000000000E+00 -0.00000000000E+00 -0.78427082815E+03  0.78427082815E+03  0.00000000000E+00 0.  1.
          2    1    1    2  501    0  0.30381539394E+02  0.17019864572E+02 -0.77852368624E+03  0.77930215177E+03  0.00000000000E+00 0.  1.
          2    1    1    2  502    0 -0.30381539394E+02 -0.17019864572E+02  0.51227304104E+02  0.61943122393E+02  0.00000000000E+00 0.  1.
</event>
<event>
 4    1  0.9360795E+003  0.2076630E+02  0.7546771E-02  0.1522628E+00
          2   -1    0    0  501    0  0.00000000000E+00  0.00000000000E+00  0.20499284947E+03  0.20499284947E+03  0.00000000000E+00 0.  1.
          2   -1    0    0  502    0 -0.00000000000E+00 -0.00000000000E+00 -0.39757556573E+03  0.39757556573E+03  0.00000000000E+00 0. -1.
          2    1    1    2  501    0 -0.42278075659E+01 -0.20331378728E+02 -0.39677742043E+03  0.39732047604E+03  0.00000000000E+00 0. -1.
          2    1    1    2  502    0  0.42278075659E+01  0.20331378728E+02  0.20419470417E+03  0.20524793916E+03  0.00000000000E+00 0.  1.
</event>
<event>
 4    1  0.9360795E+003  0.3250102E+02  0.7546771E-02  0.1399038E+00
          2   -1    0    0  501    0  0.00000000000E+00  0.00000000000E+00  0.59082096220E+03  0.59082096220E+03  0.00000000000E+00 0. -1.
          2   -1    0    0  502    0 -0.00000000000E+00 -0.00000000000E+00 -0.30887354759E+03  0.30887354759E+03  0.00000000000E+00 0. -1.
          2    1    1    2  501    0  0.31719080594E+02 -0.70863334725E+01 -0.30756971377E+03  0.30928214469E+03  0.00000000000E+00 0. -1.
          2    1    1    2  502    0 -0.31719080594E+02  0.70863334725E+01  0.58951712839E+03  0.59041236510E+03  0.00000000000E+00 0. -1.
</event>
<event>
 4    1  0.9360795E+003  0.2076476E+02  0.7546771E-02  0.1522650E+00
          2   -1    0    0  502    0  0.00000000000E+00  0.00000000000E+00  0.13652210291E+03  0.13652210291E+03  0.00000000000E+00 0.  1.
          2   -1    0    0  501    0 -0.00000000000E+00 -0.00000000000E+00 -0.27632765439E+03  0.27632765439E+03  0.00000000000E+00 0.  1.
          2    1    1    2  501    0  0.40608632676E+01  0.20363810489E+02  0.13533904779E+03  0.13692272728E+03  0.00000000000E+00 0.  1.
          2    1    1    2  502    0 -0.40608632676E+01 -0.20363810489E+02 -0.27514459928E+03  0.27592703003E+03  0.00000000000E+00 0.  1.
</event>
<event>
 4    1  0.1177952E+004  0.2101725E+02  0.7546771E-02  0.1519019E+00
          2   -1    0    0  502    0  0.00000000000E+00  0.00000000000E+00  0.63831878923E+03  0.63831878923E+03  0.00000000000E+00 0. -1.
          2   -1    0    0  501    0 -0.00000000000E+00 -0.00000000000E+00 -0.10434994461E+04  0.10434994461E+04  0.00000000000E+00 0.  1.
          2    1    1    2  501    0 -0.14376643283E+02  0.15330914528E+02  0.63803991202E+03  0.63838597584E+03  0.00000000000E+00 0. -1.
          2    1    1    2  502    0  0.14376643283E+02 -0.15330914528E+02 -0.10432205689E+04  0.10434322595E+04  0.00000000000E+00 0.  1.
</event>
<event>
 4    1  0.9360795E+003  0.2095555E+02  0.7546771E-02  0.1519900E+00
          2   -1    0    0  502    0  0.00000000000E+00  0.00000000000E+00  0.12007549643E+03  0.12007549643E+03  0.00000000000E+00 0.  1.
          2   -1    0    0  501    0 -0.00000000000E+00 -0.00000000000E+00 -0.45670000431E+01  0.45670000431E+01  0.00000000000E+00 0.  1.
          2    1    1    2  501    0  0.20914605917E+02 -0.13092833345E+01  0.85570834558E+02  0.88099390977E+02  0.00000000000E+00 0.  1.
          2    1    1    2  502    0 -0.20914605917E+02  0.13092833345E+01  0.29937661826E+02  0.36543105493E+02  0.00000000000E+00 0.  1.
</event>
<event>
 4    1  0.9360795E+003  0.2001542E+02  0.7546771E-02  0.1533800E+00
          2   -1    0    0  502    0  0.00000000000E+00  0.00000000000E+00  0.21356925330E+03  0.21356925330E+03  0.00000000000E+00 0.  1.
          2   -1    0    0  501    0 -0.00000000000E+00 -0.00000000000E+00 -0.22834555237E+03  0.22834555237E+03  0.00000000000E+00 0. -1.
          2    1    1    2  501    0  0.18582646389E+02 -0.74365573045E+01  0.21265981872E+03  0.21359966205E+03  0.00000000000E+00 0.  1.
          2    1    1    2  502    0 -0.18582646389E+02  0.74365573045E+01 -0.22743611779E+03  0.22831514362E+03  0.00000000000E+00 0. -1.
</event>
<event>
 4    1  0.9360795E+003  0.2777845E+02  0.7546771E-02  0.1439941E+00
          2   -1    0    0  502    0  0.00000000000E+00  0.00000000000E+00  0.36195442517E+01  0.36195442517E+01  0.00000000000E+00 0. -1.
          2   -1    0    0  501    0 -0.00000000000E+00 -0.00000000000E+00 -0.15567015905E+04  0.15567015905E+04  0.00000000000E+00 0.  1.
          2    1    1    2  501    0 -0.16340941941E+02 -0.22463653820E+02 -0.51767366362E+02  0.58749488054E+02  0.00000000000E+00 0. -1.
          2    1    1    2  502    0  0.16340941941E+02  0.22463653820E+02 -0.15013146799E+04  0.15015716467E+04  0.00000000000E+00 0.  1.
</event>
<event>
 4    1  0.9360795E+003  0.3652590E+02  0.7546771E-02  0.1370142E+00
          2   -1    0    0  502    0  0.00000000000E+00  0.00000000000E+00  0.38556807966E+03  0.38556807966E+03  0.00000000000E+00 0.  1.
          2   -1    0    0  501    0 -0.00000000000E+00 -0.00000000000E+00 -0.92903076584E+02  0.92903076584E+02  0.00000000000E+00 0.  1.
          2    1    1    2  501    0  0.30858844696E+02 -0.19541566155E+02  0.38107061360E+03  0.38281712822E+03  0.00000000000E+00 0.  1.
          2    1    1    2  502    0 -0.30858844696E+02  0.19541566155E+02 -0.88405610531E+02  0.95654028023E+02  0.00000000000E+00 0.  1.
</event>
<event>
 4    1  0.9360795E+003  0.3585521E+02  0.7546771E-02  0.1374649E+00
          2   -1    0    0  502    0  0.00000000000E+00  0.00000000000E+00  0.40613865957E+03  0.40613865957E+03  0.00000000000E+00 0. -1.
          2   -1    0    0  501    0 -0.00000000000E+00 -0.00000000000E+00 -0.24605154950E+02  0.24605154950E+02  0.00000000000E+00 0. -1.
          2    1    1    2  501    0 -0.86771898160E+01  0.34789398858E+02  0.39180828946E+03  0.39344546202E+03  0.00000000000E+00 0. -1.
          2    1    1    2  502    0  0.86771898160E+01 -0.34789398858E+02 -0.10274784836E+02  0.37298352503E+02  0.00000000000E+00 0. -1.
</event>
<event>
 4    1  0.9360795E+003  0.2478042E+02  0.7546771E-02  0.1471275E+00
          2   -1    0    0  501    0  0.00000000000E+00  0.00000000000E+00  0.10722858722E+01  0.10722858722E+01  0.00000000000E+00 0. -1.
          2   -1    0    0  502    0 -0.00000000000E+00 -0.00000000000E+00 -0.17445174637E+04  0.17445174637E+04  0.00000000000E+00 0.  1.
          2    1    1    2  501    0 -0.14035198971E+01 -0.24740641854E+02 -0.15870576346E+04  0.15872510844E+04  0.00000000000E+00 0.  1.
          2    1    1    2  502    0  0.14035198971E+01  0.24740641854E+02 -0.15638754320E+03  0.15833866519E+03  0.00000000000E+00 0. -1.
</event>
<event>
 4    1  0.9360795E+003  0.3353267E+02  0.7546771E-02  0.1391183E+00
          2   -1    0    0  502    0  0.00000000000E+00  0.00000000000E+00  0.69148251981E+03  0.69148251981E+03  0.00000000000E+00 0. -1.
          2   -1    0    0  501    0 -0.00000000000E+00 -0.00000000000E+00 -0.15411634023E+02  0.15411634023E+02  0.00000000000E+00 0.  1.
          2    1    1    2  501    0  0.31644769857E+02  0.11092730590E+02  0.67231620452E+03  0.67315192861E+03  0.00000000000E+00 0. -1.
          2    1    1    2  502    0 -0.31644769857E+02 -0.11092730590E+02  0.37546812605E+01  0.33742225217E+02  0.00000000000E+00 0.  1.
</event>
<event>
 4    1  0.9360795E+003  0.2083609E+02  0.7546771E-02  0.1521618E+00
          2   -1    0    0  501    0  0.00000000000E+00  0.00000000000E+00  0.87500176147E+02  0.87500176147E+02  0.00000000000E+00 0. -1.
          2   -1    0    0  502    0 -0.00000000000E+00 -0.00000000000E+00 -0.12358927818E+04  0.12358927818E+04  0.00000000000E+00 0.  1.
          2    1    1    2  501    0 -0.17701134704E+02  0.10991480250E+02 -0.12345632208E+04  0.12347390368E+04  0.00000000000E+00 0.  1.
          2    1    1    2  502    0  0.17701134704E+02 -0.10991480250E+02  0.86170615190E+02  0.88653921121E+02  0.00000000000E+00 0. -1.
</event>
<event>
 4    1  0.9360795E+003  0.2473773E+02  0.7546771E-02  0.1471759E+00
          2   -1    0    0  502    0  0.00000000000E+00  0.00000000000E+00  0.24607511994E+01  0.24607511994E+01  0.00000000000E+00 0. -1.
          2   -1    0    0  501    0 -0.00000000000E+00 -0.00000000000E+00 -0.17741756531E+04  0.17741756531E+04  0.00000000000E+00 0.  1.
          2    1    1    2  501    0 -0.15079424988E+02 -0.19610358653E+02 -0.62146504482E+02  0.66889036798E+02  0.00000000000E+00 0. -1.
          2    1    1    2  502    0  0.15079424988E+02  0.19610358653E+02 -0.17095683974E+04  0.17097473675E+04  0.00000000000E+00 0.  1.
</event>
<event>
 4    1  0.9360795E+003  0.2291196E+02  0.7546771E-02  0.1493607E+00
          2   -1    0    0  501    0  0.00000000000E+00  0.00000000000E+00  0.77169724005E+03  0.77169724005E+03  0.00000000000E+00 0. -1.
          2   -1    0    0  502    0 -0.00000000000E+00 -0.00000000000E+00 -0.73356874566E+00  0.73356874566E+00  0.00000000000E+00 0.  1.
          2    1    1    2  501    0  0.21955030887E+02  0.65524574919E+01  0.28137220390E+03  0.28230351611E+03  0.00000000000E+00 0.  1.
          2    1    1    2  502    0 -0.21955030887E+02 -0.65524574919E+01  0.48959146740E+03  0.49012729269E+03  0.00000000000E+00 0. -1.
</event>
<event>
 4    1  0.9360795E+003  0.3146292E+02  0.7546771E-02  0.1407296E+00
          2   -1    0    0  501    0  0.00000000000E+00  0.00000000000E+00  0.10656367410E+04  0.10656367410E+04  0.00000000000E+00 0. -1.
          2   -1    0    0  502    0 -0.00000000000E+00 -0.00000000000E+00 -0.11223300877E+01  0.11223300877E+01  0.00000000000E+00 0. -1.
          2    1    1    2  501    0 -0.35143786952E+01 -0.31266027036E+02  0.31085074165E+03  0.31243895226E+03  0.00000000000E+00 0. -1.
          2    1    1    2  502    0  0.35143786952E+01  0.31266027036E+02  0.75366366927E+03  0.75432011884E+03  0.00000000000E+00 0. -1.
</event>
<event>
 4    1  0.9360795E+003  0.2856574E+02  0.7546771E-02  0.1432484E+00
          2   -1    0    0  502    0  0.00000000000E+00  0.00000000000E+00  0.24883963829E+01  0.24883963829E+01  0.00000000000E+00 0.  1.
          2   -1    0    0  501    0 -0.00000000000E+00 -0.00000000000E+00 -0.76609450010E+03  0.76609450010E+03  0.00000000000E+00 0. -1.
          2    1    1    2  501    0  0.24774323106E+02 -0.14220923436E+02 -0.91172181728E+02  0.95542495622E+02  0.00000000000E+00 0.  1.
          2    1    1    2  502    0 -0.24774323106E+02  0.14220923436E+02 -0.67243392199E+03  0.67304040086E+03  0.00000000000E+00 0. -1.
</event>
<event>
 4    1  0.9360795E+003  0.2646835E+02  0.7546771E-02  0.1453023E+00
          2   -1    0    0  501    0  0.00000000000E+00  0.00000000000E+00  0.12645747216E+01  0.12645747216E+01  0.00000000000E+00 0.  1.
          2   -1    0    0  502    0 -0.00000000000E+00 -0.00000000000E+00 -0.83113749695E+03  0.83113749695E+03  0.00000000000E+00 0.  1.
          2    1    1    2  501    0  0.16361110179E+02  0.20805948044E+02 -0.65527033156E+03  0.65580468192E+03  0.00000000000E+00 0.  1.
          2    1    1    2  502    0 -0.16361110179E+02 -0.20805948044E+02 -0.17460259067E+03  0.17659738976E+03  0.00000000000E+00 0.  1.
</event>
<event>
 4    1  0.9360795E+003  0.2191010E+02  0.7546771E-02  0.1506657E+00
          2   -1    0    0  502    0  0.00000000000E+00  0.00000000000E+00  0.14198751269E+03  0.14198751269E+03  0.00000000000E+00 0.  1.
          2   -1    0    0  501    0 -0.00000000000E+00 -0.00000000000E+00 -0.42200631131E+03  0.42200631131E+03  0.00000000000E+00 0. -1.
          2    1    1    2  501    0  0.21904208366E+02  0.50802418922E+00  0.14085561700E+03  0.14254949061E+03  0.00000000000E+00 0.  1.
          2    1    1    2  502    0 -0.21904208366E+02 -0.50802418922E+00 -0.42087441561E+03  0.42144433339E+03  0.00000000000E+00 0. -1.
</event>
<event>
 4    1  0.9360795E+003  0.2357671E+02  0.7546771E-02  0.1485381E+00
          2   -1    0    0  501    0  0.00000000000E+00  0.00000000000E+00  0.48014214289E+02  0.48014214289E+02  0.00000000000E+00 0.  1.
          2   -1    0    0  502    0 -0.00000000000E+00 -0.00000000000E+00 -0.62241494719E+02  0.62241494719E+02  0.00000000000E+00 0. -1.
          2    1    1    2  501    0  0.19906505442E+02 -0.12632979917E+02 -0.56851018555E+02  0.61545913359E+02  0.00000000000E+00 0. -1.
          2    1    1    2  502    0 -0.19906505442E+02  0.12632979917E+02  0.42623738124E+02  0.48709795649E+02  0.00000000000E+00 0.  1.
</event>
<event>
 4    1  0.9360795E+003  0.2817367E+02  0.7546771E-02  0.1436162E+00
          2   -1    0    0  502    0  0.00000000000E+00  0.00000000000E+00  0.75009909868E+02  0.75009909868E+02  0.00000000000E+00 0. -1.
          2   -1    0    0  501    0 -0.00000000000E+00 -0.00000000000E+00 -0.60342713167E+02  0.60342713167E+02  0.00000000000E+00 0. -1.
          2    1    1    2  501    0 -0.16841426176E+02  0.22585877971E+02  0.68790056040E+02  0.74335908748E+02  0.00000000000E+00 0. -1.
          2    1    1    2  502    0  0.16841426176E+02 -0.22585877971E+02 -0.54122859339E+02  0.61016714287E+02  0.00000000000E+00 0. -1.
</event>
<event>
 4    1  0.9360795E+003  0.2775080E+02  0.7546771E-02  0.1440208E+00
          2   -1    0    0  501    0  0.00000000000E+00  0.00000000000E+00  0.52813093472E+02  0.52813093472E+02  0.00000000000E+00 0. -1.
          2   -1    0    0  502    0 -0.00000000000E+00 -0.00000000000E+00 -0.85468453009E+02  0.85468453009E+02  0.00000000000E+00 0.  1.
          2    1    1    2  501    0 -0.16641757045E+02  0.22207185771E+02 -0.79294782078E+02  0.84010532924E+02  0.00000000000E+00 0.  1.
          2    1    1    2  502    0  0.16641757045E+02 -0.22207185771E+02  0.46639422541E+02  0.54271013556E+02  0.00000000000E+00 0. -1.
</event>
<event>
 4    1  0.9360795E+003  0.3655254E+02  0.7546771E-02  0.1369965E+00
          2   -1    0    0  502    0  0.00000000000E+00  0.00000000000E+00  0.25256071088E+03  0.25256071088E+03  0.00000000000E+00 0.  1.
          2   -1    0    0  501    0 -0.00000000000E+00 -0.00000000000E+00 -0.20993463159E+03  0.20993463159E+03  0.00000000000E+00 0.  1.
          2    1    1    2  501    0 -0.56527871528E+01  0.36112797605E+02  0.24962850279E+03  0.25229046268E+03  0.00000000000E+00 0.  1.
          2    1    1    2  502    0  0.56527871528E+01 -0.36112797605E+02 -0.20700242350E+03  0.21020487979E+03  0.00000000000E+00 0.  1.
</event>
<event>
 4    1  0.9360795E+003  0.2770498E+02  0.7546771E-02  0.1440652E+00
          2   -1    0    0  502    0  0.00000000000E+00  0.00000000000E+00  0.11347771654E+04  0.11347771654E+04  0.00000000000E+00 0. -1.
          2   -1    0    0  501    0 -0.00000000000E+00 -0.00000000000E+00 -0.13408205784E+02  0.13408205784E+02  0.00000000000E+00 0.  1.
          2    1    1    2  501    0 -0.18850275501E+02 -0.20303528169E+02  0.11201091825E+04  0.11204517602E+04  0.00000000000E+00 0. -1.
          2    1    1    2  502    0  0.18850275501E+02  0.20303528169E+02  0.12597771348E+01  0.27733611035E+02  0.00000000000E+00 0.  1.
</event>
<event>
 4    1  0.9360795E+003  0.2857122E+02  0.7546771E-02  0.1432433E+00
          2   -1    0    0  502    0  0.00000000000E+00  0.00000000000E+00  0.36141700316E+03  0.36141700316E+03  0.00000000000E+00 0.  1.
          2   -1    0    0  501    0 -0.00000000000E+00 -0.00000000000E+00 -0.43271163263E+01  0.43271163263E+01  0.00000000000E+00 0.  1.
          2    1    1    2  501    0  0.27047290007E+02  0.92064418276E+01  0.52108487951E+02  0.59427342061E+02  0.00000000000E+00 0.  1.
          2    1    1    2  502    0 -0.27047290007E+02 -0.92064418276E+01  0.30498139889E+03  0.30631677743E+03  0.00000000000E+00 0.  1.
</event>
<event>
 4    1  0.9360795E+003  0.2158957E+02  0.7546771E-02  0.1511011E+00
          2   -1    0    0  502    0  0.00000000000E+00  0.00000000000E+00  0.93490016205E+03  0.93490016205E+03  0.00000000000E+00 0.  1.
          2   -1    0    0  501    0 -0.00000000000E+00 -0.00000000000E+00 -0.20014909302E+03  0.20014909302E+03  0.00000000000E+00 0.  1.
          2    1    1    2  501    0 -0.12553389291E+02 -0.17564798761E+02  0.93419287658E+03  0.93444231518E+03  0.00000000000E+00 0.  1.
          2    1    1    2  502    0  0.12553389291E+02  0.17564798761E+02 -0.19944180754E+03  0.20060693990E+03  0.00000000000E+00 0.  1.
</event>
<event>
 4    1  0.9360795E+003  0.2994405E+02  0.7546771E-02  0.1420083E+00
          2   -1    0    0  501    0  0.00000000000E+00  0.00000000000E+00  0.40691872803E+03  0.40691872803E+03  0.00000000000E+00 0.  1.
          2   -1    0    0  502    0 -0.00000000000E+00 -0.00000000000E+00 -0.32108367664E+02  0.32108367664E+02  0.00000000000E+00 0.  1.
          2    1    1    2  501    0  0.30171311966E+01 -0.29791661082E+02 -0.24442222956E+02  0.38653181159E+02  0.00000000000E+00 0.  1.
          2    1    1    2  502    0 -0.30171311966E+01  0.29791661082E+02  0.39925258332E+03  0.40037391453E+03  0.00000000000E+00 0.  1.
</event>
<event>
 4    1  0.9360795E+003  0.2011228E+02  0.7546771E-02  0.1532326E+00
          2   -1    0    0  502    0  0.00000000000E+00  0.00000000000E+00  0.62838117219E+03  0.62838117219E+03  0.00000000000E+00 0.  1.
          2   -1    0    0  501    0 -0.00000000000E+00 -0.00000000000E+00 -0.20894180285E+01  0.20894180285E+01  0.00000000000E+00 0. -1.
          2    1    1    2  501    0  0.13525907446E+02 -0.14884679468E+02  0.57536261262E+03  0.57571402611E+03  0.00000000000E+00 0.  1.
          2    1    1    2  502    0 -0.13525907446E+02  0.14884679468E+02  0.50929141534E+02  0.54756564104E+02  0.00000000000E+00 0. -1.
</event>
<event>
 4    1  0.9360795E+003  0.2224182E+02  0.7546771E-02  0.1502245E+00
          2   -1    0    0  502    0  0.00000000000E+00  0.00000000000E+00  0.29611719304E+04  0.29611719304E+04  0.00000000000E+00 0.  1.
          2   -1    0    0  501    0 -0.00000000000E+00 -0.00000000000E+00 -0.16916279862E+00  0.16916279862E+00  0.00000000000E+00 0.  1.
          2    1    1    2  501    0  0.26343636295E+01  0.22085256676E+02  0.16455183561E+04  0.16456686662E+04  0.00000000000E+00 0.  1.
          2    1    1    2  502    0 -0.26343636295E+01 -0.22085256676E+02  0.13154844114E+04  0.13156724270E+04  0.00000000000E+00 0.  1.
</event>
<event>
 4    1  0.9360795E+003  0.2323876E+02  0.7546771E-02  0.1489522E+00
          2   -1    0    0  501    0  0.00000000000E+00  0.00000000000E+00  0.38609400096E+02  0.38609400096E+02  0.00000000000E+00 0. -1.
          2   -1    0    0  502    0 -0.00000000000E+00 -0.00000000000E+00 -0.35058323294E+02  0.35058323294E+02  0.00000000000E+00 0.  1.
          2    1    1    2  501    0  0.23118319210E+02  0.23629239780E+01 -0.26780292921E+02  0.35457357230E+02  0.00000000000E+00 0.  1.
          2    1    1    2  502    0 -0.23118319210E+02 -0.23629239780E+01  0.30331369723E+02  0.38210366160E+02  0.00000000000E+00 0. -1.
</event>
<event>
 4    1  0.9360795E+003  0.3215249E+02  0.7546771E-02  0.1401769E+00
          2   -1    0    0  502    0  0.00000000000E+00  0.00000000000E+00  0.19823558875E+04  0.19823558875E+04  0.00000000000E+00 0.  1.
          2   -1    0    0  501    0 -0.00000000000E+00 -0.00000000000E+00 -0.74832767226E+00  0.74832767226E+00  0.00000000000E+00 0. -1.
          2    1    1    2  501    0  0.81295562030E+01  0.31107761027E+02  0.15367192979E+04  0.15370556213E+04  0.00000000000E+00 0.  1.
          2    1    1    2  502    0 -0.81295562030E+01 -0.31107761027E+02  0.44488826189E+03  0.44604859382E+03  0.00000000000E+00 0. -1.
</event>
<event>
 4    1  0.9360795E+003  0.2238410E+02  0.7546771E-02  0.1500380E+00
          2   -1    0    0  501    0  0.00000000000E+00  0.00000000000E+00  0.30521090194E+03  0.30521090194E+03  0.00000000000E+00 0. -1.
          2   -1    0    0  502    0 -0.00000000000E+00 -0.00000000000E+00 -0.41008310858E+01  0.41008310858E+01  0.00000000000E+00 0.  1.
          2    1    1    2  501    0  0.81236016928E+01  0.20857975391E+02  0.30791080726E+02  0.38067554349E+02  0.00000000000E+00 0.  1.
          2    1    1    2  502    0 -0.81236016928E+01 -0.20857975391E+02  0.27031899013E+03  0.27124417867E+03  0.00000000000E+00 0. -1.
</event>
<event>
 4    1  0.9360795E+003  0.2156011E+02  0.7546771E-02  0.1511416E+00
          2   -1    0    0  502    0  0.00000000000E+00  0.00000000000E+00  0.12488156047E+03  0.12488156047E+03  0.00000000000E+00 0.  1.
          2   -1    0    0  501    0 -0.00000000000E+00 -0.00000000000E+00 -0.19315222484E+03  0.19315222484E+03  0.00000000000E+00 0. -1.
          2    1    1    2  501    0  0.18088290924E+02 -0.11732523747E+02  0.12334190049E+03  0.12521207130E+03  0.00000000000E+00 0.  1.
          2    1    1    2  502    0 -0.18088290924E+02  0.11732523747E+02 -0.19161256486E+03  0.19282171401E+03  0.00000000000E+00 0. -1.
</event>
<event>
 4    1  0.9360795E+003  0.2412650E+02  0.7546771E-02  0.1478817E+00
          2   -1    0    0  501    0  0.00000000000E+00  0.00000000000E+00  0.65116252071E+03  0.65116252071E+03  0.00000000000E+00 0. -1.
          2   -1    0    0  502    0 -0.00000000000E+00 -0.00000000000E+00 -0.18689608872E+01  0.18689608872E+01  0.00000000000E+00 0.  1.
          2    1    1    2  501    0 -0.29056396957E+00  0.24124746062E+02  0.88807996841E+02  0.92026887934E+02  0.00000000000E+00 0.  1.
          2    1    1    2  502    0  0.29056396957E+00 -0.24124746062E+02  0.56048556298E+03  0.56100459367E+03  0.00000000000E+00 0. -1.
</event>
<event>
 4    1  0.9360795E+003  0.6952509E+02  0.7546771E-02  0.1230506E+00
          2   -1    0    0  501    0  0.00000000000E+00  0.00000000000E+00  0.51711365469E+03  0.51711365469E+03  0.00000000000E+00 0. -1.
          2   -1    0    0  502    0 -0.00000000000E+00 -0.00000000000E+00 -0.83734442265E+02  0.83734442265E+02  0.00000000000E+00 0. -1.
          2    1    1    2  501    0 -0.44797265179E+02  0.53169005053E+02 -0.66469725881E+02  0.96187122446E+02  0.00000000000E+00 0. -1.
          2    1    1    2  502    0  0.44797265179E+02 -0.53169005053E+02  0.49984893830E+03  0.50466097451E+03  0.00000000000E+00 0. -1.
</event>
<event>
 4    1  0.9360795E+003  0.2029021E+02  0.7546771E-02  0.1529645E+00
          2   -1    0    0  501    0  0.00000000000E+00  0.00000000000E+00  0.78162409856E+00  0.78162409856E+00  0.00000000000E+00 0. -1.
          2   -1    0    0  502    0 -0.00000000000E+00 -0.00000000000E+00 -0.14226685036E+04  0.14226685036E+04  0.00000000000E+00 0. -1.
          2    1    1    2  501    0 -0.20270646872E+02 -0.89069976583E+00 -0.12757546974E+04  0.12759160397E+04  0.00000000000E+00 0. -1.
          2    1    1    2  502    0  0.20270646872E+02  0.89069976583E+00 -0.14613218213E+03  0.14753408801E+03  0.00000000000E+00 0. -1.
</event>
<event>
 4    1  0.9360795E+003  0.2278141E+02  0.7546771E-02  0.1495261E+00
          2   -1    0    0  501    0  0.00000000000E+00  0.00000000000E+00  0.10798261986E+04  0.10798261986E+04  0.00000000000E+00 0. -1.
          2   -1    0    0  502    0 -0.00000000000E+00 -0.00000000000E+00 -0.93899904050E+00  0.93899904050E+00  0.00000000000E+00 0. -1.
          2    1    1    2  501    0  0.14323277412E+02 -0.17715424412E+02  0.16189025824E+03  0.16348531510E+03  0.00000000000E+00 0. -1.
          2    1    1    2  502    0 -0.14323277412E+02  0.17715424412E+02  0.91699694134E+03  0.91727988257E+03  0.00000000000E+00 0. -1.
</event>
<event>
 4    1  0.9360795E+003  0.2819827E+02  0.7546771E-02  0.1435929E+00
          2   -1    0    0  502    0  0.00000000000E+00  0.00000000000E+00  0.54765747669E+02  0.54765747669E+02  0.00000000000E+00 0. -1.
          2   -1    0    0  501    0 -0.00000000000E+00 -0.00000000000E+00 -0.51525285269E+03  0.51525285269E+03  0.00000000000E+00 0. -1.
          2    1    1    2  501    0  0.27802257871E+02 -0.47092071842E+01  0.50721510021E+02  0.58032867875E+02  0.00000000000E+00 0. -1.
          2    1    1    2  502    0 -0.27802257871E+02  0.47092071842E+01 -0.51120861504E+03  0.51198573249E+03  0.00000000000E+00 0. -1.
</event>
<event>
 4    1  0.9360795E+003  0.2023612E+02  0.7546771E-02  0.1530456E+00
          2   -1    0    0  502    0  0.00000000000E+00  0.00000000000E+00  0.19652471637E+02  0.19652471637E+02  0.00000000000E+00 0. -1.
          2   -1    0    0  501    0 -0.00000000000E+00 -0.00000000000E+00 -0.20854157313E+02  0.20854157313E+02  0.00000000000E+00 0. -1.
          2    1    1    2  501    0 -0.12661751790E+02 -0.15785461026E+02 -0.11798868898E+01  0.20270492625E+02  0.00000000000E+00 0. -1.
          2    1    1    2  502    0  0.12661751790E+02  0.15785461026E+02 -0.21798786528E-01  0.20236136325E+02  0.00000000000E+00 0. -1.
</event>
<event>
 4    1  0.9360795E+003  0.2127438E+02  0.7546771E-02  0.1515383E+00
          2   -1    0    0  502    0  0.00000000000E+00  0.00000000000E+00  0.22631185844E+00  0.22631185844E+00  0.00000000000E+00 0. -1.
          2   -1    0    0  501    0 -0.00000000000E+00 -0.00000000000E+00 -0.21227260729E+04  0.21227260729E+04  0.00000000000E+00 0. -1.
          2    1    1    2  501    0 -0.10837254788E+02  0.18307189001E+02 -0.80590754739E+03  0.80618829947E+03  0.00000000000E+00 0. -1.
          2    1    1    2  502    0  0.10837254788E+02 -0.18307189001E+02 -0.13165922137E+04  0.13167640853E+04  0.00000000000E+00 0. -1.
</event>
<event>
 4    1  0.9360795E+003  0.2336174E+02  0.7546771E-02  0.1488005E+00
          2   -1    0    0  502    0  0.00000000000E+00  0.00000000000E+00  0.45780768298E+02  0.45780768298E+02  0.00000000000E+00 0. -1.
          2   -1    0    0  501    0 -0.00000000000E+00 -0.00000000000E+00 -0.28460470927E+02  0.28460470927E+02  0.00000000000E+00 0. -1.
          2    1    1    2  501    0  0.18009670144E+02  0.14880279341E+02  0.36957755471E+02  0.43722381241E+02  0.00000000000E+00 0. -1.
          2    1    1    2  502    0 -0.18009670144E+02 -0.14880279341E+02 -0.19637458100E+02  0.30518857983E+02  0.00000000000E+00 0. -1.
</event>
<event>
 4    1  0.9360795E+003  0.2737829E+02  0.7546771E-02  0.1443845E+00
          2   -1    0    0  501    0  0.00000000000E+00  0.00000000000E+00  0.21658628476E+04  0.21658628476E+04  0.00000000000E+00 0. -1.
          2   -1    0    0  502    0 -0.00000000000E+00 -0.00000000000E+00 -0.10458956103E+01  0.10458956103E+01  0.00000000000E+00 0. -1.
          2    1    1    2  501    0 -0.12149344914E+02  0.24534954114E+02  0.19615690765E+03  0.19805833225E+03  0.00000000000E+00 0. -1.
          2    1    1    2  502    0  0.12149344914E+02 -0.24534954114E+02  0.19686600443E+04  0.19688504109E+04  0.00000000000E+00 0. -1.
</event>
<event>
 4    1  0.9360795E+003  0.2418230E+02  0.7546771E-02  0.1478163E+00
          2   -1    0    0  501    0  0.00000000000E+00  0.00000000000E+00  0.82599645176E+01  0.82599645176E+01  0.00000000000E+00 0. -1.
          2   -1    0    0  502    0 -0.00000000000E+00 -0.00000000000E+00 -0.10979422535E+03  0.10979422535E+03  0.00000000000E+00 0. -1.
          2    1    1    2  501    0 -0.20915984458E+02  0.12136945657E+02 -0.85945555482E+02  0.89282822328E+02  0.00000000000E+00 0. -1.
          2    1    1    2  502    0  0.20915984458E+02 -0.12136945657E+02 -0.15588705356E+02  0.28771367545E+02  0.00000000000E+00 0. -1.
</event>
<event>
 4    1  0.9360795E+003  0.3704233E+02  0.7546771E-02  0.1366747E+00
          2   -1    0    0  502    0  0.00000000000E+00  0.00000000000E+00  0.23463883638E+03  0.23463883638E+03  0.00000000000E+00 0.  1.
          2   -1    0    0  501    0 -0.00000000000E+00 -0.00000000000E+00 -0.87585983067E+01  0.87585983067E+01  0.00000000000E+00 0. -1.
          2    1    1    2  501    0  0.85528857974E+01  0.36041401756E+02  0.18309702996E+03  0.18680646904E+03  0.00000000000E+00 0.  1.
          2    1    1    2  502    0 -0.85528857974E+01 -0.36041401756E+02  0.42783208110E+02  0.56590965641E+02  0.00000000000E+00 0. -1.
</event>
<event>
 4    1  0.9360795E+003  0.2588362E+02  0.7546771E-02  0.1459156E+00
          2   -1    0    0  501    0  0.00000000000E+00  0.00000000000E+00  0.63183751470E+03  0.63183751470E+03  0.00000000000E+00 0.  1.
          2   -1    0    0  502    0 -0.00000000000E+00 -0.00000000000E+00 -0.36767240325E+01  0.36767240325E+01  0.00000000000E+00 0. -1.
          2    1    1    2  501    0 -0.66193479003E+01  0.25022910960E+02  0.46030515760E+02  0.52808808173E+02  0.00000000000E+00 0. -1.
          2    1    1    2  502    0  0.66193479003E+01 -0.25022910960E+02  0.58213027490E+03  0.58270543056E+03  0.00000000000E+00 0.  1.
</event>
<event>
 4    1  0.9360795E+003  0.4388645E+02  0.7546771E-02  0.1327102E+00
          2   -1    0    0  501    0  0.00000000000E+00  0.00000000000E+00  0.93796691871E+01  0.93796691871E+01  0.00000000000E+00 0. -1.
          2   -1    0    0  502    0 -0.00000000000E+00 -0.00000000000E+00 -0.31053926970E+04  0.31053926970E+04  0.00000000000E+00 0. -1.
          2    1    1    2  501    0  0.32176345059E+02 -0.29844651174E+02 -0.30530221278E+04  0.30533375400E+04  0.00000000000E+00 0. -1.
          2    1    1    2  502    0 -0.32176345059E+02  0.29844651174E+02 -0.42990900048E+02  0.61434826215E+02  0.00000000000E+00 0. -1.
</event>
<event>
 4    1  0.9360795E+003  0.4811290E+02  0.7546771E-02  0.1306568E+00
          2   -1    0    0  501    0  0.00000000000E+00  0.00000000000E+00  0.66296736143E+03  0.66296736143E+03  0.00000000000E+00 0. -1.
          2   -1    0    0  502    0 -0.00000000000E+00 -0.00000000000E+00 -0.52294492092E+01  0.52294492092E+01  0.00000000000E+00 0. -1.
          2    1    1    2  501    0  0.37116163914E+02 -0.30614402346E+02  0.13627352207E+03  0.14451755628E+03  0.00000000000E+00 0. -1.
          2    1    1    2  502    0 -0.37116163914E+02  0.30614402346E+02  0.52146439015E+03  0.52367925436E+03  0.00000000000E+00 0. -1.
</event>
<event>
 4    1  0.9360795E+003  0.2030114E+02  0.7546771E-02  0.1529481E+00
          2   -1    0    0  501    0  0.00000000000E+00  0.00000000000E+00  0.10935808873E+03  0.10935808873E+03  0.00000000000E+00 0.  1.
          2   -1    0    0  502    0 -0.00000000000E+00 -0.00000000000E+00 -0.31968913784E+02  0.31968913784E+02  0.00000000000E+00 0.  1.
          2    1    1    2  501    0 -0.70483080918E+01 -0.19038317036E+02 -0.27673229040E+02  0.34321185411E+02  0.00000000000E+00 0.  1.
          2    1    1    2  502    0  0.70483080918E+01  0.19038317036E+02  0.10506240398E+03  0.10700581710E+03  0.00000000000E+00 0.  1.
</event>
<event>
 4    1  0.9360795E+003  0.4252453E+02  0.7546771E-02  0.1334295E+00
          2   -1    0    0  502    0  0.00000000000E+00  0.00000000000E+00  0.96317189485E+01  0.96317189485E+01  0.00000000000E+00 0. -1.
          2   -1    0    0  501    0 -0.00000000000E+00 -0.00000000000E+00 -0.23898760764E+04  0.23898760764E+04  0.00000000000E+00 0. -1.
          2    1    1    2  501    0 -0.23677194091E+02 -0.35323164603E+02 -0.38458233670E+02  0.57335601633E+02  0.00000000000E+00 0. -1.
          2    1    1    2  502    0  0.23677194091E+02  0.35323164603E+02 -0.23417861238E+04  0.23421721937E+04  0.00000000000E+00 0. -1.
</event>
<event>
 4    1  0.9360795E+003  0.2457126E+02  0.7546771E-02  0.1473657E+00
          2   -1    0    0  502    0  0.00000000000E+00  0.00000000000E+00  0.42455509944E+02  0.42455509944E+02  0.00000000000E+00 0. -1.
          2   -1    0    0  501    0 -0.00000000000E+00 -0.00000000000E+00 -0.10207217573E+04  0.10207217573E+04  0.00000000000E+00 0. -1.
          2    1    1    2  501    0  0.15209402762E+02 -0.19298213294E+02  0.38739474629E+02  0.45874762814E+02  0.00000000000E+00 0. -1.
          2    1    1    2  502    0 -0.15209402762E+02  0.19298213294E+02 -0.10170057220E+04  0.10173025044E+04  0.00000000000E+00 0. -1.
</event>
<event>
 4    1  0.9360795E+003  0.4800756E+02  0.7546771E-02  0.1307050E+00
          2   -1    0    0  501    0  0.00000000000E+00  0.00000000000E+00  0.28494019651E+02  0.28494019651E+02  0.00000000000E+00 0. -1.
          2   -1    0    0  502    0 -0.00000000000E+00 -0.00000000000E+00 -0.22605034161E+03  0.22605034161E+03  0.00000000000E+00 0.  1.
          2    1    1    2  501    0  0.10452807764E+02 -0.46855784624E+02 -0.20076944420E+03  0.20642939584E+03  0.00000000000E+00 0.  1.
          2    1    1    2  502    0 -0.10452807764E+02  0.46855784624E+02  0.32131222405E+01  0.48114965420E+02  0.00000000000E+00 0. -1.
</event>
<event>
 4    1  0.9360795E+003  0.2065136E+02  0.7546771E-02  0.1524301E+00
          2   -1    0    0  501    0  0.00000000000E+00  0.00000000000E+00  0.97413051652E+02  0.97413051652E+02  0.00000000000E+00 0. -1.
          2   -1    0    0  502    0 -0.00000000000E+00 -0.00000000000E+00 -0.29342288064E+02  0.29342288064E+02  0.00000000000E+00 0.  1.
          2    1    1    2  501    0 -0.14556300596E+02 -0.14648992150E+02 -0.24423226079E+02  0.31983946445E+02  0.00000000000E+00 0.  1.
          2    1    1    2  502    0  0.14556300596E+02  0.14648992150E+02  0.92493989668E+02  0.94771393272E+02  0.00000000000E+00 0. -1.
</event>
<event>
 4    1  0.9360795E+003  0.2741915E+02  0.7546771E-02  0.1443442E+00
          2   -1    0    0  501    0  0.00000000000E+00  0.00000000000E+00  0.19293560055E+02  0.19293560055E+02  0.00000000000E+00 0. -1.
          2   -1    0    0  502    0 -0.00000000000E+00 -0.00000000000E+00 -0.59656127361E+02  0.59656127361E+02  0.00000000000E+00 0.  1.
          2    1    1    2  501    0 -0.21781593909E+02  0.16654494876E+02 -0.43428188149E+02  0.51359688070E+02  0.00000000000E+00 0.  1.
          2    1    1    2  502    0  0.21781593909E+02 -0.16654494876E+02  0.30656208431E+01  0.27589999346E+02  0.00000000000E+00 0. -1.
</event>
<event>
 4    1  0.9360795E+003  0.5801064E+02  0.7546771E-02  0.1266746E+00
          2   -1    0    0  502    0  0.00000000000E+00  0.00000000000E+00  0.23261991909E+03  0.23261991909E+03  0.00000000000E+00 0.  1.
          2   -1    0    0  501    0 -0.00000000000E+00 -0.00000000000E+00 -0.14645901142E+02  0.14645901142E+02  0.00000000000E+00 0.  1.
          2    1    1    2  501    0 -0.25487576739E+02 -0.52111590467E+02  0.12266394775E+03  0.13568964038E+03  0.00000000000E+00 0.  1.
          2    1    1    2  502    0  0.25487576739E+02  0.52111590467E+02  0.95310070198E+02  0.11157617985E+03  0.00000000000E+00 0.  1.
</event>
<event>
 4    1  0.9360795E+003  0.2407881E+02  0.7546771E-02  0.1479378E+00
          2   -1    0    0  501    0  0.00000000000E+00  0.00000000000E+00  0.14516433850E+04  0.14516433850E+04  0.00000000000E+00 0. -1.
          2   -1    0    0  502    0 -0.00000000000E+00 -0.00000000000E+00 -0.42785841440E+02  0.42785841440E+02  0.00000000000E+00 0.  1.
          2    1    1    2  501    0  0.92820150400E+01  0.22217859461E+02 -0.39290074519E+02  0.46081439191E+02  0.00000000000E+00 0.  1.
          2    1    1    2  502    0 -0.92820150400E+01 -0.22217859461E+02  0.14481476180E+04  0.14483477872E+04  0.00000000000E+00 0. -1.
</event>
<event>
 4    1  0.9360795E+003  0.7808580E+02  0.7546771E-02  0.1208363E+00
          2   -1    0    0  501    0  0.00000000000E+00  0.00000000000E+00  0.15275711015E+02  0.15275711015E+02  0.00000000000E+00 0.  1.
          2   -1    0    0  502    0 -0.00000000000E+00 -0.00000000000E+00 -0.15482758404E+04  0.15482758404E+04  0.00000000000E+00 0.  1.
          2    1    1    2  501    0 -0.22111761008E+02  0.74889664141E+02 -0.14400048743E+04  0.14421204630E+04  0.00000000000E+00 0.  1.
          2    1    1    2  502    0  0.22111761008E+02 -0.74889664141E+02 -0.92995255128E+02  0.12143108847E+03  0.00000000000E+00 0.  1.
</event>
<event>
 4    1  0.9360795E+003  0.2420218E+02  0.7546771E-02  0.1477930E+00
          2   -1    0    0  502    0  0.00000000000E+00  0.00000000000E+00  0.45573617929E+03  0.45573617929E+03  0.00000000000E+00 0. -1.
          2   -1    0    0  501    0 -0.00000000000E+00 -0.00000000000E+00 -0.24173100195E+03  0.24173100195E+03  0.00000000000E+00 0.  1.
          2    1    1    2  501    0 -0.32873613551E+01  0.23977878040E+02  0.45480784321E+03  0.45545133617E+03  0.00000000000E+00 0. -1.
          2    1    1    2  502    0  0.32873613551E+01 -0.23977878040E+02 -0.24080266587E+03  0.24201584508E+03  0.00000000000E+00 0.  1.
</event>
<event>
 4    1  0.9360795E+003  0.2036000E+02  0.7546771E-02  0.1528602E+00
          2   -1    0    0  501    0  0.00000000000E+00  0.00000000000E+00  0.19463086229E+02  0.19463086229E+02  0.00000000000E+00 0. -1.
          2   -1    0    0  502    0 -0.00000000000E+00 -0.00000000000E+00 -0.43884593188E+03  0.43884593188E+03  0.00000000000E+00 0.  1.
          2    1    1    2  501    0  0.16858318239E+02  0.11416079820E+02 -0.43321606316E+03  0.43369423233E+03  0.00000000000E+00 0.  1.
          2    1    1    2  502    0 -0.16858318239E+02 -0.11416079820E+02  0.13833217512E+02  0.24614785781E+02  0.00000000000E+00 0. -1.
</event>
<event>
 4    1  0.9360795E+003  0.2480801E+02  0.7546771E-02  0.1470963E+00
          2   -1    0    0  502    0  0.00000000000E+00  0.00000000000E+00  0.48386093595E+02  0.48386093595E+02  0.00000000000E+00 0.  1.
          2   -1    0    0  501    0 -0.00000000000E+00 -0.00000000000E+00 -0.14401426998E+03  0.14401426998E+03  0.00000000000E+00 0. -1.
          2    1    1    2  501    0 -0.22229454542E+02  0.11013117187E+02  0.44039720253E+02  0.50546358518E+02  0.00000000000E+00 0.  1.
          2    1    1    2  502    0  0.22229454542E+02 -0.11013117187E+02 -0.13966789664E+03  0.14185400506E+03  0.00000000000E+00 0. -1.
</event>
<event>
 4    1  0.9360795E+003  0.3259776E+02  0.7546771E-02  0.1398287E+00
          2   -1    0    0  502    0  0.00000000000E+00  0.00000000000E+00  0.10494645648E+03  0.10494645648E+03  0.00000000000E+00 0. -1.
          2   -1    0    0  501    0 -0.00000000000E+00 -0.00000000000E+00 -0.15756569433E+04  0.15756569433E+04  0.00000000000E+00 0.  1.
          2    1    1    2  501    0  0.31220145105E+02 -0.93763875507E+01  0.10224218202E+03  0.10731299030E+03  0.00000000000E+00 0. -1.
          2    1    1    2  502    0 -0.31220145105E+02  0.93763875507E+01 -0.15729526688E+04  0.15732904095E+04  0.00000000000E+00 0.  1.
</event>
<event>
 4    1  0.9360795E+003  0.2911041E+02  0.7546771E-02  0.1427488E+00
          2   -1    0    0  502    0  0.00000000000E+00  0.00000000000E+00  0.47765146652E+01  0.47765146652E+01  0.00000000000E+00 0. -1.
          2   -1    0    0  501    0 -0.00000000000E+00 -0.00000000000E+00 -0.37947442918E+03  0.37947442918E+03  0.00000000000E+00 0.  1.
          2    1    1    2  501    0 -0.26845797345E+02 -0.11256964864E+02 -0.47153050934E+02  0.55415036817E+02  0.00000000000E+00 0. -1.
          2    1    1    2  502    0  0.26845797345E+02  0.11256964864E+02 -0.32754486358E+03  0.32883590703E+03  0.00000000000E+00 0.  1.
</event>
<event>
 4    1  0.9360795E+003  0.4144640E+02  0.7546771E-02  0.1340212E+00
          2   -1    0    0  502    0  0.00000000000E+00  0.00000000000E+00  0.45815593671E+03  0.45815593671E+03  0.00000000000E+00 0.  1.
          2   -1    0    0  501    0 -0.00000000000E+00 -0.00000000000E+00 -0.74472919470E+01  0.74472919470E+01  0.00000000000E+00 0.  1.
          2    1    1    2  501    0  0.25413944749E+02  0.32740420863E+02  0.38939996198E+03  0.39159945625E+03  0.00000000000E+00 0.  1.
          2    1    1    2  502    0 -0.25413944749E+02 -0.32740420863E+02  0.61308682790E+02  0.74003772414E+02  0.00000000000E+00 0.  1.
</event>
<event>
 4    1  0.9360795E+003  0.2267929E+02  0.7546771E-02  0.1496565E+00
          2   -1    0    0  501    0  0.00000000000E+00  0.00000000000E+00  0.16627892917E+03  0.16627892917E+03  0.00000000000E+00 0.  1.
          2   -1    0    0  502    0 -0.00000000000E+00 -0.00000000000E+00 -0.37062691990E+01  0.37062691990E+01  0.00000000000E+00 0. -1.
          2    1    1    2  501    0 -0.21993336006E+02  0.55356569129E+01  0.46721648050E+02  0.51935178084E+02  0.00000000000E+00 0.  1.
          2    1    1    2  502    0  0.21993336006E+02 -0.55356569129E+01  0.11585101192E+03  0.11805002028E+03  0.00000000000E+00 0. -1.
</event>
<event>
 4    1  0.9360795E+003  0.3553552E+02  0.7546771E-02  0.1376837E+00
          2   -1    0    0  501    0  0.00000000000E+00  0.00000000000E+00  0.17018542377E+03  0.17018542377E+03  0.00000000000E+00 0.  1.
          2   -1    0    0  502    0 -0.00000000000E+00 -0.00000000000E+00 -0.12519470747E+04  0.12519470747E+04  0.00000000000E+00 0. -1.
          2    1    1    2  501    0  0.32359530811E+02  0.14684475106E+02 -0.12498367856E+04  0.12503418587E+04  0.00000000000E+00 0. -1.
          2    1    1    2  502    0 -0.32359530811E+02 -0.14684475106E+02  0.16807513462E+03  0.17179063979E+03  0.00000000000E+00 0.  1.
</event>
<event>
 4    1  0.9360795E+003  0.3183153E+02  0.7546771E-02  0.1404321E+00
          2   -1    0    0  502    0  0.00000000000E+00  0.00000000000E+00  0.15340340763E+04  0.15340340763E+04  0.00000000000E+00 0. -1.
          2   -1    0    0  501    0 -0.00000000000E+00 -0.00000000000E+00 -0.34431405083E+02  0.34431405083E+02  0.00000000000E+00 0. -1.
          2    1    1    2  501    0 -0.13000986675E+02  0.29055478938E+02  0.15264755297E+04  0.15268073845E+04  0.00000000000E+00 0. -1.
          2    1    1    2  502    0  0.13000986675E+02 -0.29055478938E+02 -0.26872858514E+02  0.41658096879E+02  0.00000000000E+00 0. -1.
</event>
<event>
 4    1  0.9360795E+003  0.2691028E+02  0.7546771E-02  0.1448511E+00
          2   -1    0    0  501    0  0.00000000000E+00  0.00000000000E+00  0.12238510854E+04  0.12238510854E+04  0.00000000000E+00 0. -1.
          2   -1    0    0  502    0 -0.00000000000E+00 -0.00000000000E+00 -0.36487342133E+02  0.36487342133E+02  0.00000000000E+00 0. -1.
          2    1    1    2  501    0  0.25910045597E+02 -0.72685996454E+01 -0.31356788438E+02  0.41320832334E+02  0.00000000000E+00 0. -1.
          2    1    1    2  502    0 -0.25910045597E+02  0.72685996454E+01  0.12187205317E+04  0.12190175952E+04  0.00000000000E+00 0. -1.
</event>
<event>
 4    1  0.9360795E+003  0.2017580E+02  0.7546771E-02  0.1531365E+00
          2   -1    0    0  502    0  0.00000000000E+00  0.00000000000E+00  0.33240285311E+01  0.33240285311E+01  0.00000000000E+00 0. -1.
          2   -1    0    0  501    0 -0.00000000000E+00 -0.00000000000E+00 -0.65082170646E+03  0.65082170646E+03  0.00000000000E+00 0.  1.
          2    1    1    2  501    0 -0.16855317094E+02  0.11088793560E+02 -0.29049705406E+02  0.35368749499E+02  0.00000000000E+00 0. -1.
          2    1    1    2  502    0  0.16855317094E+02 -0.11088793560E+02 -0.61844797253E+03  0.61877698550E+03  0.00000000000E+00 0.  1.
</event>
<event>
 4    1  0.9360795E+003  0.2169029E+02  0.7546771E-02  0.1509633E+00
          2   -1    0    0  502    0  0.00000000000E+00  0.00000000000E+00  0.35070658152E+03  0.35070658152E+03  0.00000000000E+00 0. -1.
          2   -1    0    0  501    0 -0.00000000000E+00 -0.00000000000E+00 -0.42399144571E+02  0.42399144571E+02  0.00000000000E+00 0.  1.
          2    1    1    2  501    0 -0.21488960492E+02 -0.29484172550E+01  0.34757217224E+03  0.34824830725E+03  0.00000000000E+00 0. -1.
          2    1    1    2  502    0  0.21488960492E+02  0.29484172550E+01 -0.39264735292E+02  0.44857418839E+02  0.00000000000E+00 0.  1.
</event>
<event>
 4    1  0.9360795E+003  0.2695116E+02  0.7546771E-02  0.1448099E+00
          2   -1    0    0  501    0  0.00000000000E+00  0.00000000000E+00  0.84628696947E+03  0.84628696947E+03  0.00000000000E+00 0.  1.
          2   -1    0    0  502    0 -0.00000000000E+00 -0.00000000000E+00 -0.47606991677E+01  0.47606991677E+01  0.00000000000E+00 0. -1.
          2    1    1    2  501    0  0.20799780691E+02  0.17138676325E+02  0.35502564277E+02  0.44573503039E+02  0.00000000000E+00 0. -1.
          2    1    1    2  502    0 -0.20799780691E+02 -0.17138676325E+02  0.80602370602E+03  0.80647416560E+03  0.00000000000E+00 0.  1.
</event>
<event>
 4    1  0.9360795E+003  0.2263977E+02  0.7546771E-02  0.1497072E+00
          2   -1    0    0  502    0  0.00000000000E+00  0.00000000000E+00  0.66192768447E+02  0.66192768447E+02  0.00000000000E+00 0.  1.
          2   -1    0    0  501    0 -0.00000000000E+00 -0.00000000000E+00 -0.13369170374E+03  0.13369170374E+03  0.00000000000E+00 0.  1.
          2    1    1    2  501    0 -0.11983801442E+01  0.22608026894E+02  0.63255269844E+02  0.67184731584E+02  0.00000000000E+00 0.  1.
          2    1    1    2  502    0  0.11983801442E+01 -0.22608026894E+02 -0.13075420514E+03  0.13269974060E+03  0.00000000000E+00 0.  1.
</event>
<event>
 4    1  0.9360795E+003  0.3063007E+02  0.7546771E-02  0.1414199E+00
          2   -1    0    0  501    0  0.00000000000E+00  0.00000000000E+00  0.61734767035E+00  0.61734767035E+00  0.00000000000E+00 0.  1.
          2   -1    0    0  502    0 -0.00000000000E+00 -0.00000000000E+00 -0.19647175299E+04  0.19647175299E+04  0.00000000000E+00 0.  1.
          2    1    1    2  501    0 -0.16362508940E+02  0.25893428291E+02 -0.14497106882E+04  0.14500342344E+04  0.00000000000E+00 0.  1.
          2    1    1    2  502    0  0.16362508940E+02 -0.25893428291E+02 -0.51438949402E+03  0.51530064320E+03  0.00000000000E+00 0.  1.
</event>
<event>
 4    1  0.9360795E+003  0.2294876E+02  0.7546771E-02  0.1493143E+00
          2   -1    0    0  502    0  0.00000000000E+00  0.00000000000E+00  0.21979891974E+01  0.21979891974E+01  0.00000000000E+00 0. -1.
          2   -1    0    0  501    0 -0.00000000000E+00 -0.00000000000E+00 -0.11661875089E+04  0.11661875089E+04  0.00000000000E+00 0.  1.
          2    1    1    2  501    0  0.63260869264E+01 -0.22059609382E+02 -0.61262615259E+02  0.65419827042E+02  0.00000000000E+00 0. -1.
          2    1    1    2  502    0 -0.63260869264E+01  0.22059609382E+02 -0.11027269044E+04  0.11029656710E+04  0.00000000000E+00 0.  1.
</event>
<event>
 4    1  0.9360795E+003  0.2609776E+02  0.7546771E-02  0.1456888E+00
          2   -1    0    0  501    0  0.00000000000E+00  0.00000000000E+00  0.63805130149E+01  0.63805130149E+01  0.00000000000E+00 0.  1.
          2   -1    0    0  502    0 -0.00000000000E+00 -0.00000000000E+00 -0.10236142134E+04  0.10236142134E+04  0.00000000000E+00 0.  1.
          2    1    1    2  501    0  0.19144757552E+02  0.17736154886E+02 -0.99602227504E+03  0.99636412286E+03  0.00000000000E+00 0.  1.
          2    1    1    2  502    0 -0.19144757552E+02 -0.17736154886E+02 -0.21211425388E+02  0.33630603605E+02  0.00000000000E+00 0.  1.
</event>
<event>
 4    1  0.9360795E+003  0.2289750E+02  0.7546771E-02  0.1493789E+00
          2   -1    0    0  501    0  0.00000000000E+00  0.00000000000E+00  0.14400214580E+01  0.14400214580E+01  0.00000000000E+00 0.  1.
          2   -1    0    0  502    0 -0.00000000000E+00 -0.00000000000E+00 -0.54302387927E+03  0.54302387927E+03  0.00000000000E+00 0. -1.
          2    1    1    2  501    0  0.94333856025E+01  0.20864010908E+02 -0.42706255422E+03  0.42767595318E+03  0.00000000000E+00 0. -1.
          2    1    1    2  502    0 -0.94333856025E+01 -0.20864010908E+02 -0.11452130359E+03  0.11678794755E+03  0.00000000000E+00 0.  1.
</event>
<event>
 4    1  0.9360795E+003  0.2341046E+02  0.7546771E-02  0.1487407E+00
          2   -1    0    0  502    0  0.00000000000E+00  0.00000000000E+00  0.39410096128E+02  0.39410096128E+02  0.00000000000E+00 0.  1.
          2   -1    0    0  501    0 -0.00000000000E+00 -0.00000000000E+00 -0.76690550090E+02  0.76690550090E+02  0.00000000000E+00 0. -1.
          2    1    1    2  501    0 -0.49969354386E+01 -0.22870951728E+02  0.33883915078E+02  0.41184578397E+02  0.00000000000E+00 0.  1.
          2    1    1    2  502    0  0.49969354386E+01  0.22870951728E+02 -0.71164369041E+02  0.74916067820E+02  0.00000000000E+00 0. -1.
</event>
<event>
 4    1  0.9360795E+003  0.2666420E+02  0.7546771E-02  0.1451011E+00
          2   -1    0    0  501    0  0.00000000000E+00  0.00000000000E+00  0.37646484243E+03  0.37646484243E+03  0.00000000000E+00 0.  1.
          2   -1    0    0  502    0 -0.00000000000E+00 -0.00000000000E+00 -0.49083409813E+01  0.49083409813E+01  0.00000000000E+00 0.  1.
          2    1    1    2  501    0 -0.18519459160E+02 -0.19183568573E+02  0.36209832819E+02  0.44968118301E+02  0.00000000000E+00 0.  1.
          2    1    1    2  502    0  0.18519459160E+02  0.19183568573E+02  0.33534666863E+03  0.33640506511E+03  0.00000000000E+00 0.  1.
</event>
<event>
 4    1  0.9360795E+003  0.2818484E+02  0.7546771E-02  0.1436056E+00
          2   -1    0    0  502    0  0.00000000000E+00  0.00000000000E+00  0.77711637140E+03  0.77711637140E+03  0.00000000000E+00 0.  1.
          2   -1    0    0  501    0 -0.00000000000E+00 -0.00000000000E+00 -0.21823524811E+02  0.21823524811E+02  0.00000000000E+00 0.  1.
          2    1    1    2  501    0 -0.27710493563E+02 -0.51491566812E+01  0.76764851418E+03  0.76816575463E+03  0.00000000000E+00 0.  1.
          2    1    1    2  502    0  0.27710493563E+02  0.51491566812E+01 -0.12355667594E+02  0.30774141576E+02  0.00000000000E+00 0.  1.
</event>
<event>
 4    1  0.9360795E+003  0.2265531E+02  0.7546771E-02  0.1496872E+00
          2   -1    0    0  502    0  0.00000000000E+00  0.00000000000E+00  0.59231409601E+03  0.59231409601E+03  0.00000000000E+00 0.  1.
          2   -1    0    0  501    0 -0.00000000000E+00 -0.00000000000E+00 -0.97447312980E+01  0.97447312980E+01  0.00000000000E+00 0.  1.
          2    1    1    2  501    0  0.19634912132E+02 -0.11301924367E+02  0.57861818833E+03  0.57906154348E+03  0.00000000000E+00 0.  1.
          2    1    1    2  502    0 -0.19634912132E+02  0.11301924367E+02  0.39511763834E+01  0.22997283832E+02  0.00000000000E+00 0.  1.
</event>
<event>
 4    1  0.9360795E+003  0.2157424E+02  0.7546771E-02  0.1511222E+00
          2   -1    0    0  501    0  0.00000000000E+00  0.00000000000E+00  0.11577154468E+01  0.11577154468E+01  0.00000000000E+00 0. -1.
          2   -1    0    0  502    0 -0.00000000000E+00 -0.00000000000E+00 -0.61144824452E+03  0.61144824452E+03  0.00000000000E+00 0. -1.
          2    1    1    2  501    0 -0.21109001283E+02 -0.44562279801E+01 -0.48439902388E+03  0.48487922438E+03  0.00000000000E+00 0. -1.
          2    1    1    2  502    0  0.21109001283E+02  0.44562279801E+01 -0.12589150520E+03  0.12772673559E+03  0.00000000000E+00 0. -1.
</event>
<event>
 4    1  0.9360795E+003  0.8877617E+02  0.7546771E-02  0.1184821E+00
          2   -1    0    0  501    0  0.00000000000E+00  0.00000000000E+00  0.55677894473E+02  0.55677894473E+02  0.00000000000E+00 0. -1.
          2   -1    0    0  502    0 -0.00000000000E+00 -0.00000000000E+00 -0.25760317439E+04  0.25760317439E+04  0.00000000000E+00 0.  1.
          2    1    1    2  501    0  0.36932877138E+02  0.80729000205E+02 -0.25393686062E+04  0.25409199371E+04  0.00000000000E+00 0.  1.
          2    1    1    2  502    0 -0.36932877138E+02 -0.80729000205E+02  0.19014756700E+02  0.90789701289E+02  0.00000000000E+00 0. -1.
</event>
<event>
 4    1  0.9360795E+003  0.2654414E+02  0.7546771E-02  0.1452242E+00
          2   -1    0    0  501    0  0.00000000000E+00  0.00000000000E+00  0.33535059831E+03  0.33535059831E+03  0.00000000000E+00 0.  1.
          2   -1    0    0  502    0 -0.00000000000E+00 -0.00000000000E+00 -0.33642986090E+01  0.33642986090E+01  0.00000000000E+00 0. -1.
          2    1    1    2  501    0  0.26536135753E+02 -0.65169553711E+00  0.62216416485E+02  0.67642247804E+02  0.00000000000E+00 0. -1.
          2    1    1    2  502    0 -0.26536135753E+02  0.65169553711E+00  0.26976988322E+03  0.27107264912E+03  0.00000000000E+00 0.  1.
</event>
<event>
 4    1  0.9360795E+003  0.3201590E+02  0.7546771E-02  0.1402851E+00
          2   -1    0    0  501    0  0.00000000000E+00  0.00000000000E+00  0.12915488197E+03  0.12915488197E+03  0.00000000000E+00 0.  1.
          2   -1    0    0  502    0 -0.00000000000E+00 -0.00000000000E+00 -0.99243609226E+02  0.99243609226E+02  0.00000000000E+00 0.  1.
          2    1    1    2  501    0  0.23528622288E+02  0.21712254996E+02 -0.94582315979E+02  0.99854056401E+02  0.00000000000E+00 0.  1.
          2    1    1    2  502    0 -0.23528622288E+02 -0.21712254996E+02  0.12449358873E+03  0.12854443480E+03  0.00000000000E+00 0.  1.
</event>
<event>
 4    1  0.9360795E+003  0.2047520E+02  0.7546771E-02  0.1526891E+00
          2   -1    0    0  501    0  0.00000000000E+00  0.00000000000E+00  0.10507067227E+03  0.10507067227E+03  0.00000000000E+00 0. -1.
          2   -1    0    0  502    0 -0.00000000000E+00 -0.00000000000E+00 -0.17026192695E+02  0.17026192695E+02  0.00000000000E+00 0. -1.
          2    1    1    2  501    0 -0.64544054718E+01 -0.19431276473E+02 -0.93961550537E+01  0.22528239726E+02  0.00000000000E+00 0. -1.
          2    1    1    2  502    0  0.64544054718E+01  0.19431276473E+02  0.97440634630E+02  0.99568625241E+02  0.00000000000E+00 0. -1.
</event>
<event>
 4    1  0.9360795E+003  0.2654135E+02  0.7546771E-02  0.1452271E+00
          2   -1    0    0  502    0  0.00000000000E+00  0.00000000000E+00  0.26665508721E+03  0.26665508721E+03  0.00000000000E+00 0. -1.
          2   -1    0    0  501    0 -0.00000000000E+00 -0.00000000000E+00 -0.18983649800E+02  0.18983649800E+02  0.00000000000E+00 0. -1.
          2    1    1    2  501    0 -0.26048129278E+02  0.50929658022E+01  0.25634556840E+03  0.25771591681E+03  0.00000000000E+00 0. -1.
          2    1    1    2  502    0  0.26048129278E+02 -0.50929658022E+01 -0.86741309886E+01  0.27922820200E+02  0.00000000000E+00 0. -1.
</event>
<event>
 4    1  0.9360795E+003  0.4877669E+02  0.7546771E-02  0.1303565E+00
          2   -1    0    0  501    0  0.00000000000E+00  0.00000000000E+00  0.10126121365E+04  0.10126121365E+04  0.00000000000E+00 0. -1.
          2   -1    0    0  502    0 -0.00000000000E+00 -0.00000000000E+00 -0.73078456354E+01  0.73078456354E+01  0.00000000000E+00 0. -1.
          2    1    1    2  501    0 -0.25613099077E+02  0.41510656662E+02  0.82594993909E+02  0.95922356517E+02  0.00000000000E+00 0. -1.
          2    1    1    2  502    0  0.25613099077E+02 -0.41510656662E+02  0.92270929700E+03  0.92399762567E+03  0.00000000000E+00 0. -1.
</event>
<event>
 4    1  0.9360795E+003  0.7418899E+02  0.7546771E-02  0.1218021E+00
          2   -1    0    0  501    0  0.00000000000E+00  0.00000000000E+00  0.97817807704E+03  0.97817807704E+03  0.00000000000E+00 0.  1.
          2   -1    0    0  502    0 -0.00000000000E+00 -0.00000000000E+00 -0.23759380028E+02  0.23759380028E+02  0.00000000000E+00 0.  1.
          2    1    1    2  501    0  0.24622025044E+02  0.69984008289E+02  0.39563361351E+02  0.84078921823E+02  0.00000000000E+00 0.  1.
          2    1    1    2  502    0 -0.24622025044E+02 -0.69984008289E+02  0.91485533566E+03  0.91785853524E+03  0.00000000000E+00 0.  1.
</event>
<event>
 4    1  0.9360795E+003  0.2348240E+02  0.7546771E-02  0.1486528E+00
          2   -1    0    0  501    0  0.00000000000E+00  0.00000000000E+00  0.62051016123E+03  0.62051016123E+03  0.00000000000E+00 0. -1.
          2   -1    0    0  502    0 -0.00000000000E+00 -0.00000000000E+00 -0.12289445981E+01  0.12289445981E+01  0.00000000000E+00 0. -1.
          2    1    1    2  501    0  0.22591124312E+02  0.64081378955E+01  0.14605970685E+03  0.14793532741E+03  0.00000000000E+00 0. -1.
          2    1    1    2  502    0 -0.22591124312E+02 -0.64081378955E+01  0.47322150978E+03  0.47380377843E+03  0.00000000000E+00 0. -1.
</event>
<event>
 4    1  0.9360795E+003  0.2189045E+02  0.7546771E-02  0.1506921E+00
          2   -1    0    0  501    0  0.00000000000E+00  0.00000000000E+00  0.16800102605E+02  0.16800102605E+02  0.00000000000E+00 0. -1.
          2   -1    0    0  502    0 -0.00000000000E+00 -0.00000000000E+00 -0.42830763926E+02  0.42830763926E+02  0.00000000000E+00 0.  1.
          2    1    1    2  501    0 -0.16886403165E+02 -0.13929867972E+02 -0.30247772945E+02  0.37337911051E+02  0.00000000000E+00 0.  1.
          2    1    1    2  502    0  0.16886403165E+02  0.13929867972E+02  0.42171116244E+01  0.22292955480E+02  0.00000000000E+00 0. -1.
</event>
<event>
 4    1  0.9360795E+003  0.2615802E+02  0.7546771E-02  0.1456254E+00
          2   -1    0    0  502    0  0.00000000000E+00  0.00000000000E+00  0.15225010317E+03  0.15225010317E+03  0.00000000000E+00 0.  1.
          2   -1    0    0  501    0 -0.00000000000E+00 -0.00000000000E+00 -0.15377698667E+02  0.15377698667E+02  0.00000000000E+00 0. -1.
          2    1    1    2  501    0  0.25708816878E+02 -0.48268593152E+01  0.13894685270E+03  0.14138765757E+03  0.00000000000E+00 0.  1.
          2    1    1    2  502    0 -0.25708816878E+02  0.48268593152E+01 -0.20744481970E+01  0.26240144272E+02  0.00000000000E+00 0. -1.
</event>
<event>
 4    1  0.9360795E+003  0.2390929E+02  0.7546771E-02  0.1481385E+00
          2   -1    0    0  501    0  0.00000000000E+00  0.00000000000E+00  0.69755840960E+01  0.69755840960E+01  0.00000000000E+00 0.  1.
          2   -1    0    0  502    0 -0.00000000000E+00 -0.00000000000E+00 -0.85208689618E+02  0.85208689618E+02  0.00000000000E+00 0.  1.
          2    1    1    2  501    0  0.23908732025E+02  0.16305070489E+00 -0.48129342533E+02  0.53740931004E+02  0.00000000000E+00 0.  1.
          2    1    1    2  502    0 -0.23908732025E+02 -0.16305070489E+00 -0.30103762989E+02  0.38443342710E+02  0.00000000000E+00 0.  1.
</event>
<event>
 4    1  0.9360795E+003  0.2409420E+02  0.7546771E-02  0.1479197E+00
          2   -1    0    0  502    0  0.00000000000E+00  0.00000000000E+00  0.99628967303E+01  0.99628967303E+01  0.00000000000E+00 0. -1.
          2   -1    0    0  501    0 -0.00000000000E+00 -0.00000000000E+00 -0.36548877056E+03  0.36548877056E+03  0.00000000000E+00 0. -1.
          2    1    1    2  501    0 -0.15891735503E+02  0.18110309655E+02 -0.56508294813E+01  0.24747978643E+02  0.00000000000E+00 0. -1.
          2    1    1    2  502    0  0.15891735503E+02 -0.18110309655E+02 -0.34987504434E+03  0.35070368864E+03  0.00000000000E+00 0. -1.
</event>
<event>
 4    1  0.9360795E+003  0.2044569E+02  0.7546771E-02  0.1527328E+00
          2   -1    0    0  501    0  0.00000000000E+00  0.00000000000E+00  0.16117162849E+03  0.16117162849E+03  0.00000000000E+00 0.  1.
          2   -1    0    0  502    0 -0.00000000000E+00 -0.00000000000E+00 -0.61544328103E+02  0.61544328103E+02  0.00000000000E+00 0.  1.
          2    1    1    2  501    0  0.18543619439E+02 -0.86116426260E+01 -0.59172583544E+02  0.62605278163E+02  0.00000000000E+00 0.  1.
          2    1    1    2  502    0 -0.18543619439E+02  0.86116426260E+01  0.15879988393E+03  0.16011067843E+03  0.00000000000E+00 0.  1.
</event>
<event>
 4    1  0.9360795E+003  0.3912602E+02  0.7546771E-02  0.1353685E+00
          2   -1    0    0  502    0  0.00000000000E+00  0.00000000000E+00  0.12909935902E+03  0.12909935902E+03  0.00000000000E+00 0.  1.
          2   -1    0    0  501    0 -0.00000000000E+00 -0.00000000000E+00 -0.13548989694E+02  0.13548989694E+02  0.00000000000E+00 0. -1.
          2    1    1    2  501    0  0.48902747559E+01  0.38819205211E+02  0.82973320765E+02  0.91735584367E+02  0.00000000000E+00 0.  1.
          2    1    1    2  502    0 -0.48902747559E+01 -0.38819205211E+02  0.32577048558E+02  0.50912764343E+02  0.00000000000E+00 0. -1.
</event>
<event>
 4    1  0.1199825E+004  0.2081040E+02  0.7546771E-02  0.1521989E+00
          2   -1    0    0  501    0  0.00000000000E+00  0.00000000000E+00  0.47064762444E+03  0.47064762444E+03  0.00000000000E+00 0. -1.
          2   -1    0    0  502    0 -0.00000000000E+00 -0.00000000000E+00 -0.11932958512E+04  0.11932958512E+04  0.00000000000E+00 0. -1.
          2    1    1    2  501    0 -0.13327208234E+02  0.15983062356E+02 -0.11929750181E+04  0.11931565139E+04  0.00000000000E+00 0. -1.
          2    1    1    2  502    0  0.13327208234E+02 -0.15983062356E+02  0.47032679132E+03  0.47078696180E+03  0.00000000000E+00 0. -1.
</event>
<event>
 4    1  0.9360795E+003  0.3406667E+02  0.7546771E-02  0.1387246E+00
          2   -1    0    0  501    0  0.00000000000E+00  0.00000000000E+00  0.42400505917E+02  0.42400505917E+02  0.00000000000E+00 0. -1.
          2   -1    0    0  502    0 -0.00000000000E+00 -0.00000000000E+00 -0.30103235421E+03  0.30103235421E+03  0.00000000000E+00 0.  1.
          2    1    1    2  501    0  0.33461645409E+02 -0.63918794316E+01 -0.29303983852E+03  0.29501336376E+03  0.00000000000E+00 0.  1.
          2    1    1    2  502    0 -0.33461645409E+02  0.63918794316E+01  0.34407990233E+02  0.48419496362E+02  0.00000000000E+00 0. -1.
</event>
<event>
 4    1  0.9360795E+003  0.1285333E+03  0.7546771E-02  0.1121904E+00
          2   -1    0    0  502    0  0.00000000000E+00  0.00000000000E+00  0.19727928081E+03  0.19727928081E+03  0.00000000000E+00 0. -1.
          2   -1    0    0  501    0 -0.00000000000E+00 -0.00000000000E+00 -0.48182121108E+03  0.48182121108E+03  0.00000000000E+00 0.  1.
          2    1    1    2  501    0 -0.11467915410E+03  0.58047388824E+02  0.16636402458E+03  0.21023271964E+03  0.00000000000E+00 0. -1.
          2    1    1    2  502    0  0.11467915410E+03 -0.58047388824E+02 -0.45090595485E+03  0.46886777225E+03  0.00000000000E+00 0.  1.
</event>
<event>
 4    1  0.9360795E+003  0.2010463E+02  0.7546771E-02  0.1532442E+00
          2   -1    0    0  501    0  0.00000000000E+00  0.00000000000E+00  0.22435137729E+04  0.22435137729E+04  0.00000000000E+00 0. -1.
          2   -1    0    0  502    0 -0.00000000000E+00 -0.00000000000E+00 -0.18048464634E+00  0.18048464634E+00  0.00000000000E+00 0. -1.
          2    1    1    2  501    0  0.72624331693E+01 -0.18747089187E+02  0.10742458471E+04  0.10744339609E+04  0.00000000000E+00 0. -1.
          2    1    1    2  502    0 -0.72624331693E+01  0.18747089187E+02  0.11690874412E+04  0.11692602967E+04  0.00000000000E+00 0. -1.
</event>
<event>
 4    1  0.9360795E+003  0.2120001E+02  0.7546771E-02  0.1516428E+00
          2   -1    0    0  501    0  0.00000000000E+00  0.00000000000E+00  0.13905052478E+04  0.13905052478E+04  0.00000000000E+00 0.  1.
          2   -1    0    0  502    0 -0.00000000000E+00 -0.00000000000E+00 -0.16501694728E+01  0.16501694728E+01  0.00000000000E+00 0. -1.
          2    1    1    2  501    0  0.11498900210E+02 -0.17810550694E+02  0.70232245304E+02  0.73362174876E+02  0.00000000000E+00 0. -1.
          2    1    1    2  502    0 -0.11498900210E+02  0.17810550694E+02  0.13186228331E+04  0.13187932424E+04  0.00000000000E+00 0.  1.
</event>
<event>
 4    1  0.9360795E+003  0.2370483E+02  0.7546771E-02  0.1483832E+00
          2   -1    0    0  502    0  0.00000000000E+00  0.00000000000E+00  0.28039938479E+03  0.28039938479E+03  0.00000000000E+00 0.  1.
          2   -1    0    0  501    0 -0.00000000000E+00 -0.00000000000E+00 -0.25261158180E+02  0.25261158180E+02  0.00000000000E+00 0.  1.
          2    1    1    2  501    0 -0.25980317942E+01 -0.23562030813E+02  0.27421204082E+03  0.27523474053E+03  0.00000000000E+00 0.  1.
          2    1    1    2  502    0  0.25980317942E+01  0.23562030813E+02 -0.19073814212E+02  0.30425802435E+02  0.00000000000E+00 0.  1.
</event>
<event>
 4    1  0.9360795E+003  0.2249808E+02  0.7546771E-02  0.1498899E+00
          2   -1    0    0  502    0  0.00000000000E+00  0.00000000000E+00  0.35353532661E+03  0.35353532661E+03  0.00000000000E+00 0.  1.
          2   -1    0    0  501    0 -0.00000000000E+00 -0.00000000000E+00 -0.22682351374E+01  0.22682351374E+01  0.00000000000E+00 0. -1.
          2    1    1    2  501    0 -0.19699347014E+02  0.10867348525E+02  0.28367071728E+03  0.28456148611E+03  0.00000000000E+00 0.  1.
          2    1    1    2  502    0  0.19699347014E+02 -0.10867348525E+02  0.67596374193E+02  0.71242075635E+02  0.00000000000E+00 0. -1.
</event>
<event>
 4    1  0.9360795E+003  0.8536998E+02  0.7546771E-02  0.1191901E+00
          2   -1    0    0  501    0  0.00000000000E+00  0.00000000000E+00  0.51539157466E+03  0.51539157466E+03  0.00000000000E+00 0. -1.
          2   -1    0    0  502    0 -0.00000000000E+00 -0.00000000000E+00 -0.48652549635E+02  0.48652549635E+02  0.00000000000E+00 0. -1.
          2    1    1    2  501    0 -0.81916502582E+02  0.24035791268E+02 -0.41580280426E+01  0.85471175576E+02  0.00000000000E+00 0. -1.
          2    1    1    2  502    0  0.81916502582E+02 -0.24035791268E+02  0.47089705307E+03  0.47857294872E+03  0.00000000000E+00 0. -1.
</event>
<event>
 4    1  0.9360795E+003  0.2176978E+02  0.7546771E-02  0.1508552E+00
          2   -1    0    0  502    0  0.00000000000E+00  0.00000000000E+00  0.85250038596E+02  0.85250038596E+02  0.00000000000E+00 0. -1.
          2   -1    0    0  501    0 -0.00000000000E+00 -0.00000000000E+00 -0.40071257843E+03  0.40071257843E+03  0.00000000000E+00 0. -1.
          2    1    1    2  501    0  0.11873687594E+02 -0.18246611442E+02  0.83558672839E+02  0.86347988354E+02  0.00000000000E+00 0. -1.
          2    1    1    2  502    0 -0.11873687594E+02  0.18246611442E+02 -0.39902121267E+03  0.39961462867E+03  0.00000000000E+00 0. -1.
</event>
<event>
 4    1  0.9360795E+003  0.2164031E+02  0.7546771E-02  0.1510316E+00
          2   -1    0    0  502    0  0.00000000000E+00  0.00000000000E+00  0.34976597922E+03  0.34976597922E+03  0.00000000000E+00 0. -1.
          2   -1    0    0  501    0 -0.00000000000E+00 -0.00000000000E+00 -0.33677135035E+01  0.33677135035E+01  0.00000000000E+00 0.  1.
          2    1    1    2  501    0 -0.68282579745E+01 -0.20534801667E+02  0.31024381575E+03  0.31099763407E+03  0.00000000000E+00 0. -1.
          2    1    1    2  502    0  0.68282579745E+01  0.20534801667E+02  0.36154449971E+02  0.42136058657E+02  0.00000000000E+00 0.  1.
</event>
<event>
 4    1  0.9360795E+003  0.2590005E+02  0.7546771E-02  0.1458982E+00
          2   -1    0    0  502    0  0.00000000000E+00  0.00000000000E+00  0.96784921415E+03  0.96784921415E+03  0.00000000000E+00 0. -1.
          2   -1    0    0  501    0 -0.00000000000E+00 -0.00000000000E+00 -0.71404093974E+01  0.71404093974E+01  0.00000000000E+00 0.  1.
          2    1    1    2  501    0 -0.15334716931E+02  0.20872444645E+02  0.94358563127E+03  0.94394102359E+03  0.00000000000E+00 0. -1.
          2    1    1    2  502    0  0.15334716931E+02 -0.20872444645E+02  0.17123173482E+02  0.31048599951E+02  0.00000000000E+00 0.  1.
</event>
<event>
 4    1  0.9360795E+003  0.2302462E+02  0.7546771E-02  0.1492189E+00
          2   -1    0    0  501    0  0.00000000000E+00  0.00000000000E+00  0.19308330968E+02  0.19308330968E+02  0.00000000000E+00 0.  1.
          2   -1    0    0  502    0 -0.00000000000E+00 -0.00000000000E+00 -0.63420598813E+02  0.63420598813E+02  0.00000000000E+00 0. -1.
          2    1    1    2  501    0 -0.22012375872E+02 -0.67519221550E+01 -0.53205464855E+02  0.57973740907E+02  0.00000000000E+00 0. -1.
          2    1    1    2  502    0  0.22012375872E+02  0.67519221550E+01  0.90931970100E+01  0.24755188874E+02  0.00000000000E+00 0.  1.
</event>
<event>
 4    1  0.9360795E+003  0.2481491E+02  0.7546771E-02  0.1470885E+00
          2   -1    0    0  502    0  0.00000000000E+00  0.00000000000E+00  0.13618954002E+04  0.13618954002E+04  0.00000000000E+00 0. -1.
          2   -1    0    0  501    0 -0.00000000000E+00 -0.00000000000E+00 -0.10572366464E+01  0.10572366464E+01  0.00000000000E+00 0.  1.
          2    1    1    2  501    0 -0.53464152535E+01  0.24232114846E+02  0.11959726929E+04  0.11962301040E+04  0.00000000000E+00 0. -1.
          2    1    1    2  502    0  0.53464152535E+01 -0.24232114846E+02  0.16486547068E+03  0.16672253287E+03  0.00000000000E+00 0.  1.
</event>
<event>
 4    1  0.9360795E+003  0.2055526E+02  0.7546771E-02  0.1525710E+00
          2   -1    0    0  502    0  0.00000000000E+00  0.00000000000E+00  0.15095304198E+04  0.15095304198E+04  0.00000000000E+00 0.  1.
          2   -1    0    0  501    0 -0.00000000000E+00 -0.00000000000E+00 -0.18667962324E+01  0.18667962324E+01  0.00000000000E+00 0.  1.
          2    1    1    2  501    0 -0.18902436434E+02 -0.80756738082E+01  0.14505775711E+04  0.14507232018E+04  0.00000000000E+00 0.  1.
          2    1    1    2  502    0  0.18902436434E+02  0.80756738082E+01  0.57086052478E+02  0.60674014191E+02  0.00000000000E+00 0.  1.
</event>
<event>
 4    1  0.9360795E+003  0.2162839E+02  0.7546771E-02  0.1510479E+00
          2   -1    0    0  502    0  0.00000000000E+00  0.00000000000E+00  0.48121690127E+01  0.48121690127E+01  0.00000000000E+00 0. -1.
          2   -1    0    0  501    0 -0.00000000000E+00 -0.00000000000E+00 -0.17535141080E+03  0.17535141080E+03  0.00000000000E+00 0. -1.
          2    1    1    2  501    0 -0.20071150119E+02 -0.80582861745E+01 -0.25134906227E+02  0.33159471561E+02  0.00000000000E+00 0. -1.
          2    1    1    2  502    0  0.20071150119E+02  0.80582861745E+01 -0.14540433556E+03  0.14700410825E+03  0.00000000000E+00 0. -1.
</event>
<event>
 4    1  0.9360795E+003  0.4729666E+02  0.7546771E-02  0.1310339E+00
          2   -1    0    0  502    0  0.00000000000E+00  0.00000000000E+00  0.26218184986E+04  0.26218184986E+04  0.00000000000E+00 0. -1.
          2   -1    0    0  501    0 -0.00000000000E+00 -0.00000000000E+00 -0.11749739099E+02  0.11749739099E+02  0.00000000000E+00 0.  1.
          2    1    1    2  501    0  0.27054931051E+02 -0.38794396520E+02  0.25731079857E+04  0.25735426324E+04  0.00000000000E+00 0. -1.
          2    1    1    2  502    0 -0.27054931051E+02  0.38794396520E+02  0.36960773780E+02  0.60025605320E+02  0.00000000000E+00 0.  1.
</event>
<event>
 4    1  0.9360795E+003  0.3339584E+02  0.7546771E-02  0.1392206E+00
          2   -1    0    0  502    0  0.00000000000E+00  0.00000000000E+00  0.14399095850E+04  0.14399095850E+04  0.00000000000E+00 0. -1.
          2   -1    0    0  501    0 -0.00000000000E+00 -0.00000000000E+00 -0.70658841941E+02  0.70658841941E+02  0.00000000000E+00 0.  1.
          2    1    1    2  501    0 -0.33083348414E+02 -0.45578403488E+01  0.14357585308E+04  0.14361468730E+04  0.00000000000E+00 0. -1.
          2    1    1    2  502    0  0.33083348414E+02  0.45578403488E+01 -0.66507787815E+02  0.74421553941E+02  0.00000000000E+00 0.  1.
</event>
<event>
 4    1  0.9360795E+003  0.2168911E+02  0.7546771E-02  0.1509649E+00
          2   -1    0    0  502    0  0.00000000000E+00  0.00000000000E+00  0.19935968120E+03  0.19935968120E+03  0.00000000000E+00 0.  1.
          2   -1    0    0  501    0 -0.00000000000E+00 -0.00000000000E+00 -0.27566960262E+02  0.27566960262E+02  0.00000000000E+00 0.  1.
          2    1    1    2  501    0 -0.14861408239E+02  0.15797338402E+02  0.19439502120E+03  0.19560123113E+03  0.00000000000E+00 0.  1.
          2    1    1    2  502    0  0.14861408239E+02 -0.15797338402E+02 -0.22602300257E+02  0.31325410330E+02  0.00000000000E+00 0.  1.
</event>
<event>
 4    1  0.9360795E+003  0.3391295E+02  0.7546771E-02  0.1388371E+00
          2   -1    0    0  501    0  0.00000000000E+00  0.00000000000E+00  0.32720161111E+03  0.32720161111E+03  0.00000000000E+00 0.  1.
          2   -1    0    0  502    0 -0.00000000000E+00 -0.00000000000E+00 -0.94516625471E+01  0.94516625471E+01  0.00000000000E+00 0. -1.
          2    1    1    2  501    0 -0.99891911698E+01  0.32408401202E+02  0.25469777651E+02  0.42412238590E+02  0.00000000000E+00 0. -1.
          2    1    1    2  502    0  0.99891911698E+01 -0.32408401202E+02  0.29228017091E+03  0.29424103506E+03  0.00000000000E+00 0.  1.
</event>
<event>
 4    1  0.9360795E+003  0.3140151E+02  0.7546771E-02  0.1407796E+00
          2   -1    0    0  501    0  0.00000000000E+00  0.00000000000E+00  0.36824198924E+03  0.36824198924E+03  0.00000000000E+00 0. -1.
          2   -1    0    0  502    0 -0.00000000000E+00 -0.00000000000E+00 -0.96887784247E+03  0.96887784247E+03  0.00000000000E+00 0. -1.
          2    1    1    2  501    0  0.31128262855E+02  0.41334960271E+01 -0.96795333735E+03  0.96846255365E+03  0.00000000000E+00 0. -1.
          2    1    1    2  502    0 -0.31128262855E+02 -0.41334960271E+01  0.36731748411E+03  0.36865727807E+03  0.00000000000E+00 0. -1.
</event>
<event>
 4    1  0.9360795E+003  0.3332559E+02  0.7546771E-02  0.1392733E+00
          2   -1    0    0  501    0  0.00000000000E+00  0.00000000000E+00  0.23921650429E+01  0.23921650429E+01  0.00000000000E+00 0.  1.
          2   -1    0    0  502    0 -0.00000000000E+00 -0.00000000000E+00 -0.24272128738E+04  0.24272128738E+04  0.00000000000E+00 0.  1.
          2    1    1    2  501    0  0.27610862046E+02  0.18661070212E+02 -0.23048722167E+04  0.23051131275E+04  0.00000000000E+00 0.  1.
          2    1    1    2  502    0 -0.27610862046E+02 -0.18661070212E+02 -0.11994849213E+03  0.12449191142E+03  0.00000000000E+00 0.  1.
</event>
<event>
 4    1  0.9360795E+003  0.2442992E+02  0.7546771E-02  0.1475283E+00
          2   -1    0    0  502    0  0.00000000000E+00  0.00000000000E+00  0.39926653108E+02  0.39926653108E+02  0.00000000000E+00 0.  1.
          2   -1    0    0  501    0 -0.00000000000E+00 -0.00000000000E+00 -0.19613192372E+03  0.19613192372E+03  0.00000000000E+00 0. -1.
          2    1    1    2  501    0  0.19991609116E+02  0.14041244659E+02  0.35339803326E+02  0.42961874793E+02  0.00000000000E+00 0.  1.
          2    1    1    2  502    0 -0.19991609116E+02 -0.14041244659E+02 -0.19154507394E+03  0.19309670203E+03  0.00000000000E+00 0. -1.
</event>
<event>
 4    1  0.9360795E+003  0.3826707E+02  0.7546771E-02  0.1358951E+00
          2   -1    0    0  502    0  0.00000000000E+00  0.00000000000E+00  0.40344550609E+03  0.40344550609E+03  0.00000000000E+00 0. -1.
          2   -1    0    0  501    0 -0.00000000000E+00 -0.00000000000E+00 -0.19739638661E+03  0.19739638661E+03  0.00000000000E+00 0. -1.
          2    1    1    2  501    0 -0.32705037499E+02 -0.19868295930E+02  0.40067067289E+03  0.40249392141E+03  0.00000000000E+00 0. -1.
          2    1    1    2  502    0  0.32705037499E+02  0.19868295930E+02 -0.19462155342E+03  0.19834797129E+03  0.00000000000E+00 0. -1.
</event>
<event>
 4    1  0.9360795E+003  0.2025439E+02  0.7546771E-02  0.1530182E+00
          2   -1    0    0  502    0  0.00000000000E+00  0.00000000000E+00  0.10867559518E+02  0.10867559518E+02  0.00000000000E+00 0.  1.
          2   -1    0    0  501    0 -0.00000000000E+00 -0.00000000000E+00 -0.87046956623E+02  0.87046956623E+02  0.00000000000E+00 0.  1.
          2    1    1    2  501    0  0.21290545152E+01 -0.20142183865E+02 -0.12467509126E+01  0.20292728546E+02  0.00000000000E+00 0.  1.
          2    1    1    2  502    0 -0.21290545152E+01  0.20142183865E+02 -0.74932646193E+02  0.77621787595E+02  0.00000000000E+00 0.  1.
</event>
<event>
 4    1  0.9360795E+003  0.5421572E+02  0.7546771E-02  0.1280861E+00
          2   -1    0    0  501    0  0.00000000000E+00  0.00000000000E+00  0.71847083951E+01  0.71847083951E+01  0.00000000000E+00 0. -1.
          2   -1    0    0  502    0 -0.00000000000E+00 -0.00000000000E+00 -0.47949450927E+03  0.47949450927E+03  0.00000000000E+00 0. -1.
          2    1    1    2  501    0 -0.17578534519E+02  0.51286832064E+02 -0.32938499154E+03  0.33381704071E+03  0.00000000000E+00 0. -1.
          2    1    1    2  502    0  0.17578534519E+02 -0.51286832064E+02 -0.14292480934E+03  0.15286217696E+03  0.00000000000E+00 0. -1.
</event>
<event>
 4    1  0.9360795E+003  0.5464202E+02  0.7546771E-02  0.1279210E+00
          2   -1    0    0  501    0  0.00000000000E+00  0.00000000000E+00  0.72270000802E+03  0.72270000802E+03  0.00000000000E+00 0. -1.
          2   -1    0    0  502    0 -0.00000000000E+00 -0.00000000000E+00 -0.90812886903E+02  0.90812886903E+02  0.00000000000E+00 0. -1.
          2    1    1    2  501    0 -0.40293370235E+02 -0.36907927482E+02 -0.81452833956E+02  0.98083204247E+02  0.00000000000E+00 0. -1.
          2    1    1    2  502    0  0.40293370235E+02  0.36907927482E+02  0.71333995507E+03  0.71542969068E+03  0.00000000000E+00 0. -1.
</event>
<event>
 4    1  0.9360795E+003  0.2850331E+02  0.7546771E-02  0.1433065E+00
          2   -1    0    0  501    0  0.00000000000E+00  0.00000000000E+00  0.70296129098E+02  0.70296129098E+02  0.00000000000E+00 0.  1.
          2   -1    0    0  502    0 -0.00000000000E+00 -0.00000000000E+00 -0.51797999889E+02  0.51797999889E+02  0.00000000000E+00 0. -1.
          2    1    1    2  501    0 -0.13178109826E+02  0.25274020051E+02 -0.44558167561E+02  0.52894885996E+02  0.00000000000E+00 0. -1.
          2    1    1    2  502    0  0.13178109826E+02 -0.25274020051E+02  0.63056296771E+02  0.69199242991E+02  0.00000000000E+00 0.  1.
</event>
<event>
 4    1  0.9360795E+003  0.2627853E+02  0.7546771E-02  0.1454993E+00
          2   -1    0    0  501    0  0.00000000000E+00  0.00000000000E+00  0.96184406785E+02  0.96184406785E+02  0.00000000000E+00 0.  1.
          2   -1    0    0  502    0 -0.00000000000E+00 -0.00000000000E+00 -0.28107614254E+02  0.28107614254E+02  0.00000000000E+00 0. -1.
          2    1    1    2  501    0  0.30803327072E+00  0.26276725729E+02 -0.19586410993E+02  0.32774818003E+02  0.00000000000E+00 0. -1.
          2    1    1    2  502    0 -0.30803327072E+00 -0.26276725729E+02  0.87663203524E+02  0.91517203036E+02  0.00000000000E+00 0.  1.
</event>
<event>
 4    1  0.9360795E+003  0.3343300E+02  0.7546771E-02  0.1391927E+00
          2   -1    0    0  501    0  0.00000000000E+00  0.00000000000E+00  0.10649927332E+04  0.10649927332E+04  0.00000000000E+00 0.  1.
          2   -1    0    0  502    0 -0.00000000000E+00 -0.00000000000E+00 -0.13789368473E+01  0.13789368473E+01  0.00000000000E+00 0. -1.
          2    1    1    2  501    0  0.10471697173E+01 -0.33416592309E+02  0.27121659441E+03  0.27326947559E+03  0.00000000000E+00 0. -1.
          2    1    1    2  502    0 -0.10471697173E+01  0.33416592309E+02  0.79239720194E+03  0.79310219445E+03  0.00000000000E+00 0.  1.
</event>
<event>
 4    1  0.9360795E+003  0.2884176E+02  0.7546771E-02  0.1429936E+00
          2   -1    0    0  501    0  0.00000000000E+00  0.00000000000E+00  0.91540819302E+03  0.91540819302E+03  0.00000000000E+00 0.  1.
          2   -1    0    0  502    0 -0.00000000000E+00 -0.00000000000E+00 -0.55072090168E+02  0.55072090168E+02  0.00000000000E+00 0. -1.
          2    1    1    2  501    0 -0.21113371742E+02  0.19648736887E+02 -0.51052084144E+02  0.58635847593E+02  0.00000000000E+00 0. -1.
          2    1    1    2  502    0  0.21113371742E+02 -0.19648736887E+02  0.91138818700E+03  0.91184443560E+03  0.00000000000E+00 0.  1.
</event>
<event>
 4    1  0.9360795E+003  0.2061918E+02  0.7546771E-02  0.1524772E+00
          2   -1    0    0  502    0  0.00000000000E+00  0.00000000000E+00  0.88806656299E+03  0.88806656299E+03  0.00000000000E+00 0. -1.
          2   -1    0    0  501    0 -0.00000000000E+00 -0.00000000000E+00 -0.22596890062E+01  0.22596890062E+01  0.00000000000E+00 0.  1.
          2    1    1    2  501    0 -0.20612781619E+02 -0.51365753519E+00  0.83810705843E+03  0.83836065748E+03  0.00000000000E+00 0. -1.
          2    1    1    2  502    0  0.20612781619E+02  0.51365753519E+00  0.47699815546E+02  0.51965594515E+02  0.00000000000E+00 0.  1.
</event>
<event>
 4    1  0.9360795E+003  0.2593103E+02  0.7546771E-02  0.1458652E+00
          2   -1    0    0  502    0  0.00000000000E+00  0.00000000000E+00  0.23976231795E+01  0.23976231795E+01  0.00000000000E+00 0.  1.
          2   -1    0    0  501    0 -0.00000000000E+00 -0.00000000000E+00 -0.76601727244E+03  0.76601727244E+03  0.00000000000E+00 0. -1.
          2    1    1    2  501    0 -0.22283355878E+02  0.13261613101E+02 -0.75916298401E+02  0.80222831501E+02  0.00000000000E+00 0.  1.
          2    1    1    2  502    0  0.22283355878E+02 -0.13261613101E+02 -0.68770335086E+03  0.68819206412E+03  0.00000000000E+00 0. -1.
</event>
<event>
 4    1  0.9360795E+003  0.2574348E+02  0.7546771E-02  0.1460655E+00
          2   -1    0    0  501    0  0.00000000000E+00  0.00000000000E+00  0.94226443340E+01  0.94226443340E+01  0.00000000000E+00 0. -1.
          2   -1    0    0  502    0 -0.00000000000E+00 -0.00000000000E+00 -0.19771036079E+03  0.19771036079E+03  0.00000000000E+00 0.  1.
          2    1    1    2  501    0  0.23623584427E+02 -0.10230015193E+02 -0.17727236434E+03  0.17913184561E+03  0.00000000000E+00 0.  1.
          2    1    1    2  502    0 -0.23623584427E+02  0.10230015193E+02 -0.11015352115E+02  0.28001159516E+02  0.00000000000E+00 0. -1.
</event>
<event>
 4    1  0.9360795E+003  0.2065741E+02  0.7546771E-02  0.1524213E+00
          2   -1    0    0  501    0  0.00000000000E+00  0.00000000000E+00  0.28122015364E+01  0.28122015364E+01  0.00000000000E+00 0. -1.
          2   -1    0    0  502    0 -0.00000000000E+00 -0.00000000000E+00 -0.24855048920E+03  0.24855048920E+03  0.00000000000E+00 0. -1.
          2    1    1    2  501    0 -0.20232435417E+02  0.41686071511E+01 -0.20130606097E+03  0.20236318566E+03  0.00000000000E+00 0. -1.
          2    1    1    2  502    0  0.20232435417E+02 -0.41686071511E+01 -0.44432226694E+02  0.48999505074E+02  0.00000000000E+00 0. -1.
</event>
<event>
 4    1  0.9360795E+003  0.4410181E+02  0.7546771E-02  0.1325992E+00
          2   -1    0    0  502    0  0.00000000000E+00  0.00000000000E+00  0.95079210301E+02  0.95079210301E+02  0.00000000000E+00 0. -1.
          2   -1    0    0  501    0 -0.00000000000E+00 -0.00000000000E+00 -0.20469906706E+02  0.20469906706E+02  0.00000000000E+00 0.  1.
          2    1    1    2  501    0  0.60394129579E+01  0.43686321627E+02  0.35815306627E+02  0.56812898139E+02  0.00000000000E+00 0. -1.
          2    1    1    2  502    0 -0.60394129579E+01 -0.43686321627E+02  0.38793996968E+02  0.58736218868E+02  0.00000000000E+00 0.  1.
</event>
<event>
 4    1  0.9360795E+003  0.3509682E+02  0.7546771E-02  0.1379884E+00
          2   -1    0    0  502    0  0.00000000000E+00  0.00000000000E+00  0.40325509126E+02  0.40325509126E+02  0.00000000000E+00 0.  1.
          2   -1    0    0  501    0 -0.00000000000E+00 -0.00000000000E+00 -0.82289656878E+03  0.82289656878E+03  0.00000000000E+00 0. -1.
          2    1    1    2  501    0  0.29076811073E+02 -0.19655180309E+02  0.32239008260E+02  0.47656486534E+02  0.00000000000E+00 0.  1.
          2    1    1    2  502    0 -0.29076811073E+02  0.19655180309E+02 -0.81481006791E+03  0.81556559137E+03  0.00000000000E+00 0. -1.
</event>
<event>
 4    1  0.9360795E+003  0.3845869E+02  0.7546771E-02  0.1357762E+00
          2   -1    0    0  502    0  0.00000000000E+00  0.00000000000E+00  0.26164312812E+04  0.26164312812E+04  0.00000000000E+00 0. -1.
          2   -1    0    0  501    0 -0.00000000000E+00 -0.00000000000E+00 -0.60584029355E+01  0.60584029355E+01  0.00000000000E+00 0.  1.
          2    1    1    2  501    0 -0.33098774626E+02  0.19584226784E+02  0.25537583228E+04  0.25540478935E+04  0.00000000000E+00 0. -1.
          2    1    1    2  502    0  0.33098774626E+02 -0.19584226784E+02  0.56614555471E+02  0.68441790682E+02  0.00000000000E+00 0.  1.
</event>
<event>
 4    1  0.9360795E+003  0.2193755E+02  0.7546771E-02  0.1506288E+00
          2   -1    0    0  502    0  0.00000000000E+00  0.00000000000E+00  0.92571411139E+03  0.92571411139E+03  0.00000000000E+00 0.  1.
          2   -1    0    0  501    0 -0.00000000000E+00 -0.00000000000E+00 -0.41531170347E+01  0.41531170347E+01  0.00000000000E+00 0. -1.
          2    1    1    2  501    0 -0.17106871275E+01  0.21870743850E+02  0.89564204724E+03  0.89591067226E+03  0.00000000000E+00 0.  1.
          2    1    1    2  502    0  0.17106871275E+01 -0.21870743850E+02  0.25918947121E+02  0.33956556169E+02  0.00000000000E+00 0. -1.
</event>
<event>
 4    1  0.9360795E+003  0.3028500E+02  0.7546771E-02  0.1417136E+00
          2   -1    0    0  501    0  0.00000000000E+00  0.00000000000E+00  0.35368108197E+02  0.35368108197E+02  0.00000000000E+00 0. -1.
          2   -1    0    0  502    0 -0.00000000000E+00 -0.00000000000E+00 -0.10382762918E+03  0.10382762918E+03  0.00000000000E+00 0.  1.
          2    1    1    2  501    0 -0.30239617789E+02  0.16573593948E+01 -0.94512751387E+02  0.99246367686E+02  0.00000000000E+00 0.  1.
          2    1    1    2  502    0  0.30239617789E+02 -0.16573593948E+01  0.26053230404E+02  0.39949369690E+02  0.00000000000E+00 0. -1.
</event>
<event>
 4    1  0.9360795E+003  0.4157172E+02  0.7546771E-02  0.1339514E+00
          2   -1    0    0  501    0  0.00000000000E+00  0.00000000000E+00  0.66823095353E+03  0.66823095353E+03  0.00000000000E+00 0.  1.
          2   -1    0    0  502    0 -0.00000000000E+00 -0.00000000000E+00 -0.89542677051E+01  0.89542677051E+01  0.00000000000E+00 0. -1.
          2    1    1    2  501    0 -0.41557080175E+02  0.11032518674E+01  0.44099769418E+02  0.60605261654E+02  0.00000000000E+00 0. -1.
          2    1    1    2  502    0  0.41557080175E+02 -0.11032518674E+01  0.61517691640E+03  0.61657995958E+03  0.00000000000E+00 0.  1.
</event>
<event>
 4    1  0.9360795E+003  0.2649093E+02  0.7546771E-02  0.1452790E+00
          2   -1    0    0  501    0  0.00000000000E+00  0.00000000000E+00  0.35716193315E+02  0.35716193315E+02  0.00000000000E+00 0.  1.
          2   -1    0    0  502    0 -0.00000000000E+00 -0.00000000000E+00 -0.40572630120E+03  0.40572630120E+03  0.00000000000E+00 0.  1.
          2    1    1    2  501    0 -0.18543612282E+02  0.18918352667E+02 -0.40031543835E+03  0.40119100165E+03  0.00000000000E+00 0.  1.
          2    1    1    2  502    0  0.18543612282E+02 -0.18918352667E+02  0.30305330459E+02  0.40251492871E+02  0.00000000000E+00 0.  1.
</event>
<event>
 4    1  0.9360795E+003  0.3356050E+02  0.7546771E-02  0.1390976E+00
          2   -1    0    0  501    0  0.00000000000E+00  0.00000000000E+00  0.56930188623E+01  0.56930188623E+01  0.00000000000E+00 0.  1.
          2   -1    0    0  502    0 -0.00000000000E+00 -0.00000000000E+00 -0.76432114912E+03  0.76432114912E+03  0.00000000000E+00 0.  1.
          2    1    1    2  501    0  0.33027380747E+02  0.59581123513E+01 -0.71076824827E+03  0.71156012376E+03  0.00000000000E+00 0.  1.
          2    1    1    2  502    0 -0.33027380747E+02 -0.59581123513E+01 -0.47859881996E+02  0.58454044227E+02  0.00000000000E+00 0.  1.
</event>
<event>
 4    1  0.9360795E+003  0.2340115E+02  0.7546771E-02  0.1487521E+00
          2   -1    0    0  501    0  0.00000000000E+00  0.00000000000E+00  0.44052020371E+03  0.44052020371E+03  0.00000000000E+00 0.  1.
          2   -1    0    0  502    0 -0.00000000000E+00 -0.00000000000E+00 -0.43707862722E+01  0.43707862722E+01  0.00000000000E+00 0. -1.
          2    1    1    2  501    0  0.19397436608E+02 -0.13090191740E+02  0.29902731413E+02  0.37970870582E+02  0.00000000000E+00 0. -1.
          2    1    1    2  502    0 -0.19397436608E+02  0.13090191740E+02  0.40624668603E+03  0.40692011940E+03  0.00000000000E+00 0.  1.
</event>
<event>
 4    1  0.9360795E+003  0.2134049E+02  0.7546771E-02  0.1514459E+00
          2   -1    0    0  501    0  0.00000000000E+00  0.00000000000E+00  0.47211249389E+03  0.47211249389E+03  0.00000000000E+00 0.  1.
          2   -1    0    0  502    0 -0.00000000000E+00 -0.00000000000E+00 -0.30922967912E+01  0.30922967912E+01  0.00000000000E+00 0.  1.
          2    1    1    2  501    0  0.16328822377E+02  0.13739945439E+02  0.37421518333E+02  0.43078841387E+02  0.00000000000E+00 0.  1.
          2    1    1    2  502    0 -0.16328822377E+02 -0.13739945439E+02  0.43159867877E+03  0.43212594930E+03  0.00000000000E+00 0.  1.
</event>
<event>
 4    1  0.9360795E+003  0.2909689E+02  0.7546771E-02  0.1427610E+00
          2   -1    0    0  501    0  0.00000000000E+00  0.00000000000E+00  0.50251620763E+02  0.50251620763E+02  0.00000000000E+00 0. -1.
          2   -1    0    0  502    0 -0.00000000000E+00 -0.00000000000E+00 -0.99210091978E+02  0.99210091978E+02  0.00000000000E+00 0. -1.
          2    1    1    2  501    0  0.38826793314E+00 -0.29094299362E+02 -0.92569693982E+02  0.97034927997E+02  0.00000000000E+00 0. -1.
          2    1    1    2  502    0 -0.38826793314E+00  0.29094299362E+02  0.43611222768E+02  0.52426784745E+02  0.00000000000E+00 0. -1.
</event>
<event>
 4    1  0.9360795E+003  0.3307538E+02  0.7546771E-02  0.1394623E+00
          2   -1    0    0  501    0  0.00000000000E+00  0.00000000000E+00  0.13967347073E+04  0.13967347073E+04  0.00000000000E+00 0. -1.
          2   -1    0    0  502    0 -0.00000000000E+00 -0.00000000000E+00 -0.10735476055E+02  0.10735476055E+02  0.00000000000E+00 0. -1.
          2    1    1    2  501    0  0.19987625977E+02 -0.26352900925E+02  0.15422303984E+02  0.36494219262E+02  0.00000000000E+00 0. -1.
          2    1    1    2  502    0 -0.19987625977E+02  0.26352900925E+02  0.13705769272E+04  0.13709759641E+04  0.00000000000E+00 0. -1.
</event>
<event>
 4    1  0.9360795E+003  0.3100580E+02  0.7546771E-02  0.1411053E+00
          2   -1    0    0  501    0  0.00000000000E+00  0.00000000000E+00  0.45813803931E+03  0.45813803931E+03  0.00000000000E+00 0. -1.
          2   -1    0    0  502    0 -0.00000000000E+00 -0.00000000000E+00 -0.28175527063E+01  0.28175527063E+01  0.00000000000E+00 0. -1.
          2    1    1    2  501    0 -0.28790685282E+02 -0.11508962863E+02  0.11122037634E+03  0.11546138705E+03  0.00000000000E+00 0. -1.
          2    1    1    2  502    0  0.28790685282E+02  0.11508962863E+02  0.34410011026E+03  0.34549420497E+03  0.00000000000E+00 0. -1.
</event>
<event>
 4    1  0.9360795E+003  0.2206867E+02  0.7546771E-02  0.1504536E+00
          2   -1    0    0  501    0  0.00000000000E+00  0.00000000000E+00  0.12015161921E+02  0.12015161921E+02  0.00000000000E+00 0. -1.
          2   -1    0    0  502    0 -0.00000000000E+00 -0.00000000000E+00 -0.74909550608E+03  0.74909550608E+03  0.00000000000E+00 0. -1.
          2    1    1    2  501    0 -0.16174981593E+02  0.15013193083E+02 -0.73865621288E+03  0.73898580962E+03  0.00000000000E+00 0. -1.
          2    1    1    2  502    0  0.16174981593E+02 -0.15013193083E+02  0.15758687212E+01  0.22124858379E+02  0.00000000000E+00 0. -1.
</event>
<event>
 4    1  0.9360795E+003  0.2015729E+02  0.7546771E-02  0.1531645E+00
          2   -1    0    0  501    0  0.00000000000E+00  0.00000000000E+00  0.57743344277E+00  0.57743344277E+00  0.00000000000E+00 0.  1.
          2   -1    0    0  502    0 -0.00000000000E+00 -0.00000000000E+00 -0.10121501983E+04  0.10121501983E+04  0.00000000000E+00 0.  1.
          2    1    1    2  501    0  0.10148029556E+01 -0.20131724988E+02 -0.78533776670E+03  0.78559641291E+03  0.00000000000E+00 0.  1.
          2    1    1    2  502    0 -0.10148029556E+01  0.20131724988E+02 -0.22623499817E+03  0.22713121884E+03  0.00000000000E+00 0.  1.
</event>
<event>
 4    1  0.9360795E+003  0.2621889E+02  0.7546771E-02  0.1455616E+00
          2   -1    0    0  501    0  0.00000000000E+00  0.00000000000E+00  0.10352190745E+04  0.10352190745E+04  0.00000000000E+00 0.  1.
          2   -1    0    0  502    0 -0.00000000000E+00 -0.00000000000E+00 -0.92482090985E+01  0.92482090985E+01  0.00000000000E+00 0. -1.
          2    1    1    2  501    0  0.61733828729E+01  0.25481752131E+02  0.98498040307E+01  0.28008016481E+02  0.00000000000E+00 0. -1.
          2    1    1    2  502    0 -0.61733828729E+01 -0.25481752131E+02  0.10161210614E+04  0.10164592671E+04  0.00000000000E+00 0.  1.
</event>
<event>
 4    1  0.9360795E+003  0.2232398E+02  0.7546771E-02  0.1501166E+00
          2   -1    0    0  502    0  0.00000000000E+00  0.00000000000E+00  0.11549786940E+02  0.11549786940E+02  0.00000000000E+00 0. -1.
          2   -1    0    0  501    0 -0.00000000000E+00 -0.00000000000E+00 -0.37629050910E+03  0.37629050910E+03  0.00000000000E+00 0. -1.
          2    1    1    2  501    0  0.23192337776E+01 -0.22203181394E+02  0.93041373927E-01  0.22324174476E+02  0.00000000000E+00 0. -1.
          2    1    1    2  502    0 -0.23192337776E+01  0.22203181394E+02 -0.36483376354E+03  0.36551612157E+03  0.00000000000E+00 0. -1.
</event>
<event>
 4    1  0.9360795E+003  0.2311165E+02  0.7546771E-02  0.1491101E+00
          2   -1    0    0  501    0  0.00000000000E+00  0.00000000000E+00  0.11109583868E+01  0.11109583868E+01  0.00000000000E+00 0.  1.
          2   -1    0    0  502    0 -0.00000000000E+00 -0.00000000000E+00 -0.60563787334E+03  0.60563787334E+03  0.00000000000E+00 0. -1.
          2    1    1    2  501    0  0.22484636784E+02 -0.53469341943E+01 -0.43999896945E+03  0.44060553981E+03  0.00000000000E+00 0. -1.
          2    1    1    2  502    0 -0.22484636784E+02  0.53469341943E+01 -0.16452794550E+03  0.16614329192E+03  0.00000000000E+00 0.  1.
</event>
<event>
 4    1  0.9360795E+003  0.4744148E+02  0.7546771E-02  0.1309663E+00
          2   -1    0    0  501    0  0.00000000000E+00  0.00000000000E+00  0.50619353143E+01  0.50619353143E+01  0.00000000000E+00 0. -1.
          2   -1    0    0  502    0 -0.00000000000E+00 -0.00000000000E+00 -0.58752863981E+03  0.58752863981E+03  0.00000000000E+00 0. -1.
          2    1    1    2  501    0  0.23829330599E+02 -0.41022636042E+02 -0.43735772506E+03  0.43992325846E+03  0.00000000000E+00 0. -1.
          2    1    1    2  502    0 -0.23829330599E+02  0.41022636042E+02 -0.14510897944E+03  0.15266731667E+03  0.00000000000E+00 0. -1.
</event>
<event>
 4    1  0.9360795E+003  0.2286145E+02  0.7546771E-02  0.1494245E+00
          2   -1    0    0  501    0  0.00000000000E+00  0.00000000000E+00  0.41937654764E+03  0.41937654764E+03  0.00000000000E+00 0.  1.
          2   -1    0    0  502    0 -0.00000000000E+00 -0.00000000000E+00 -0.12539314909E+01  0.12539314909E+01  0.00000000000E+00 0.  1.
          2    1    1    2  501    0  0.22617031382E+02  0.33340126858E+01  0.19259448630E+03  0.19394659549E+03  0.00000000000E+00 0.  1.
          2    1    1    2  502    0 -0.22617031382E+02 -0.33340126858E+01  0.22552812986E+03  0.22668388365E+03  0.00000000000E+00 0.  1.
</event>
<event>
 4    1  0.9360795E+003  0.2036864E+02  0.7546771E-02  0.1528473E+00
          2   -1    0    0  501    0  0.00000000000E+00  0.00000000000E+00  0.30945405115E+03  0.30945405115E+03  0.00000000000E+00 0.  1.
          2   -1    0    0  502    0 -0.00000000000E+00 -0.00000000000E+00 -0.19516606368E+03  0.19516606368E+03  0.00000000000E+00 0. -1.
          2    1    1    2  501    0 -0.37527823401E+01 -0.20019941318E+02 -0.19429795149E+03  0.19536267652E+03  0.00000000000E+00 0. -1.
          2    1    1    2  502    0  0.37527823401E+01  0.20019941318E+02  0.30858593896E+03  0.30925743831E+03  0.00000000000E+00 0.  1.
</event>
<event>
 4    1  0.9360795E+003  0.2005785E+02  0.7546771E-02  0.1533153E+00
          2   -1    0    0  502    0  0.00000000000E+00  0.00000000000E+00  0.77165826624E+02  0.77165826624E+02  0.00000000000E+00 0.  1.
          2   -1    0    0  501    0 -0.00000000000E+00 -0.00000000000E+00 -0.55018867229E+03  0.55018867229E+03  0.00000000000E+00 0.  1.
          2    1    1    2  501    0  0.18179284479E+02 -0.84753095797E+01  0.75676062317E+02  0.78289103102E+02  0.00000000000E+00 0.  1.
          2    1    1    2  502    0 -0.18179284479E+02  0.84753095797E+01 -0.54869890798E+03  0.54906539581E+03  0.00000000000E+00 0.  1.
</event>
<event>
 4    1  0.9360795E+003  0.3413293E+02  0.7546771E-02  0.1386763E+00
          2   -1    0    0  501    0  0.00000000000E+00  0.00000000000E+00  0.29915090902E+02  0.29915090902E+02  0.00000000000E+00 0.  1.
          2   -1    0    0  502    0 -0.00000000000E+00 -0.00000000000E+00 -0.39743152686E+02  0.39743152686E+02  0.00000000000E+00 0. -1.
          2    1    1    2  501    0  0.32783079801E+02 -0.95040401987E+01 -0.98483590840E+01  0.35525304756E+02  0.00000000000E+00 0. -1.
          2    1    1    2  502    0 -0.32783079801E+02  0.95040401987E+01  0.20297299420E-01  0.34132938832E+02  0.00000000000E+00 0.  1.
</event>
<event>
 4    1  0.9360795E+003  0.2631102E+02  0.7546771E-02  0.1454654E+00
          2   -1    0    0  501    0  0.00000000000E+00  0.00000000000E+00  0.13873753334E+03  0.13873753334E+03  0.00000000000E+00 0.  1.
          2   -1    0    0  502    0 -0.00000000000E+00 -0.00000000000E+00 -0.23679277151E+02  0.23679277151E+02  0.00000000000E+00 0.  1.
          2    1    1    2  501    0 -0.61310253589E+01 -0.25586724602E+02 -0.14617419704E+02  0.30098819023E+02  0.00000000000E+00 0.  1.
          2    1    1    2  502    0  0.61310253589E+01  0.25586724602E+02  0.12967567589E+03  0.13231799146E+03  0.00000000000E+00 0.  1.
</event>
<event>
 4    1  0.9360795E+003  0.4060189E+02  0.7546771E-02  0.1344994E+00
          2   -1    0    0  501    0  0.00000000000E+00  0.00000000000E+00  0.21980171961E+02  0.21980171961E+02  0.00000000000E+00 0. -1.
          2   -1    0    0  502    0 -0.00000000000E+00 -0.00000000000E+00 -0.43057220020E+03  0.43057220020E+03  0.00000000000E+00 0.  1.
          2    1    1    2  501    0  0.28551658844E+02 -0.28867218825E+02 -0.40992282425E+03  0.41192867755E+03  0.00000000000E+00 0.  1.
          2    1    1    2  502    0 -0.28551658844E+02  0.28867218825E+02  0.13307960171E+01  0.40623694606E+02  0.00000000000E+00 0. -1.
</event>
<event>
 4    1  0.9360795E+003  0.4605293E+02  0.7546771E-02  0.1316257E+00
          2   -1    0    0  502    0  0.00000000000E+00  0.00000000000E+00  0.12232259716E+04  0.12232259716E+04  0.00000000000E+00 0. -1.
          2   -1    0    0  501    0 -0.00000000000E+00 -0.00000000000E+00 -0.27839657987E+01  0.27839657987E+01  0.00000000000E+00 0. -1.
          2    1    1    2  501    0  0.23422695573E+02 -0.39651600342E+02  0.23373075429E+03  0.23822455284E+03  0.00000000000E+00 0. -1.
          2    1    1    2  502    0 -0.23422695573E+02  0.39651600342E+02  0.98671125153E+03  0.98778538458E+03  0.00000000000E+00 0. -1.
</event>
<event>
 4    1  0.9360795E+003  0.2756623E+02  0.7546771E-02  0.1442002E+00
          2   -1    0    0  501    0  0.00000000000E+00  0.00000000000E+00  0.91475464628E+03  0.91475464628E+03  0.00000000000E+00 0. -1.
          2   -1    0    0  502    0 -0.00000000000E+00 -0.00000000000E+00 -0.13260034779E+02  0.13260034779E+02  0.00000000000E+00 0. -1.
          2    1    1    2  501    0 -0.24530729391E+02 -0.12575376457E+02  0.15095286648E+01  0.27607525320E+02  0.00000000000E+00 0. -1.
          2    1    1    2  502    0  0.24530729391E+02  0.12575376457E+02  0.89998508284E+03  0.90040715574E+03  0.00000000000E+00 0. -1.
</event>
<event>
 4    1  0.9360795E+003  0.2786852E+02  0.7546771E-02  0.1439073E+00
          2   -1    0    0  501    0  0.00000000000E+00  0.00000000000E+00  0.15955415150E+02  0.15955415150E+02  0.00000000000E+00 0. -1.
          2   -1    0    0  502    0 -0.00000000000E+00 -0.00000000000E+00 -0.43718265591E+03  0.43718265591E+03  0.00000000000E+00 0.  1.
          2    1    1    2  501    0  0.21418716511E+02  0.17829551035E+02 -0.42419728179E+03  0.42511173611E+03  0.00000000000E+00 0.  1.
          2    1    1    2  502    0 -0.21418716511E+02 -0.17829551035E+02  0.29700410214E+01  0.28026334950E+02  0.00000000000E+00 0. -1.
</event>
<event>
 4    1  0.9360795E+003  0.2826389E+02  0.7546771E-02  0.1435309E+00
          2   -1    0    0  502    0  0.00000000000E+00  0.00000000000E+00  0.75383610812E+03  0.75383610812E+03  0.00000000000E+00 0. -1.
          2   -1    0    0  501    0 -0.00000000000E+00 -0.00000000000E+00 -0.52340951009E+02  0.52340951009E+02  0.00000000000E+00 0.  1.
          2    1    1    2  501    0 -0.17702126702E+02 -0.22033661314E+02  0.74973471987E+03  0.75026728418E+03  0.00000000000E+00 0. -1.
          2    1    1    2  502    0  0.17702126702E+02  0.22033661314E+02 -0.48239562758E+02  0.55909774957E+02  0.00000000000E+00 0.  1.
</event>
<event>
 4    1  0.9360795E+003  0.2655308E+02  0.7546771E-02  0.1452150E+00
          2   -1    0    0  502    0  0.00000000000E+00  0.00000000000E+00  0.15622225271E+02  0.15622225271E+02  0.00000000000E+00 0.  1.
          2   -1    0    0  501    0 -0.00000000000E+00 -0.00000000000E+00 -0.94394255538E+03  0.94394255538E+03  0.00000000000E+00 0.  1.
          2    1    1    2  501    0 -0.20832126025E+02 -0.16464759923E+02  0.40119559568E+01  0.26854451859E+02  0.00000000000E+00 0.  1.
          2    1    1    2  502    0  0.20832126025E+02  0.16464759923E+02 -0.93233228607E+03  0.93271032880E+03  0.00000000000E+00 0.  1.
</event>
<event>
 4    1  0.9360795E+003  0.2222089E+02  0.7546771E-02  0.1502520E+00
          2   -1    0    0  502    0  0.00000000000E+00  0.00000000000E+00  0.15030325750E+03  0.15030325750E+03  0.00000000000E+00 0. -1.
          2   -1    0    0  501    0 -0.00000000000E+00 -0.00000000000E+00 -0.39261503493E+02  0.39261503493E+02  0.00000000000E+00 0.  1.
          2    1    1    2  501    0 -0.21144292884E+02  0.68327782485E+01  0.14625126129E+03  0.14792971105E+03  0.00000000000E+00 0. -1.
          2    1    1    2  502    0  0.21144292884E+02 -0.68327782485E+01 -0.35209507291E+02  0.41635049944E+02  0.00000000000E+00 0.  1.
</event>
<event>
 4    1  0.9360795E+003  0.3824488E+02  0.7546771E-02  0.1359089E+00
          2   -1    0    0  501    0  0.00000000000E+00  0.00000000000E+00  0.26347576597E+03  0.26347576597E+03  0.00000000000E+00 0. -1.
          2   -1    0    0  502    0 -0.00000000000E+00 -0.00000000000E+00 -0.14009651512E+04  0.14009651512E+04  0.00000000000E+00 0. -1.
          2    1    1    2  501    0  0.29480050191E+02  0.24363862451E+02 -0.13993146420E+04  0.13998371828E+04  0.00000000000E+00 0. -1.
          2    1    1    2  502    0 -0.29480050191E+02 -0.24363862451E+02  0.26182525676E+03  0.26460373434E+03  0.00000000000E+00 0. -1.
</event>
<event>
 4    1  0.9360795E+003  0.2832004E+02  0.7546771E-02  0.1434780E+00
          2   -1    0    0  501    0  0.00000000000E+00  0.00000000000E+00  0.59911679803E+03  0.59911679803E+03  0.00000000000E+00 0. -1.
          2   -1    0    0  502    0 -0.00000000000E+00 -0.00000000000E+00 -0.30031983587E+02  0.30031983587E+02  0.00000000000E+00 0.  1.
          2    1    1    2  501    0  0.24125372785E+02  0.14832089506E+02 -0.22940973152E+02  0.36446025027E+02  0.00000000000E+00 0.  1.
          2    1    1    2  502    0 -0.24125372785E+02 -0.14832089506E+02  0.59202578760E+03  0.59270275659E+03  0.00000000000E+00 0. -1.
</event>
<event>
 4    1  0.9360795E+003  0.2630299E+02  0.7546771E-02  0.1454738E+00
          2   -1    0    0  502    0  0.00000000000E+00  0.00000000000E+00  0.39140196490E+02  0.39140196490E+02  0.00000000000E+00 0.  1.
          2   -1    0    0  501    0 -0.00000000000E+00 -0.00000000000E+00 -0.38273694676E+02  0.38273694676E+02  0.00000000000E+00 0.  1.
          2    1    1    2  501    0 -0.26302962203E+02  0.39382511236E-01  0.28828559944E+02  0.39024777259E+02  0.00000000000E+00 0.  1.
          2    1    1    2  502    0  0.26302962203E+02 -0.39382511236E-01 -0.27962058130E+02  0.38389113906E+02  0.00000000000E+00 0.  1.
</event>
<event>
 4    1  0.9360795E+003  0.2114138E+02  0.7546771E-02  0.1517256E+00
          2   -1    0    0  501    0  0.00000000000E+00  0.00000000000E+00  0.40241639402E+02  0.40241639402E+02  0.00000000000E+00 0.  1.
          2   -1    0    0  502    0 -0.00000000000E+00 -0.00000000000E+00 -0.21453065430E+03  0.21453065430E+03  0.00000000000E+00 0.  1.
          2    1    1    2  501    0 -0.14619666288E+02 -0.15271644185E+02 -0.21118926402E+03  0.21224481854E+03  0.00000000000E+00 0.  1.
          2    1    1    2  502    0  0.14619666288E+02  0.15271644185E+02  0.36900249123E+02  0.42527475164E+02  0.00000000000E+00 0.  1.
</event>
<event>
 4    1  0.9360795E+003  0.2016143E+02  0.7546771E-02  0.1531582E+00
          2   -1    0    0  502    0  0.00000000000E+00  0.00000000000E+00  0.28439228584E+02  0.28439228584E+02  0.00000000000E+00 0.  1.
          2   -1    0    0  501    0 -0.00000000000E+00 -0.00000000000E+00 -0.56433135050E+02  0.56433135050E+02  0.00000000000E+00 0.  1.
          2    1    1    2  501    0  0.18558760310E+02 -0.78775522141E+01  0.22673552465E+02  0.30340952433E+02  0.00000000000E+00 0.  1.
          2    1    1    2  502    0 -0.18558760310E+02  0.78775522141E+01 -0.50667458931E+02  0.54531411202E+02  0.00000000000E+00 0.  1.
</event>
<event>
 4    1  0.1239165E+004  0.3275604E+02  0.7546771E-02  0.1397065E+00
          2   -1    0    0  501    0  0.00000000000E+00  0.00000000000E+00  0.58091507981E+03  0.58091507981E+03  0.00000000000E+00 0.  1.
          2   -1    0    0  502    0 -0.00000000000E+00 -0.00000000000E+00 -0.11738296587E+04  0.11738296587E+04  0.00000000000E+00 0.  1.
          2    1    1    2  501    0 -0.20612863079E+02 -0.25457177090E+02 -0.11731391171E+04  0.11735963301E+04  0.00000000000E+00 0.  1.
          2    1    1    2  502    0  0.20612863079E+02  0.25457177090E+02  0.58022453814E+03  0.58114840846E+03  0.00000000000E+00 0.  1.
</event>
<event>
 4    1  0.9360795E+003  0.2721320E+02  0.7546771E-02  0.1445478E+00
          2   -1    0    0  502    0  0.00000000000E+00  0.00000000000E+00  0.50253388179E+03  0.50253388179E+03  0.00000000000E+00 0.  1.
          2   -1    0    0  501    0 -0.00000000000E+00 -0.00000000000E+00 -0.94188503839E+01  0.94188503839E+01  0.00000000000E+00 0.  1.
          2    1    1    2  501    0  0.25281259014E+02 -0.10070562013E+02  0.48165792762E+03  0.48242607466E+03  0.00000000000E+00 0.  1.
          2    1    1    2  502    0 -0.25281259014E+02  0.10070562013E+02  0.11457103788E+02  0.29526657512E+02  0.00000000000E+00 0.  1.
</event>
<event>
 4    1  0.9360795E+003  0.2035363E+02  0.7546771E-02  0.1528697E+00
          2   -1    0    0  501    0  0.00000000000E+00  0.00000000000E+00  0.18744279259E+03  0.18744279259E+03  0.00000000000E+00 0.  1.
          2   -1    0    0  502    0 -0.00000000000E+00 -0.00000000000E+00 -0.26909934342E+02  0.26909934342E+02  0.00000000000E+00 0. -1.
          2    1    1    2  501    0  0.19736765152E+02 -0.49729716166E+01 -0.22414449522E+02  0.30276688933E+02  0.00000000000E+00 0. -1.
          2    1    1    2  502    0 -0.19736765152E+02  0.49729716166E+01  0.18294730777E+03  0.18407603800E+03  0.00000000000E+00 0.  1.
</event>
<event>
 4    1  0.9360795E+003  0.2109539E+02  0.7546771E-02  0.1517907E+00
          2   -1    0    0  502    0  0.00000000000E+00  0.00000000000E+00  0.97415772447E+02  0.97415772447E+02  0.00000000000E+00 0. -1.
          2   -1    0    0  501    0 -0.00000000000E+00 -0.00000000000E+00 -0.96926309140E+01  0.96926309140E+01  0.00000000000E+00 0.  1.
          2    1    1    2  501    0 -0.14958424562E+02 -0.14874848263E+02  0.82801500714E+02  0.85446498446E+02  0.00000000000E+00 0. -1.
          2    1    1    2  502    0  0.14958424562E+02  0.14874848263E+02  0.49216408196E+01  0.21661904915E+02  0.00000000000E+00 0.  1.
</event>
<event>
 4    1  0.9360795E+003  0.2485385E+02  0.7546771E-02  0.1470445E+00
          2   -1    0    0  501    0  0.00000000000E+00  0.00000000000E+00  0.55397506959E+01  0.55397506959E+01  0.00000000000E+00 0. -1.
          2   -1    0    0  502    0 -0.00000000000E+00 -0.00000000000E+00 -0.38124059999E+03  0.38124059999E+03  0.00000000000E+00 0.  1.
          2    1    1    2  501    0 -0.53314347532E+01  0.24275286965E+02 -0.35051890503E+03  0.35139894214E+03  0.00000000000E+00 0.  1.
          2    1    1    2  502    0  0.53314347532E+01 -0.24275286965E+02 -0.25181944264E+02  0.35381408545E+02  0.00000000000E+00 0. -1.
</event>
<event>
 4    1  0.9360795E+003  0.4137314E+02  0.7546771E-02  0.1340622E+00
          2   -1    0    0  502    0  0.00000000000E+00  0.00000000000E+00  0.17013688552E+02  0.17013688552E+02  0.00000000000E+00 0.  1.
          2   -1    0    0  501    0 -0.00000000000E+00 -0.00000000000E+00 -0.17734968192E+04  0.17734968192E+04  0.00000000000E+00 0.  1.
          2    1    1    2  501    0  0.38455444366E+02 -0.15261578160E+02 -0.87506891164E+01  0.42288432571E+02  0.00000000000E+00 0.  1.
          2    1    1    2  502    0 -0.38455444366E+02  0.15261578160E+02 -0.17477324416E+04  0.17482220752E+04  0.00000000000E+00 0.  1.
</event>
<event>
 4    1  0.9360795E+003  0.2561167E+02  0.7546771E-02  0.1462076E+00
          2   -1    0    0  502    0  0.00000000000E+00  0.00000000000E+00  0.61875814040E+03  0.61875814040E+03  0.00000000000E+00 0.  1.
          2   -1    0    0  501    0 -0.00000000000E+00 -0.00000000000E+00 -0.13633706326E+02  0.13633706326E+02  0.00000000000E+00 0. -1.
          2    1    1    2  501    0  0.25333595966E+02  0.37638385742E+01  0.60621613678E+03  0.60675692172E+03  0.00000000000E+00 0.  1.
          2    1    1    2  502    0 -0.25333595966E+02 -0.37638385742E+01 -0.10917027016E+01  0.25634925008E+02  0.00000000000E+00 0. -1.
</event>
<event>
 4    1  0.9360795E+003  0.2265928E+02  0.7546771E-02  0.1496821E+00
          2   -1    0    0  502    0  0.00000000000E+00  0.00000000000E+00  0.97503887102E+03  0.97503887102E+03  0.00000000000E+00 0.  1.
          2   -1    0    0  501    0 -0.00000000000E+00 -0.00000000000E+00 -0.63400984939E+02  0.63400984939E+02  0.00000000000E+00 0.  1.
          2    1    1    2  501    0 -0.93585027915E+01  0.20636412159E+02  0.97287814189E+03  0.97314198453E+03  0.00000000000E+00 0.  1.
          2    1    1    2  502    0  0.93585027915E+01 -0.20636412159E+02 -0.61240255812E+02  0.65297871430E+02  0.00000000000E+00 0.  1.
</event>
<event>
 4    1  0.9360795E+003  0.3893948E+02  0.7546771E-02  0.1354815E+00
          2   -1    0    0  502    0  0.00000000000E+00  0.00000000000E+00  0.48881887124E+01  0.48881887124E+01  0.00000000000E+00 0.  1.
          2   -1    0    0  501    0 -0.00000000000E+00 -0.00000000000E+00 -0.37427278767E+03  0.37427278767E+03  0.00000000000E+00 0.  1.
          2    1    1    2  501    0 -0.29015825803E+02  0.25968539189E+02 -0.10624840001E+03  0.11315920501E+03  0.00000000000E+00 0.  1.
          2    1    1    2  502    0  0.29015825803E+02 -0.25968539189E+02 -0.26313619895E+03  0.26600177137E+03  0.00000000000E+00 0.  1.
</event>
<event>
 4    1  0.9360795E+003  0.3621040E+02  0.7546771E-02  0.1372248E+00
          2   -1    0    0  501    0  0.00000000000E+00  0.00000000000E+00  0.69586630538E+01  0.69586630538E+01  0.00000000000E+00 0.  1.
          2   -1    0    0  502    0 -0.00000000000E+00 -0.00000000000E+00 -0.14363308457E+04  0.14363308457E+04  0.00000000000E+00 0. -1.
          2    1    1    2  501    0 -0.34946191376E+02  0.94845668988E+01 -0.13873326810E+04  0.13878051596E+04  0.00000000000E+00 0. -1.
          2    1    1    2  502    0  0.34946191376E+02 -0.94845668988E+01 -0.42039501682E+02  0.55484349168E+02  0.00000000000E+00 0.  1.
</event>
<event>
 4    1  0.9360795E+003  0.2650248E+02  0.7546771E-02  0.1452671E+00
          2   -1    0    0  502    0  0.00000000000E+00  0.00000000000E+00  0.12435760507E+01  0.12435760507E+01  0.00000000000E+00 0.  1.
          2   -1    0    0  501    0 -0.00000000000E+00 -0.00000000000E+00 -0.87091964548E+03  0.87091964548E+03  0.00000000000E+00 0.  1.
          2    1    1    2  501    0 -0.18933159918E+02 -0.18544989564E+02 -0.17630326891E+03  0.17828410981E+03  0.00000000000E+00 0.  1.
          2    1    1    2  502    0  0.18933159918E+02  0.18544989564E+02 -0.69337280052E+03  0.69387911172E+03  0.00000000000E+00 0.  1.
</event>
<event>
 4    1  0.9360795E+003  0.2603871E+02  0.7546771E-02  0.1457511E+00
          2   -1    0    0  501    0  0.00000000000E+00  0.00000000000E+00  0.11879827486E+01  0.11879827486E+01  0.00000000000E+00 0.  1.
          2   -1    0    0  502    0 -0.00000000000E+00 -0.00000000000E+00 -0.13200977516E+04  0.13200977516E+04  0.00000000000E+00 0.  1.
          2    1    1    2  501    0 -0.20607594554E+02  0.15916702556E+02 -0.11572056553E+04  0.11574985715E+04  0.00000000000E+00 0.  1.
          2    1    1    2  502    0  0.20607594554E+02 -0.15916702556E+02 -0.16170411355E+03  0.16378716285E+03  0.00000000000E+00 0.  1.
</event>
<event>
 4    1  0.9360795E+003  0.2318654E+02  0.7546771E-02  0.1490169E+00
          2   -1    0    0  502    0  0.00000000000E+00  0.00000000000E+00  0.19129318879E+03  0.19129318879E+03  0.00000000000E+00 0.  1.
          2   -1    0    0  501    0 -0.00000000000E+00 -0.00000000000E+00 -0.21020455597E+03  0.21020455597E+03  0.00000000000E+00 0. -1.
          2    1    1    2  501    0 -0.17095045764E+02  0.15664453220E+02  0.18994667013E+03  0.19135661258E+03  0.00000000000E+00 0.  1.
          2    1    1    2  502    0  0.17095045764E+02 -0.15664453220E+02 -0.20885803731E+03  0.21014113218E+03  0.00000000000E+00 0. -1.
</event>
<event>
 4    1  0.9360795E+003  0.2743974E+02  0.7546771E-02  0.1443240E+00
          2   -1    0    0  501    0  0.00000000000E+00  0.00000000000E+00  0.79731578409E+00  0.79731578409E+00  0.00000000000E+00 0.  1.
          2   -1    0    0  502    0 -0.00000000000E+00 -0.00000000000E+00 -0.94609400440E+03  0.94609400440E+03  0.00000000000E+00 0. -1.
          2    1    1    2  501    0 -0.27181306409E+02 -0.37571032461E+01 -0.49301871617E+03  0.49378172682E+03  0.00000000000E+00 0. -1.
          2    1    1    2  502    0  0.27181306409E+02  0.37571032461E+01 -0.45227797244E+03  0.45310959337E+03  0.00000000000E+00 0.  1.
</event>
<event>
 4    1  0.9360795E+003  0.2362139E+02  0.7546771E-02  0.1484839E+00
          2   -1    0    0  501    0  0.00000000000E+00  0.00000000000E+00  0.78780414057E+01  0.78780414057E+01  0.00000000000E+00 0.  1.
          2   -1    0    0  502    0 -0.00000000000E+00 -0.00000000000E+00 -0.10348078182E+04  0.10348078182E+04  0.00000000000E+00 0. -1.
          2    1    1    2  501    0  0.18666774357E+02  0.14474865129E+02 -0.10166503194E+04  0.10169246984E+04  0.00000000000E+00 0. -1.
          2    1    1    2  502    0 -0.18666774357E+02 -0.14474865129E+02 -0.10279457416E+02  0.25761161274E+02  0.00000000000E+00 0.  1.
</event>
<event>
 4    1  0.9360795E+003  0.2023568E+02  0.7546771E-02  0.1530463E+00
          2   -1    0    0  502    0  0.00000000000E+00  0.00000000000E+00  0.89449125210E+03  0.89449125210E+03  0.00000000000E+00 0. -1.
          2   -1    0    0  501    0 -0.00000000000E+00 -0.00000000000E+00 -0.47208280860E+00  0.47208280860E+00  0.00000000000E+00 0. -1.
          2    1    1    2  501    0 -0.56588217193E+01  0.19428343533E+02  0.36912834622E+03  0.36968259193E+03  0.00000000000E+00 0. -1.
          2    1    1    2  502    0  0.56588217193E+01 -0.19428343533E+02  0.52489082307E+03  0.52528074297E+03  0.00000000000E+00 0. -1.
</event>
<event>
 4    1  0.9360795E+003  0.2436718E+02  0.7546771E-02  0.1476009E+00
          2   -1    0    0  502    0  0.00000000000E+00  0.00000000000E+00  0.39606419290E+01  0.39606419290E+01  0.00000000000E+00 0. -1.
          2   -1    0    0  501    0 -0.00000000000E+00 -0.00000000000E+00 -0.13223437263E+04  0.13223437263E+04  0.00000000000E+00 0. -1.
          2    1    1    2  501    0  0.13115057716E+02  0.20536672885E+02 -0.34760840014E+02  0.42450861835E+02  0.00000000000E+00 0. -1.
          2    1    1    2  502    0 -0.13115057716E+02 -0.20536672885E+02 -0.12836222444E+04  0.12838535064E+04  0.00000000000E+00 0. -1.
</event>
<event>
 4    1  0.9360795E+003  0.2165011E+02  0.7546771E-02  0.1510182E+00
          2   -1    0    0  502    0  0.00000000000E+00  0.00000000000E+00  0.54962716198E+01  0.54962716198E+01  0.00000000000E+00 0.  1.
          2   -1    0    0  501    0 -0.00000000000E+00 -0.00000000000E+00 -0.88471200506E+02  0.88471200506E+02  0.00000000000E+00 0.  1.
          2    1    1    2  501    0  0.18676241214E+02 -0.10951038163E+02 -0.32565520157E+02  0.39105502500E+02  0.00000000000E+00 0.  1.
          2    1    1    2  502    0 -0.18676241214E+02  0.10951038163E+02 -0.50409408729E+02  0.54861969625E+02  0.00000000000E+00 0.  1.
</event>
<event>
 4    1  0.9360795E+003  0.2003095E+02  0.7546771E-02  0.1533563E+00
          2   -1    0    0  501    0  0.00000000000E+00  0.00000000000E+00  0.20433059029E+02  0.20433059029E+02  0.00000000000E+00 0. -1.
          2   -1    0    0  502    0 -0.00000000000E+00 -0.00000000000E+00 -0.55306339242E+02  0.55306339242E+02  0.00000000000E+00 0. -1.
          2    1    1    2  501    0  0.19948959032E+02  0.18104846973E+01 -0.47849234321E+02  0.51872806425E+02  0.00000000000E+00 0. -1.
          2    1    1    2  502    0 -0.19948959032E+02 -0.18104846973E+01  0.12975954109E+02  0.23866591846E+02  0.00000000000E+00 0. -1.
</event>
<event>
 4    1  0.9360795E+003  0.2606368E+02  0.7546771E-02  0.1457247E+00
          2   -1    0    0  502    0  0.00000000000E+00  0.00000000000E+00  0.15231891103E+04  0.15231891103E+04  0.00000000000E+00 0. -1.
          2   -1    0    0  501    0 -0.00000000000E+00 -0.00000000000E+00 -0.26312950696E+02  0.26312950696E+02  0.00000000000E+00 0.  1.
          2    1    1    2  501    0  0.23597310727E+02  0.11067178949E+02  0.15165953620E+04  0.15168193061E+04  0.00000000000E+00 0. -1.
          2    1    1    2  502    0 -0.23597310727E+02 -0.11067178949E+02 -0.19719202363E+02  0.32682754861E+02  0.00000000000E+00 0.  1.
</event>
<event>
 4    1  0.9360795E+003  0.3407588E+02  0.7546771E-02  0.1387179E+00
          2   -1    0    0  501    0  0.00000000000E+00  0.00000000000E+00  0.47537689669E+01  0.47537689669E+01  0.00000000000E+00 0. -1.
          2   -1    0    0  502    0 -0.00000000000E+00 -0.00000000000E+00 -0.33262864223E+03  0.33262864223E+03  0.00000000000E+00 0. -1.
          2    1    1    2  501    0 -0.22315256254E+00 -0.34075144664E+02 -0.25088485899E+03  0.25318842341E+03  0.00000000000E+00 0. -1.
          2    1    1    2  502    0  0.22315256254E+00  0.34075144664E+02 -0.76990014280E+02  0.84193987789E+02  0.00000000000E+00 0. -1.
</event>
<event>
 4    1  0.9360795E+003  0.2001905E+02  0.7546771E-02  0.1533745E+00
          2   -1    0    0  502    0  0.00000000000E+00  0.00000000000E+00  0.82896138015E+03  0.82896138015E+03  0.00000000000E+00 0. -1.
          2   -1    0    0  501    0 -0.00000000000E+00 -0.00000000000E+00 -0.81976655569E+02  0.81976655569E+02  0.00000000000E+00 0.  1.
          2    1    1    2  501    0  0.11733201169E+02  0.16220182882E+02  0.82761634702E+03  0.82785843005E+03  0.00000000000E+00 0. -1.
          2    1    1    2  502    0 -0.11733201169E+02 -0.16220182882E+02 -0.80631622437E+02  0.83079605676E+02  0.00000000000E+00 0.  1.
</event>
<event>
 4    1  0.9360795E+003  0.3912150E+02  0.7546771E-02  0.1353712E+00
          2   -1    0    0  502    0  0.00000000000E+00  0.00000000000E+00  0.13605734049E+01  0.13605734049E+01  0.00000000000E+00 0. -1.
          2   -1    0    0  501    0 -0.00000000000E+00 -0.00000000000E+00 -0.17961839134E+04  0.17961839134E+04  0.00000000000E+00 0. -1.
          2    1    1    2  501    0  0.15496803168E+02 -0.35921310119E+02 -0.34795739919E+03  0.35014974380E+03  0.00000000000E+00 0. -1.
          2    1    1    2  502    0 -0.15496803168E+02  0.35921310119E+02 -0.14468659408E+04  0.14473947430E+04  0.00000000000E+00 0. -1.
</event>
<event>
 4    1  0.9360795E+003  0.4907430E+02  0.7546771E-02  0.1302237E+00
          2   -1    0    0  502    0  0.00000000000E+00  0.00000000000E+00  0.37170540797E+01  0.37170540797E+01  0.00000000000E+00 0.  1.
          2   -1    0    0  501    0 -0.00000000000E+00 -0.00000000000E+00 -0.78825730942E+03  0.78825730942E+03  0.00000000000E+00 0.  1.
          2    1    1    2  501    0 -0.24805713400E+02 -0.42343394206E+02 -0.22517580983E+03  0.23046134553E+03  0.00000000000E+00 0.  1.
          2    1    1    2  502    0  0.24805713400E+02  0.42343394206E+02 -0.55936444551E+03  0.56151301797E+03  0.00000000000E+00 0.  1.
</event>
<event>
 4    1  0.9360795E+003  0.2802655E+02  0.7546771E-02  0.1437560E+00
          2   -1    0    0  501    0  0.00000000000E+00  0.00000000000E+00  0.83630656412E+02  0.83630656412E+02  0.00000000000E+00 0.  1.
          2   -1    0    0  502    0 -0.00000000000E+00 -0.00000000000E+00 -0.22223811845E+02  0.22223811845E+02  0.00000000000E+00 0. -1.
          2    1    1    2  501    0  0.12626034108E+02  0.25021407555E+02 -0.95134376277E+01  0.29597180082E+02  0.00000000000E+00 0. -1.
          2    1    1    2  502    0 -0.12626034108E+02 -0.25021407555E+02  0.70920282194E+02  0.76257288175E+02  0.00000000000E+00 0.  1.
</event>
<event>
 4    1  0.9360795E+003  0.2166015E+02  0.7546771E-02  0.1510045E+00
          2   -1    0    0  501    0  0.00000000000E+00  0.00000000000E+00  0.78486258417E+01  0.78486258417E+01  0.00000000000E+00 0. -1.
          2   -1    0    0  502    0 -0.00000000000E+00 -0.00000000000E+00 -0.76979727072E+02  0.76979727072E+02  0.00000000000E+00 0. -1.
          2    1    1    2  501    0  0.18268909282E+02 -0.11636541144E+02 -0.54616263626E+02  0.58754560577E+02  0.00000000000E+00 0. -1.
          2    1    1    2  502    0 -0.18268909282E+02  0.11636541144E+02 -0.14514837604E+02  0.26073792337E+02  0.00000000000E+00 0. -1.
</event>
<event>
 4    1  0.9360795E+003  0.2585063E+02  0.7546771E-02  0.1459508E+00
          2   -1    0    0  502    0  0.00000000000E+00  0.00000000000E+00  0.97281420839E+01  0.97281420839E+01  0.00000000000E+00 0.  1.
          2   -1    0    0  501    0 -0.00000000000E+00 -0.00000000000E+00 -0.15979878488E+04  0.15979878488E+04  0.00000000000E+00 0. -1.
          2    1    1    2  501    0  0.16289206680E+02 -0.20072791792E+02 -0.77394357011E+01  0.26984330445E+02  0.00000000000E+00 0.  1.
          2    1    1    2  502    0 -0.16289206680E+02  0.20072791792E+02 -0.15805202711E+04  0.15807316605E+04  0.00000000000E+00 0. -1.
</event>
<event>
 4    1  0.9360795E+003  0.2332366E+02  0.7546771E-02  0.1488473E+00
          2   -1    0    0  502    0  0.00000000000E+00  0.00000000000E+00  0.17492795994E+02  0.17492795994E+02  0.00000000000E+00 0. -1.
          2   -1    0    0  501    0 -0.00000000000E+00 -0.00000000000E+00 -0.32501366675E+03  0.32501366675E+03  0.00000000000E+00 0. -1.
          2    1    1    2  501    0 -0.19442270066E+02  0.12883756055E+02  0.90938698469E+01  0.25033807225E+02  0.00000000000E+00 0. -1.
          2    1    1    2  502    0  0.19442270066E+02 -0.12883756055E+02 -0.31661474061E+03  0.31747265552E+03  0.00000000000E+00 0. -1.
</event>
<event>
 4    1  0.9564308E+003  0.2268469E+02  0.7546771E-02  0.1496496E+00
          2   -1    0    0  502    0  0.00000000000E+00  0.00000000000E+00  0.42372966007E+03  0.42372966007E+03  0.00000000000E+00 0.  1.
          2   -1    0    0  501    0 -0.00000000000E+00 -0.00000000000E+00 -0.10628959559E+04  0.10628959559E+04  0.00000000000E+00 0.  1.
          2    1    1    2  501    0 -0.74122615589E+01  0.21439530514E+02  0.42330489211E+03  0.42391228666E+03  0.00000000000E+00 0.  1.
          2    1    1    2  502    0  0.74122615589E+01 -0.21439530514E+02 -0.10624711879E+04  0.10627133293E+04  0.00000000000E+00 0.  1.
</event>
<event>
 4    1  0.9360795E+003  0.2098047E+02  0.7546771E-02  0.1519544E+00
          2   -1    0    0  501    0  0.00000000000E+00  0.00000000000E+00  0.13950407318E+04  0.13950407318E+04  0.00000000000E+00 0. -1.
          2   -1    0    0  502    0 -0.00000000000E+00 -0.00000000000E+00 -0.38158295110E+00  0.38158295110E+00  0.00000000000E+00 0. -1.
          2    1    1    2  501    0  0.50163945954E+01 -0.20371943442E+02  0.40704763734E+03  0.40758797745E+03  0.00000000000E+00 0. -1.
          2    1    1    2  502    0 -0.50163945954E+01  0.20371943442E+02  0.98761151149E+03  0.98783433728E+03  0.00000000000E+00 0. -1.
</event>
<event>
 4    1  0.9360795E+003  0.3028964E+02  0.7546771E-02  0.1417096E+00
          2   -1    0    0  502    0  0.00000000000E+00  0.00000000000E+00  0.61318495005E+02  0.61318495005E+02  0.00000000000E+00 0. -1.
          2   -1    0    0  501    0 -0.00000000000E+00 -0.00000000000E+00 -0.31345929953E+03  0.31345929953E+03  0.00000000000E+00 0.  1.
          2    1    1    2  501    0 -0.21976919140E+02  0.20844116337E+02  0.56791529480E+02  0.64364120296E+02  0.00000000000E+00 0. -1.
          2    1    1    2  502    0  0.21976919140E+02 -0.20844116337E+02 -0.30893233400E+03  0.31041367424E+03  0.00000000000E+00 0.  1.
</event>
<event>
 4    1  0.9360795E+003  0.3021807E+02  0.7546771E-02  0.1417711E+00
          2   -1    0    0  501    0  0.00000000000E+00  0.00000000000E+00  0.10727989889E+02  0.10727989889E+02  0.00000000000E+00 0. -1.
          2   -1    0    0  502    0 -0.00000000000E+00 -0.00000000000E+00 -0.21394662208E+03  0.21394662208E+03  0.00000000000E+00 0. -1.
          2    1    1    2  501    0 -0.27984439609E+02  0.11401869922E+02 -0.18878183527E+03  0.19118502249E+03  0.00000000000E+00 0. -1.
          2    1    1    2  502    0  0.27984439609E+02 -0.11401869922E+02 -0.14436796920E+02  0.33489589476E+02  0.00000000000E+00 0. -1.
</event>
<event>
 4    1  0.9360795E+003  0.2385354E+02  0.7546771E-02  0.1482050E+00
          2   -1    0    0  502    0  0.00000000000E+00  0.00000000000E+00  0.20600429460E+03  0.20600429460E+03  0.00000000000E+00 0. -1.
          2   -1    0    0  501    0 -0.00000000000E+00 -0.00000000000E+00 -0.83574108882E+03  0.83574108882E+03  0.00000000000E+00 0. -1.
          2    1    1    2  501    0  0.16961150578E+01 -0.23793158064E+02  0.20514286782E+03  0.20652502850E+03  0.00000000000E+00 0. -1.
          2    1    1    2  502    0 -0.16961150578E+01  0.23793158064E+02 -0.83487966204E+03  0.83522035492E+03  0.00000000000E+00 0. -1.
</event>
<event>
 4    1  0.9360795E+003  0.2369903E+02  0.7546771E-02  0.1483902E+00
          2   -1    0    0  502    0  0.00000000000E+00  0.00000000000E+00  0.89322294524E+02  0.89322294524E+02  0.00000000000E+00 0. -1.
          2   -1    0    0  501    0 -0.00000000000E+00 -0.00000000000E+00 -0.16592865180E+03  0.16592865180E+03  0.00000000000E+00 0. -1.
          2    1    1    2  501    0  0.22534179987E+02  0.73385648112E+01  0.86880769439E+02  0.90055049272E+02  0.00000000000E+00 0. -1.
          2    1    1    2  502    0 -0.22534179987E+02 -0.73385648112E+01 -0.16348712672E+03  0.16519589705E+03  0.00000000000E+00 0. -1.
</event>
<event>
 4    1  0.9360795E+003  0.2918790E+02  0.7546771E-02  0.1426787E+00
          2   -1    0    0  501    0  0.00000000000E+00  0.00000000000E+00  0.34833616225E+03  0.34833616225E+03  0.00000000000E+00 0. -1.
          2   -1    0    0  502    0 -0.00000000000E+00 -0.00000000000E+00 -0.38753280489E+03  0.38753280489E+03  0.00000000000E+00 0. -1.
          2    1    1    2  501    0 -0.27653935025E+02  0.93377469598E+01 -0.38636994854E+03  0.38747086443E+03  0.00000000000E+00 0. -1.
          2    1    1    2  502    0  0.27653935025E+02 -0.93377469598E+01  0.34717330591E+03  0.34839810271E+03  0.00000000000E+00 0. -1.
</event>
<event>
 4    1  0.9360795E+003  0.3829433E+02  0.7546771E-02  0.1358782E+00
          2   -1    0    0  501    0  0.00000000000E+00  0.00000000000E+00  0.20509951467E+03  0.20509951467E+03  0.00000000000E+00 0. -1.
          2   -1    0    0  502    0 -0.00000000000E+00 -0.00000000000E+00 -0.32020366007E+02  0.32020366007E+02  0.00000000000E+00 0.  1.
          2    1    1    2  501    0 -0.17215513352E+02 -0.34206454924E+02 -0.17948367093E+02  0.42291835379E+02  0.00000000000E+00 0.  1.
          2    1    1    2  502    0  0.17215513352E+02  0.34206454924E+02  0.19102751575E+03  0.19482804530E+03  0.00000000000E+00 0. -1.
</event>
<event>
 4    1  0.9360795E+003  0.2761404E+02  0.7546771E-02  0.1441536E+00
          2   -1    0    0  502    0  0.00000000000E+00  0.00000000000E+00  0.47234562071E+01  0.47234562071E+01  0.00000000000E+00 0. -1.
          2   -1    0    0  501    0 -0.00000000000E+00 -0.00000000000E+00 -0.21462824032E+03  0.21462824032E+03  0.00000000000E+00 0.  1.
          2    1    1    2  501    0  0.27243938116E+02 -0.45058685693E+01 -0.50352415730E+02  0.57427352242E+02  0.00000000000E+00 0. -1.
          2    1    1    2  502    0 -0.27243938116E+02  0.45058685693E+01 -0.15955236839E+03  0.16192434429E+03  0.00000000000E+00 0.  1.
</event>
<event>
 4    1  0.9360795E+003  0.3260020E+02  0.7546771E-02  0.1398268E+00
          2   -1    0    0  502    0  0.00000000000E+00  0.00000000000E+00  0.10319277956E+02  0.10319277956E+02  0.00000000000E+00 0.  1.
          2   -1    0    0  501    0 -0.00000000000E+00 -0.00000000000E+00 -0.90670087070E+03  0.90670087070E+03  0.00000000000E+00 0. -1.
          2    1    1    2  501    0 -0.29998960867E+02 -0.12760703556E+02 -0.16505726201E+02  0.36540555630E+02  0.00000000000E+00 0.  1.
          2    1    1    2  502    0  0.29998960867E+02  0.12760703556E+02 -0.87987586654E+03  0.88047959302E+03  0.00000000000E+00 0. -1.
</event>
<event>
 4    1  0.9360795E+003  0.3245873E+02  0.7546771E-02  0.1399367E+00
          2   -1    0    0  502    0  0.00000000000E+00  0.00000000000E+00  0.19132991655E+04  0.19132991655E+04  0.00000000000E+00 0. -1.
          2   -1    0    0  501    0 -0.00000000000E+00 -0.00000000000E+00 -0.60668390132E+01  0.60668390132E+01  0.00000000000E+00 0.  1.
          2    1    1    2  501    0 -0.10201555509E+02 -0.30813915271E+02  0.18687105935E+04  0.18689924696E+04  0.00000000000E+00 0. -1.
          2    1    1    2  502    0  0.10201555509E+02  0.30813915271E+02  0.38521733001E+02  0.50373534942E+02  0.00000000000E+00 0.  1.
</event>
<event>
 4    1  0.9360795E+003  0.2362786E+02  0.7546771E-02  0.1484761E+00
          2   -1    0    0  501    0  0.00000000000E+00  0.00000000000E+00  0.58179454173E+03  0.58179454173E+03  0.00000000000E+00 0. -1.
          2   -1    0    0  502    0 -0.00000000000E+00 -0.00000000000E+00 -0.10209237975E+01  0.10209237975E+01  0.00000000000E+00 0.  1.
          2    1    1    2  501    0 -0.23050849872E+02  0.51898213177E+01  0.21895283138E+03  0.22022401843E+03  0.00000000000E+00 0.  1.
          2    1    1    2  502    0  0.23050849872E+02 -0.51898213177E+01  0.36182078655E+03  0.36259144709E+03  0.00000000000E+00 0. -1.
</event>
<event>
 4    1  0.9360795E+003  0.3628453E+02  0.7546771E-02  0.1371751E+00
          2   -1    0    0  501    0  0.00000000000E+00  0.00000000000E+00  0.24944076596E+01  0.24944076596E+01  0.00000000000E+00 0. -1.
          2   -1    0    0  502    0 -0.00000000000E+00 -0.00000000000E+00 -0.11094933363E+04  0.11094933363E+04  0.00000000000E+00 0. -1.
          2    1    1    2  501    0 -0.22679825896E+02  0.28323000374E+02 -0.95607922093E+03  0.95676749712E+03  0.00000000000E+00 0. -1.
          2    1    1    2  502    0  0.22679825896E+02 -0.28323000374E+02 -0.15091970766E+03  0.15522024679E+03  0.00000000000E+00 0. -1.
</event>
<event>
 4    1  0.9360795E+003  0.2706458E+02  0.7546771E-02  0.1446960E+00
          2   -1    0    0  502    0  0.00000000000E+00  0.00000000000E+00  0.18810550565E+01  0.18810550565E+01  0.00000000000E+00 0. -1.
          2   -1    0    0  501    0 -0.00000000000E+00 -0.00000000000E+00 -0.13016432497E+04  0.13016432497E+04  0.00000000000E+00 0. -1.
          2    1    1    2  501    0 -0.90251074789E+01 -0.25515462867E+02 -0.10425215767E+03  0.10770795601E+03  0.00000000000E+00 0. -1.
          2    1    1    2  502    0  0.90251074789E+01  0.25515462867E+02 -0.11955100370E+04  0.11958163488E+04  0.00000000000E+00 0. -1.
</event>
<event>
 4    1  0.9360795E+003  0.2482281E+02  0.7546771E-02  0.1470795E+00
          2   -1    0    0  501    0  0.00000000000E+00  0.00000000000E+00  0.19718036539E+03  0.19718036539E+03  0.00000000000E+00 0. -1.
          2   -1    0    0  502    0 -0.00000000000E+00 -0.00000000000E+00 -0.16970663308E+04  0.16970663308E+04  0.00000000000E+00 0.  1.
          2    1    1    2  501    0  0.24794865484E+02 -0.11774134713E+01 -0.16961939304E+04  0.16963755543E+04  0.00000000000E+00 0.  1.
          2    1    1    2  502    0 -0.24794865484E+02  0.11774134713E+01  0.19630796502E+03  0.19787114188E+03  0.00000000000E+00 0. -1.
</event>
<event>
 4    1  0.9360795E+003  0.3381448E+02  0.7546771E-02  0.1389095E+00
          2   -1    0    0  501    0  0.00000000000E+00  0.00000000000E+00  0.22139634096E+01  0.22139634096E+01  0.00000000000E+00 0.  1.
          2   -1    0    0  502    0 -0.00000000000E+00 -0.00000000000E+00 -0.15899247464E+04  0.15899247464E+04  0.00000000000E+00 0.  1.
          2    1    1    2  501    0  0.14939347161E+02 -0.30335379472E+02 -0.14479745937E+04  0.14483693739E+04  0.00000000000E+00 0.  1.
          2    1    1    2  502    0 -0.14939347161E+02  0.30335379472E+02 -0.13973618926E+03  0.14376933585E+03  0.00000000000E+00 0.  1.
</event>
<event>
 4    1  0.9360795E+003  0.2940803E+02  0.7546771E-02  0.1424811E+00
          2   -1    0    0  501    0  0.00000000000E+00  0.00000000000E+00  0.94758364959E+01  0.94758364959E+01  0.00000000000E+00 0.  1.
          2   -1    0    0  502    0 -0.00000000000E+00 -0.00000000000E+00 -0.85326486623E+03  0.85326486623E+03  0.00000000000E+00 0.  1.
          2    1    1    2  501    0  0.24562604446E+02 -0.16171300516E+02 -0.82954240420E+03  0.83006351135E+03  0.00000000000E+00 0.  1.
          2    1    1    2  502    0 -0.24562604446E+02  0.16171300516E+02 -0.14246625534E+02  0.32677191382E+02  0.00000000000E+00 0.  1.
</event>
<event>
 4    1  0.9360795E+003  0.2609591E+02  0.7546771E-02  0.1456907E+00
          2   -1    0    0  502    0  0.00000000000E+00  0.00000000000E+00  0.76914709204E+03  0.76914709204E+03  0.00000000000E+00 0. -1.
          2   -1    0    0  501    0 -0.00000000000E+00 -0.00000000000E+00 -0.27494160082E+01  0.27494160082E+01  0.00000000000E+00 0. -1.
          2    1    1    2  501    0  0.24545748470E+02 -0.88601906214E+01  0.70098471563E+03  0.70147029039E+03  0.00000000000E+00 0. -1.
          2    1    1    2  502    0 -0.24545748470E+02  0.88601906214E+01  0.65412960397E+02  0.70426217659E+02  0.00000000000E+00 0. -1.
</event>
<event>
 4    1  0.9360795E+003  0.2531173E+02  0.7546771E-02  0.1465346E+00
          2   -1    0    0  501    0  0.00000000000E+00  0.00000000000E+00  0.12751820034E+02  0.12751820034E+02  0.00000000000E+00 0.  1.
          2   -1    0    0  502    0 -0.00000000000E+00 -0.00000000000E+00 -0.64572592590E+03  0.64572592590E+03  0.00000000000E+00 0.  1.
          2    1    1    2  501    0 -0.80444288297E+01  0.23999391672E+02 -0.63265790131E+03  0.63316404172E+03  0.00000000000E+00 0.  1.
          2    1    1    2  502    0  0.80444288297E+01 -0.23999391672E+02 -0.31620455679E+00  0.25313704216E+02  0.00000000000E+00 0.  1.
</event>
<event>
 4    1  0.9360795E+003  0.3886331E+02  0.7546771E-02  0.1355279E+00
          2   -1    0    0  501    0  0.00000000000E+00  0.00000000000E+00  0.26175906597E+03  0.26175906597E+03  0.00000000000E+00 0. -1.
          2   -1    0    0  502    0 -0.00000000000E+00 -0.00000000000E+00 -0.81725190142E+02  0.81725190142E+02  0.00000000000E+00 0.  1.
          2    1    1    2  501    0  0.38804246332E+02  0.21418168207E+01 -0.75551488101E+02  0.84961075010E+02  0.00000000000E+00 0.  1.
          2    1    1    2  502    0 -0.38804246332E+02 -0.21418168207E+01  0.25558536393E+03  0.25852318110E+03  0.00000000000E+00 0. -1.
</event>
<event>
 4    1  0.9360795E+003  0.2452217E+02  0.7546771E-02  0.1474220E+00
          2   -1    0    0  501    0  0.00000000000E+00  0.00000000000E+00  0.35255798645E+03  0.35255798645E+03  0.00000000000E+00 0. -1.
          2   -1    0    0  502    0 -0.00000000000E+00 -0.00000000000E+00 -0.22693175023E+02  0.22693175023E+02  0.00000000000E+00 0. -1.
          2    1    1    2  501    0  0.39790110225E+01 -0.24197199528E+02 -0.15504402174E+02  0.29012471120E+02  0.00000000000E+00 0. -1.
          2    1    1    2  502    0 -0.39790110225E+01  0.24197199528E+02  0.34536921360E+03  0.34623869036E+03  0.00000000000E+00 0. -1.
</event>
<event>
 4    1  0.9360795E+003  0.2465776E+02  0.7546771E-02  0.1472669E+00
          2   -1    0    0  502    0  0.00000000000E+00  0.00000000000E+00  0.57095275688E+03  0.57095275688E+03  0.00000000000E+00 0.  1.
          2   -1    0    0  501    0 -0.00000000000E+00 -0.00000000000E+00 -0.31744795733E+03  0.31744795733E+03  0.00000000000E+00 0.  1.
          2    1    1    2  501    0  0.22230983794E+02  0.10667167782E+02  0.57020708443E+03  0.57073997954E+03  0.00000000000E+00 0.  1.
          2    1    1    2  502    0 -0.22230983794E+02 -0.10667167782E+02 -0.31670228488E+03  0.31766073468E+03  0.00000000000E+00 0.  1.
</event>
<event>
 4    1  0.9360795E+003  0.3503188E+02  0.7546771E-02  0.1380339E+00
          2   -1    0    0  502    0  0.00000000000E+00  0.00000000000E+00  0.17852688136E+01  0.17852688136E+01  0.00000000000E+00 0. -1.
          2   -1    0    0  501    0 -0.00000000000E+00 -0.00000000000E+00 -0.10438197520E+04  0.10438197520E+04  0.00000000000E+00 0.  1.
          2    1    1    2  501    0  0.35396008126E+01 -0.34852602123E+02 -0.21553038700E+03  0.21835883396E+03  0.00000000000E+00 0. -1.
          2    1    1    2  502    0 -0.35396008126E+01  0.34852602123E+02 -0.82650409623E+03  0.82724618689E+03  0.00000000000E+00 0.  1.
</event>
<event>
 4    1  0.9360795E+003  0.3832072E+02  0.7546771E-02  0.1358618E+00
          2   -1    0    0  502    0  0.00000000000E+00  0.00000000000E+00  0.10628392726E+03  0.10628392726E+03  0.00000000000E+00 0. -1.
          2   -1    0    0  501    0 -0.00000000000E+00 -0.00000000000E+00 -0.11874857818E+03  0.11874857818E+03  0.00000000000E+00 0.  1.
          2    1    1    2  501    0  0.34465046758E+02  0.16752249902E+02  0.99535866818E+02  0.10665770534E+03  0.00000000000E+00 0. -1.
          2    1    1    2  502    0 -0.34465046758E+02 -0.16752249902E+02 -0.11200051774E+03  0.11837480010E+03  0.00000000000E+00 0.  1.
</event>
<event>
 4    1  0.9360795E+003  0.3004496E+02  0.7546771E-02  0.1419206E+00
          2   -1    0    0  502    0  0.00000000000E+00  0.00000000000E+00  0.69285581307E+03  0.69285581307E+03  0.00000000000E+00 0.  1.
          2   -1    0    0  501    0 -0.00000000000E+00 -0.00000000000E+00 -0.17297604125E+02  0.17297604125E+02  0.00000000000E+00 0.  1.
          2    1    1    2  501    0  0.29763801026E+02 -0.41007261644E+01  0.67922173673E+03  0.67988592238E+03  0.00000000000E+00 0.  1.
          2    1    1    2  502    0 -0.29763801026E+02  0.41007261644E+01 -0.36635277832E+01  0.30267494816E+02  0.00000000000E+00 0.  1.
</event>
<event>
 4    1  0.9360795E+003  0.2166223E+02  0.7546771E-02  0.1510016E+00
          2   -1    0    0  501    0  0.00000000000E+00  0.00000000000E+00  0.29131340181E+03  0.29131340181E+03  0.00000000000E+00 0.  1.
          2   -1    0    0  502    0 -0.00000000000E+00 -0.00000000000E+00 -0.18363476919E+03  0.18363476919E+03  0.00000000000E+00 0. -1.
          2    1    1    2  501    0 -0.95264285280E+00  0.21641268871E+02 -0.18259093249E+03  0.18387142430E+03  0.00000000000E+00 0. -1.
          2    1    1    2  502    0  0.95264285280E+00 -0.21641268871E+02  0.29026956510E+03  0.29107674670E+03  0.00000000000E+00 0.  1.
</event>
<event>
 4    1  0.9360795E+003  0.2604599E+02  0.7546771E-02  0.1457434E+00
          2   -1    0    0  501    0  0.00000000000E+00  0.00000000000E+00  0.32486238637E+03  0.32486238637E+03  0.00000000000E+00 0. -1.
          2   -1    0    0  502    0 -0.00000000000E+00 -0.00000000000E+00 -0.12483462846E+02  0.12483462846E+02  0.00000000000E+00 0.  1.
          2    1    1    2  501    0  0.16646414534E+02  0.20032237424E+02  0.22696419724E+01  0.26144692152E+02  0.00000000000E+00 0.  1.
          2    1    1    2  502    0 -0.16646414534E+02 -0.20032237424E+02  0.31010928155E+03  0.31120115706E+03  0.00000000000E+00 0. -1.
</event>
<event>
 4    1  0.9360795E+003  0.2016452E+02  0.7546771E-02  0.1531535E+00
          2   -1    0    0  501    0  0.00000000000E+00  0.00000000000E+00  0.98805478541E+03  0.98805478541E+03  0.00000000000E+00 0. -1.
          2   -1    0    0  502    0 -0.00000000000E+00 -0.00000000000E+00 -0.57642328463E+00  0.57642328463E+00  0.00000000000E+00 0.  1.
          2    1    1    2  501    0 -0.77948500989E+01 -0.18596994304E+02  0.22935014321E+03  0.23023487155E+03  0.00000000000E+00 0.  1.
          2    1    1    2  502    0  0.77948500989E+01  0.18596994304E+02  0.75812821891E+03  0.75839633715E+03  0.00000000000E+00 0. -1.
</event>
<event>
 4    1  0.9360795E+003  0.2119126E+02  0.7546771E-02  0.1516552E+00
          2   -1    0    0  501    0  0.00000000000E+00  0.00000000000E+00  0.15124272608E+04  0.15124272608E+04  0.00000000000E+00 0.  1.
          2   -1    0    0  502    0 -0.00000000000E+00 -0.00000000000E+00 -0.38407445258E+03  0.38407445258E+03  0.00000000000E+00 0. -1.
          2    1    1    2  501    0 -0.57478659272E+01 -0.20396855607E+02 -0.38370784534E+03  0.38429257118E+03  0.00000000000E+00 0. -1.
          2    1    1    2  502    0  0.57478659272E+01  0.20396855607E+02  0.15120606536E+04  0.15122091422E+04  0.00000000000E+00 0.  1.
</event>
<event>
 4    1  0.9360795E+003  0.7215112E+02  0.7546771E-02  0.1223344E+00
          2   -1    0    0  501    0  0.00000000000E+00  0.00000000000E+00  0.77448298149E+03  0.77448298149E+03  0.00000000000E+00 0. -1.
          2   -1    0    0  502    0 -0.00000000000E+00 -0.00000000000E+00 -0.26622191166E+03  0.26622191166E+03  0.00000000000E+00 0.  1.
          2    1    1    2  501    0 -0.29205501022E+02 -0.65975922558E+02 -0.25961093450E+03  0.26945059094E+03  0.00000000000E+00 0.  1.
          2    1    1    2  502    0  0.29205501022E+02  0.65975922558E+02  0.76787200433E+03  0.77125430221E+03  0.00000000000E+00 0. -1.
</event>
<event>
 4    1  0.9360795E+003  0.4311883E+02  0.7546771E-02  0.1331119E+00
          2   -1    0    0  501    0  0.00000000000E+00  0.00000000000E+00  0.63898990546E+01  0.63898990546E+01  0.00000000000E+00 0.  1.
          2   -1    0    0  502    0 -0.00000000000E+00 -0.00000000000E+00 -0.33491509396E+03  0.33491509396E+03  0.00000000000E+00 0. -1.
          2    1    1    2  501    0 -0.15698617152E+02 -0.40159519574E+02 -0.22608242758E+03  0.23015754963E+03  0.00000000000E+00 0. -1.
          2    1    1    2  502    0  0.15698617152E+02  0.40159519574E+02 -0.10244276733E+03  0.11114744339E+03  0.00000000000E+00 0.  1.
</event>
<event>
 4    1  0.9360795E+003  0.2549485E+02  0.7546771E-02  0.1463343E+00
          2   -1    0    0  501    0  0.00000000000E+00  0.00000000000E+00  0.75188970951E+00  0.75188970951E+00  0.00000000000E+00 0.  1.
          2   -1    0    0  502    0 -0.00000000000E+00 -0.00000000000E+00 -0.95181371966E+03  0.95181371966E+03  0.00000000000E+00 0.  1.
          2    1    1    2  501    0 -0.14052120863E+02 -0.21272639604E+02 -0.61980914241E+03  0.62033326552E+03  0.00000000000E+00 0.  1.
          2    1    1    2  502    0  0.14052120863E+02  0.21272639604E+02 -0.33125268754E+03  0.33223234385E+03  0.00000000000E+00 0.  1.
</event>
<event>
 4    1  0.9360795E+003  0.2284161E+02  0.7546771E-02  0.1494497E+00
          2   -1    0    0  502    0  0.00000000000E+00  0.00000000000E+00  0.13733977041E+01  0.13733977041E+01  0.00000000000E+00 0. -1.
          2   -1    0    0  501    0 -0.00000000000E+00 -0.00000000000E+00 -0.67363842336E+03  0.67363842336E+03  0.00000000000E+00 0. -1.
          2    1    1    2  501    0  0.22406270977E+02  0.44382702038E+01 -0.11326017043E+03  0.11554049259E+03  0.00000000000E+00 0. -1.
          2    1    1    2  502    0 -0.22406270977E+02 -0.44382702038E+01 -0.55900485523E+03  0.55947132848E+03  0.00000000000E+00 0. -1.
</event>
<event>
 4    1  0.9360795E+003  0.2277944E+02  0.7546771E-02  0.1495286E+00
          2   -1    0    0  501    0  0.00000000000E+00  0.00000000000E+00  0.16999654800E+03  0.16999654800E+03  0.00000000000E+00 0.  1.
          2   -1    0    0  502    0 -0.00000000000E+00 -0.00000000000E+00 -0.55361837468E+03  0.55361837468E+03  0.00000000000E+00 0.  1.
          2    1    1    2  501    0  0.14578765413E+02  0.17503210408E+02 -0.55261956489E+03  0.55308885929E+03  0.00000000000E+00 0.  1.
          2    1    1    2  502    0 -0.14578765413E+02 -0.17503210408E+02  0.16899773821E+03  0.17052606339E+03  0.00000000000E+00 0.  1.
</event>
<event>
 4    1  0.9360795E+003  0.3159319E+02  0.7546771E-02  0.1406239E+00
          2   -1    0    0  502    0  0.00000000000E+00  0.00000000000E+00  0.17911266802E+01  0.17911266802E+01  0.00000000000E+00 0. -1.
          2   -1    0    0  501    0 -0.00000000000E+00 -0.00000000000E+00 -0.69028655527E+03  0.69028655527E+03  0.00000000000E+00 0.  1.
          2    1    1    2  501    0 -0.17039875758E+02  0.26603995996E+02 -0.19234232078E+03  0.19491972279E+03  0.00000000000E+00 0. -1.
          2    1    1    2  502    0  0.17039875758E+02 -0.26603995996E+02 -0.49615310780E+03  0.49715795916E+03  0.00000000000E+00 0.  1.
</event>
<event>
 4    1  0.9360795E+003  0.2173471E+02  0.7546771E-02  0.1509028E+00
          2   -1    0    0  502    0  0.00000000000E+00  0.00000000000E+00  0.15967303324E+03  0.15967303324E+03  0.00000000000E+00 0. -1.
          2   -1    0    0  501    0 -0.00000000000E+00 -0.00000000000E+00 -0.85532878824E+01  0.85532878824E+01  0.00000000000E+00 0.  1.
          2    1    1    2  501    0  0.13104259783E+02  0.17340012331E+02  0.14358792055E+03  0.14522358135E+03  0.00000000000E+00 0. -1.
          2    1    1    2  502    0 -0.13104259783E+02 -0.17340012331E+02  0.75318248078E+01  0.23002739773E+02  0.00000000000E+00 0.  1.
</event>
<event>
 4    1  0.9360795E+003  0.2589570E+02  0.7546771E-02  0.1459028E+00
          2   -1    0    0  501    0  0.00000000000E+00  0.00000000000E+00  0.29520522323E+02  0.29520522323E+02  0.00000000000E+00 0. -1.
          2   -1    0    0  502    0 -0.00000000000E+00 -0.00000000000E+00 -0.20850813002E+03  0.20850813002E+03  0.00000000000E+00 0. -1.
          2    1    1    2  501    0 -0.45833763261E+00 -0.25891643154E+02 -0.20183820639E+03  0.20349262595E+03  0.00000000000E+00 0. -1.
          2    1    1    2  502    0  0.45833763261E+00  0.25891643154E+02  0.22850598689E+02  0.34536026393E+02  0.00000000000E+00 0. -1.
</event>
<event>
 4    1  0.9360795E+003  0.3238983E+02  0.7546771E-02  0.1399905E+00
          2   -1    0    0  502    0  0.00000000000E+00  0.00000000000E+00  0.18861585237E+03  0.18861585237E+03  0.00000000000E+00 0.  1.
          2   -1    0    0  501    0 -0.00000000000E+00 -0.00000000000E+00 -0.57721025303E+02  0.57721025303E+02  0.00000000000E+00 0. -1.
          2    1    1    2  501    0  0.26176149803E+02 -0.19076429229E+02  0.18253118929E+03  0.18538267458E+03  0.00000000000E+00 0.  1.
          2    1    1    2  502    0 -0.26176149803E+02  0.19076429229E+02 -0.51636362225E+02  0.60954203091E+02  0.00000000000E+00 0. -1.
</event>
<event>
 4    1  0.9360795E+003  0.2152847E+02  0.7546771E-02  0.1511852E+00
          2   -1    0    0  501    0  0.00000000000E+00  0.00000000000E+00  0.67951796987E+02  0.67951796987E+02  0.00000000000E+00 0.  1.
          2   -1    0    0  502    0 -0.00000000000E+00 -0.00000000000E+00 -0.83587746236E+02  0.83587746236E+02  0.00000000000E+00 0. -1.
          2    1    1    2  501    0 -0.21116880935E+02 -0.41895695527E+01 -0.80430616558E+02  0.83261991529E+02  0.00000000000E+00 0. -1.
          2    1    1    2  502    0  0.21116880935E+02  0.41895695527E+01  0.64794667310E+02  0.68277551694E+02  0.00000000000E+00 0.  1.
</event>
<event>
 4    1  0.9360795E+003  0.2728547E+02  0.7546771E-02  0.1444761E+00
          2   -1    0    0  501    0  0.00000000000E+00  0.00000000000E+00  0.33777379235E+01  0.33777379235E+01  0.00000000000E+00 0. -1.
          2   -1    0    0  502    0 -0.00000000000E+00 -0.00000000000E+00 -0.12281662678E+04  0.12281662678E+04  0.00000000000E+00 0. -1.
          2    1    1    2  501    0  0.20640438057E+02 -0.17845705606E+02 -0.11701813998E+04  0.11704994684E+04  0.00000000000E+00 0. -1.
          2    1    1    2  502    0 -0.20640438057E+02  0.17845705606E+02 -0.54607130058E+02  0.61044537389E+02  0.00000000000E+00 0. -1.
</event>
<event>
 4    1  0.9360795E+003  0.2408760E+02  0.7546771E-02  0.1479275E+00
          2   -1    0    0  502    0  0.00000000000E+00  0.00000000000E+00  0.52369609389E+00  0.52369609389E+00  0.00000000000E+00 0.  1.
          2   -1    0    0  501    0 -0.00000000000E+00 -0.00000000000E+00 -0.13852331550E+04  0.13852331550E+04  0.00000000000E+00 0.  1.
          2    1    1    2  501    0 -0.24078337098E+02  0.66783034935E+00 -0.38233993252E+03  0.38309794611E+03  0.00000000000E+00 0.  1.
          2    1    1    2  502    0  0.24078337098E+02 -0.66783034935E+00 -0.10023695264E+04  0.10026589050E+04  0.00000000000E+00 0.  1.
</event>
<event>
 4    1  0.9360795E+003  0.3961064E+02  0.7546771E-02  0.1350783E+00
          2   -1    0    0  502    0  0.00000000000E+00  0.00000000000E+00  0.14905579097E+02  0.14905579097E+02  0.00000000000E+00 0.  1.
          2   -1    0    0  501    0 -0.00000000000E+00 -0.00000000000E+00 -0.37732475573E+03  0.37732475573E+03  0.00000000000E+00 0.  1.
          2    1    1    2  501    0  0.69956501617E+01  0.38987991062E+02 -0.14681512581E+02  0.42243927137E+02  0.00000000000E+00 0.  1.
          2    1    1    2  502    0 -0.69956501617E+01 -0.38987991062E+02 -0.34773766405E+03  0.34998640769E+03  0.00000000000E+00 0.  1.
</event>
<event>
 4    1  0.9360795E+003  0.2852780E+02  0.7546771E-02  0.1432837E+00
          2   -1    0    0  502    0  0.00000000000E+00  0.00000000000E+00  0.26138684267E+01  0.26138684267E+01  0.00000000000E+00 0. -1.
          2   -1    0    0  501    0 -0.00000000000E+00 -0.00000000000E+00 -0.83833595984E+03  0.83833595984E+03  0.00000000000E+00 0.  1.
          2    1    1    2  501    0  0.19433539468E+02 -0.20884749024E+02 -0.84488815634E+02  0.89175081527E+02  0.00000000000E+00 0. -1.
          2    1    1    2  502    0 -0.19433539468E+02  0.20884749024E+02 -0.75123327578E+03  0.75177474674E+03  0.00000000000E+00 0.  1.
</event>
<event>
 4    1  0.9360795E+003  0.4592938E+02  0.7546771E-02  0.1316856E+00
          2   -1    0    0  501    0  0.00000000000E+00  0.00000000000E+00  0.33405571743E+02  0.33405571743E+02  0.00000000000E+00 0. -1.
          2   -1    0    0  502    0 -0.00000000000E+00 -0.00000000000E+00 -0.45611198583E+03  0.45611198583E+03  0.00000000000E+00 0. -1.
          2    1    1    2  501    0  0.38332578965E+02 -0.25300614954E+02 -0.43853770852E+03  0.44093631005E+03  0.00000000000E+00 0. -1.
          2    1    1    2  502    0 -0.38332578965E+02  0.25300614954E+02  0.15831294435E+02  0.48581247520E+02  0.00000000000E+00 0. -1.
</event>
<event>
 4    1  0.9360795E+003  0.3249300E+02  0.7546771E-02  0.1399100E+00
          2   -1    0    0  501    0  0.00000000000E+00  0.00000000000E+00  0.16399357569E+03  0.16399357569E+03  0.00000000000E+00 0.  1.
          2   -1    0    0  502    0 -0.00000000000E+00 -0.00000000000E+00 -0.20930882205E+02  0.20930882205E+02  0.00000000000E+00 0.  1.
          2    1    1    2  501    0 -0.28938478706E+02 -0.14776992267E+02 -0.54078362124E+01  0.32939941450E+02  0.00000000000E+00 0.  1.
          2    1    1    2  502    0  0.28938478706E+02  0.14776992267E+02  0.14847052969E+03  0.15198451644E+03  0.00000000000E+00 0.  1.
</event>
<event>
 4    1  0.9360795E+003  0.2203224E+02  0.7546771E-02  0.1505022E+00
          2   -1    0    0  502    0  0.00000000000E+00  0.00000000000E+00  0.87147791916E+00  0.87147791916E+00  0.00000000000E+00 0.  1.
          2   -1    0    0  501    0 -0.00000000000E+00 -0.00000000000E+00 -0.81025244594E+03  0.81025244594E+03  0.00000000000E+00 0. -1.
          2    1    1    2  501    0 -0.20560754533E+02  0.79167442690E+01 -0.17795593613E+03  0.17931462481E+03  0.00000000000E+00 0.  1.
          2    1    1    2  502    0  0.20560754533E+02 -0.79167442690E+01 -0.63142503190E+03  0.63180929905E+03  0.00000000000E+00 0. -1.
</event>
<event>
 4    1  0.9360795E+003  0.2265574E+02  0.7546771E-02  0.1496867E+00
          2   -1    0    0  502    0  0.00000000000E+00  0.00000000000E+00  0.41300986948E+01  0.41300986948E+01  0.00000000000E+00 0.  1.
          2   -1    0    0  501    0 -0.00000000000E+00 -0.00000000000E+00 -0.42047919931E+03  0.42047919931E+03  0.00000000000E+00 0. -1.
          2    1    1    2  501    0 -0.15147284270E+02 -0.16847624909E+02 -0.29985814095E+02  0.37582332721E+02  0.00000000000E+00 0.  1.
          2    1    1    2  502    0  0.15147284270E+02  0.16847624909E+02 -0.38636328652E+03  0.38702696528E+03  0.00000000000E+00 0. -1.
</event>
<event>
 4    1  0.9360795E+003  0.2325106E+02  0.7546771E-02  0.1489369E+00
          2   -1    0    0  502    0  0.00000000000E+00  0.00000000000E+00  0.12312587354E+01  0.12312587354E+01  0.00000000000E+00 0. -1.
          2   -1    0    0  501    0 -0.00000000000E+00 -0.00000000000E+00 -0.11421152697E+04  0.11421152697E+04  0.00000000000E+00 0.  1.
          2    1    1    2  501    0 -0.64642160982E+01  0.22334403912E+02 -0.12191992615E+03  0.12411720300E+03  0.00000000000E+00 0. -1.
          2    1    1    2  502    0  0.64642160982E+01 -0.22334403912E+02 -0.10189640848E+04  0.10192293254E+04  0.00000000000E+00 0.  1.
</event>
<event>
 4    1  0.9360795E+003  0.2504216E+02  0.7546771E-02  0.1468332E+00
          2   -1    0    0  502    0  0.00000000000E+00  0.00000000000E+00  0.48285919998E+01  0.48285919998E+01  0.00000000000E+00 0.  1.
          2   -1    0    0  501    0 -0.00000000000E+00 -0.00000000000E+00 -0.38760339773E+03  0.38760339773E+03  0.00000000000E+00 0. -1.
          2    1    1    2  501    0  0.17525107310E+02  0.17887998336E+02 -0.31386523600E+02  0.40152505955E+02  0.00000000000E+00 0.  1.
          2    1    1    2  502    0 -0.17525107310E+02 -0.17887998336E+02 -0.35138828213E+03  0.35227948377E+03  0.00000000000E+00 0. -1.
</event>
<event>
 4    1  0.9360795E+003  0.2895819E+02  0.7546771E-02  0.1428871E+00
          2   -1    0    0  502    0  0.00000000000E+00  0.00000000000E+00  0.13189292357E+03  0.13189292357E+03  0.00000000000E+00 0. -1.
          2   -1    0    0  501    0 -0.00000000000E+00 -0.00000000000E+00 -0.32333697779E+03  0.32333697779E+03  0.00000000000E+00 0. -1.
          2    1    1    2  501    0  0.28067282374E+02  0.71277351445E+01  0.12964393256E+03  0.13283872250E+03  0.00000000000E+00 0. -1.
          2    1    1    2  502    0 -0.28067282374E+02 -0.71277351445E+01 -0.32108798678E+03  0.32239117885E+03  0.00000000000E+00 0. -1.
</event>
<event>
 4    1  0.9360795E+003  0.2335005E+02  0.7546771E-02  0.1488149E+00
          2   -1    0    0  501    0  0.00000000000E+00  0.00000000000E+00  0.15097419818E+02  0.15097419818E+02  0.00000000000E+00 0.  1.
          2   -1    0    0  502    0 -0.00000000000E+00 -0.00000000000E+00 -0.16150355157E+03  0.16150355157E+03  0.00000000000E+00 0. -1.
          2    1    1    2  501    0 -0.18465502459E+02 -0.14291615978E+02 -0.15100727452E+03  0.15280190453E+03  0.00000000000E+00 0. -1.
          2    1    1    2  502    0  0.18465502459E+02  0.14291615978E+02  0.46011427756E+01  0.23799066855E+02  0.00000000000E+00 0.  1.
</event>
<event>
 4    1  0.9360795E+003  0.2963093E+02  0.7546771E-02  0.1422831E+00
          2   -1    0    0  501    0  0.00000000000E+00  0.00000000000E+00  0.44170390026E+02  0.44170390026E+02  0.00000000000E+00 0. -1.
          2   -1    0    0  502    0 -0.00000000000E+00 -0.00000000000E+00 -0.48551681781E+03  0.48551681781E+03  0.00000000000E+00 0. -1.
          2    1    1    2  501    0 -0.21492217973E+02 -0.20397961218E+02 -0.48003872249E+03  0.48095235455E+03  0.00000000000E+00 0. -1.
          2    1    1    2  502    0  0.21492217973E+02  0.20397961218E+02  0.38692294707E+02  0.48734853287E+02  0.00000000000E+00 0. -1.
</event>
<event>
 4    1  0.9360795E+003  0.2554216E+02  0.7546771E-02  0.1462829E+00
          2   -1    0    0  501    0  0.00000000000E+00  0.00000000000E+00  0.11657724725E+02  0.11657724725E+02  0.00000000000E+00 0. -1.
          2   -1    0    0  502    0 -0.00000000000E+00 -0.00000000000E+00 -0.34709104083E+03  0.34709104083E+03  0.00000000000E+00 0. -1.
          2    1    1    2  501    0 -0.23439018564E+02  0.10149598290E+02 -0.33199514442E+03  0.33297624218E+03  0.00000000000E+00 0. -1.
          2    1    1    2  502    0  0.23439018564E+02 -0.10149598290E+02 -0.34381716856E+01  0.25772523377E+02  0.00000000000E+00 0. -1.
</event>
<event>
 4    1  0.9360795E+003  0.2173788E+02  0.7546771E-02  0.1508985E+00
          2   -1    0    0  501    0  0.00000000000E+00  0.00000000000E+00  0.59629227950E+03  0.59629227950E+03  0.00000000000E+00 0.  1.
          2   -1    0    0  502    0 -0.00000000000E+00 -0.00000000000E+00 -0.67890262960E+01  0.67890262960E+01  0.00000000000E+00 0.  1.
          2    1    1    2  501    0 -0.11031000966E+02  0.18731054523E+02  0.11355708540E+02  0.24525242146E+02  0.00000000000E+00 0.  1.
          2    1    1    2  502    0  0.11031000966E+02 -0.18731054523E+02  0.57814754466E+03  0.57855606365E+03  0.00000000000E+00 0.  1.
</event>
<event>
 4    1  0.9360795E+003  0.2609345E+02  0.7546771E-02  0.1456933E+00
          2   -1    0    0  502    0  0.00000000000E+00  0.00000000000E+00  0.61614578366E+02  0.61614578366E+02  0.00000000000E+00 0. -1.
          2   -1    0    0  501    0 -0.00000000000E+00 -0.00000000000E+00 -0.17505967497E+03  0.17505967497E+03  0.00000000000E+00 0.  1.
          2    1    1    2  501    0  0.25712499351E+02 -0.44424697156E+01  0.57818753157E+02  0.63434031692E+02  0.00000000000E+00 0. -1.
          2    1    1    2  502    0 -0.25712499351E+02  0.44424697156E+01 -0.17126384976E+03  0.17324022165E+03  0.00000000000E+00 0.  1.
</event>
<event>
 4    1  0.9360795E+003  0.2422041E+02  0.7546771E-02  0.1477717E+00
          2   -1    0    0  502    0  0.00000000000E+00  0.00000000000E+00  0.62496557752E+02  0.62496557752E+02  0.00000000000E+00 0.  1.
          2   -1    0    0  501    0 -0.00000000000E+00 -0.00000000000E+00 -0.28321629965E+02  0.28321629965E+02  0.00000000000E+00 0. -1.
          2    1    1    2  501    0  0.22667420360E+02  0.85332580317E+01  0.54216787110E+02  0.59380876071E+02  0.00000000000E+00 0.  1.
          2    1    1    2  502    0 -0.22667420360E+02 -0.85332580317E+01 -0.20041859322E+02  0.31437311646E+02  0.00000000000E+00 0. -1.
</event>
<event>
 4    1  0.9360795E+003  0.4470710E+02  0.7546771E-02  0.1322911E+00
          2   -1    0    0  502    0  0.00000000000E+00  0.00000000000E+00  0.19100368080E+03  0.19100368080E+03  0.00000000000E+00 0. -1.
          2   -1    0    0  501    0 -0.00000000000E+00 -0.00000000000E+00 -0.11747084417E+03  0.11747084417E+03  0.00000000000E+00 0.  1.
          2    1    1    2  501    0 -0.44643842037E+02 -0.23774521741E+01  0.18397372902E+03  0.18932791099E+03  0.00000000000E+00 0. -1.
          2    1    1    2  502    0  0.44643842037E+02  0.23774521741E+01 -0.11044089239E+03  0.11914661398E+03  0.00000000000E+00 0.  1.
</event>
<event>
 4    1  0.9360795E+003  0.2073803E+02  0.7546771E-02  0.1523038E+00
          2   -1    0    0  502    0  0.00000000000E+00  0.00000000000E+00  0.11121657493E+03  0.11121657493E+03  0.00000000000E+00 0. -1.
          2   -1    0    0  501    0 -0.00000000000E+00 -0.00000000000E+00 -0.13728188971E+03  0.13728188971E+03  0.00000000000E+00 0. -1.
          2    1    1    2  501    0 -0.84396195077E+01 -0.18943038446E+02  0.10945416456E+03  0.11140143636E+03  0.00000000000E+00 0. -1.
          2    1    1    2  502    0  0.84396195077E+01  0.18943038446E+02 -0.13551947934E+03  0.13709702828E+03  0.00000000000E+00 0. -1.
</event>
<event>
 4    1  0.9360795E+003  0.5595740E+02  0.7546771E-02  0.1274223E+00
          2   -1    0    0  501    0  0.00000000000E+00  0.00000000000E+00  0.10172112629E+03  0.10172112629E+03  0.00000000000E+00 0. -1.
          2   -1    0    0  502    0 -0.00000000000E+00 -0.00000000000E+00 -0.11386867388E+03  0.11386867388E+03  0.00000000000E+00 0. -1.
          2    1    1    2  501    0  0.42846088735E+02  0.35992264274E+02 -0.98152746873E+02  0.11298314974E+03  0.00000000000E+00 0. -1.
          2    1    1    2  502    0 -0.42846088735E+02 -0.35992264274E+02  0.86005199281E+02  0.10260665042E+03  0.00000000000E+00 0. -1.
</event>
<event>
 4    1  0.1039417E+004  0.2112651E+02  0.7546771E-02  0.1517466E+00
          2   -1    0    0  502    0  0.00000000000E+00  0.00000000000E+00  0.50437059983E+03  0.50437059983E+03  0.00000000000E+00 0. -1.
          2   -1    0    0  501    0 -0.00000000000E+00 -0.00000000000E+00 -0.14030058503E+04  0.14030058503E+04  0.00000000000E+00 0. -1.
          2    1    1    2  501    0  0.20151213966E+02  0.63449241363E+01  0.50406979053E+03  0.50451232216E+03  0.00000000000E+00 0. -1.
          2    1    1    2  502    0 -0.20151213966E+02 -0.63449241363E+01 -0.14027050410E+04  0.14028641279E+04  0.00000000000E+00 0. -1.
</event>
<event>
 4    1  0.9360795E+003  0.2866337E+02  0.7546771E-02  0.1431579E+00
          2   -1    0    0  502    0  0.00000000000E+00  0.00000000000E+00  0.51380970712E+01  0.51380970712E+01  0.00000000000E+00 0.  1.
          2   -1    0    0  501    0 -0.00000000000E+00 -0.00000000000E+00 -0.59522312122E+03  0.59522312122E+03  0.00000000000E+00 0. -1.
          2    1    1    2  501    0  0.22118117692E+02  0.18231219698E+02 -0.38329461787E+02  0.47861635396E+02  0.00000000000E+00 0.  1.
          2    1    1    2  502    0 -0.22118117692E+02 -0.18231219698E+02 -0.55175556236E+03  0.55249958290E+03  0.00000000000E+00 0. -1.
</event>
<event>
 4    1  0.9360795E+003  0.6166293E+02  0.7546771E-02  0.1254285E+00
          2   -1    0    0  502    0  0.00000000000E+00  0.00000000000E+00  0.32639724280E+03  0.32639724280E+03  0.00000000000E+00 0.  1.
          2   -1    0    0  501    0 -0.00000000000E+00 -0.00000000000E+00 -0.92158657515E+02  0.92158657515E+02  0.00000000000E+00 0. -1.
          2    1    1    2  501    0  0.52847384834E+02 -0.31772173795E+02  0.31272361035E+03  0.31874499774E+03  0.00000000000E+00 0.  1.
          2    1    1    2  502    0 -0.52847384834E+02  0.31772173795E+02 -0.78485025073E+02  0.99810902572E+02  0.00000000000E+00 0. -1.
</event>
<event>
 4    1  0.9360795E+003  0.8467859E+02  0.7546771E-02  0.1193383E+00
          2   -1    0    0  501    0  0.00000000000E+00  0.00000000000E+00  0.82117855083E+03  0.82117855083E+03  0.00000000000E+00 0.  1.
          2   -1    0    0  502    0 -0.00000000000E+00 -0.00000000000E+00 -0.55934971179E+02  0.55934971179E+02  0.00000000000E+00 0.  1.
          2    1    1    2  501    0 -0.59797037542E+02 -0.59956470984E+02 -0.20252121277E+02  0.87066713087E+02  0.00000000000E+00 0.  1.
          2    1    1    2  502    0  0.59797037542E+02  0.59956470984E+02  0.78549570093E+03  0.79004680892E+03  0.00000000000E+00 0.  1.
</event>
<event>
 4    1  0.9360795E+003  0.2673563E+02  0.7546771E-02  0.1450282E+00
          2   -1    0    0  502    0  0.00000000000E+00  0.00000000000E+00  0.14905993648E+04  0.14905993648E+04  0.00000000000E+00 0. -1.
          2   -1    0    0  501    0 -0.00000000000E+00 -0.00000000000E+00 -0.70011248821E+02  0.70011248821E+02  0.00000000000E+00 0. -1.
          2    1    1    2  501    0  0.17864155955E+02  0.19891357393E+02  0.14879224633E+04  0.14881626427E+04  0.00000000000E+00 0. -1.
          2    1    1    2  502    0 -0.17864155955E+02 -0.19891357393E+02 -0.67334347331E+02  0.72447970968E+02  0.00000000000E+00 0. -1.
</event>
<event>
 4    1  0.9466895E+003  0.2544180E+02  0.7546771E-02  0.1463921E+00
          2   -1    0    0  501    0  0.00000000000E+00  0.00000000000E+00  0.71293662116E+03  0.71293662116E+03  0.00000000000E+00 0.  1.
          2   -1    0    0  502    0 -0.00000000000E+00 -0.00000000000E+00 -0.37407639883E+03  0.37407639883E+03  0.00000000000E+00 0. -1.
          2    1    1    2  501    0 -0.15321984382E+02  0.20310630989E+02 -0.37341643098E+03  0.37428213404E+03  0.00000000000E+00 0. -1.
          2    1    1    2  502    0  0.15321984382E+02 -0.20310630989E+02  0.71227665331E+03  0.71273088595E+03  0.00000000000E+00 0.  1.
</event>
<event>
 4    1  0.9360795E+003  0.2538217E+02  0.7546771E-02  0.1464573E+00
          2   -1    0    0  502    0  0.00000000000E+00  0.00000000000E+00  0.18777746161E+04  0.18777746161E+04  0.00000000000E+00 0.  1.
          2   -1    0    0  501    0 -0.00000000000E+00 -0.00000000000E+00 -0.52231004188E+02  0.52231004188E+02  0.00000000000E+00 0.  1.
          2    1    1    2  501    0  0.14245272005E+02  0.21007783674E+02  0.18745999407E+04  0.18747717707E+04  0.00000000000E+00 0.  1.
          2    1    1    2  502    0 -0.14245272005E+02 -0.21007783674E+02 -0.49056328743E+02  0.55233849578E+02  0.00000000000E+00 0.  1.
</event>
<event>
 4    1  0.9360795E+003  0.2456286E+02  0.7546771E-02  0.1473753E+00
          2   -1    0    0  502    0  0.00000000000E+00  0.00000000000E+00  0.10711030483E+04  0.10711030483E+04  0.00000000000E+00 0.  1.
          2   -1    0    0  501    0 -0.00000000000E+00 -0.00000000000E+00 -0.14942859316E+01  0.14942859316E+01  0.00000000000E+00 0. -1.
          2    1    1    2  501    0  0.21164883450E+02 -0.12465217824E+02  0.95812110831E+03  0.95843590925E+03  0.00000000000E+00 0.  1.
          2    1    1    2  502    0 -0.21164883450E+02  0.12465217824E+02  0.11148765406E+03  0.11416142498E+03  0.00000000000E+00 0. -1.
</event>
<event>
 4    1  0.9360795E+003  0.3560575E+02  0.7546771E-02  0.1376354E+00
          2   -1    0    0  502    0  0.00000000000E+00  0.00000000000E+00  0.19704394680E+03  0.19704394680E+03  0.00000000000E+00 0.  1.
          2   -1    0    0  501    0 -0.00000000000E+00 -0.00000000000E+00 -0.46601970390E+03  0.46601970390E+03  0.00000000000E+00 0. -1.
          2    1    1    2  501    0  0.33772379853E+02  0.11278109442E+02  0.19474740201E+03  0.19797555400E+03  0.00000000000E+00 0.  1.
          2    1    1    2  502    0 -0.33772379853E+02 -0.11278109442E+02 -0.46372315911E+03  0.46508809669E+03  0.00000000000E+00 0. -1.
</event>
<event>
 4    1  0.9360795E+003  0.2108356E+02  0.7546771E-02  0.1518075E+00
          2   -1    0    0  501    0  0.00000000000E+00  0.00000000000E+00  0.23583365545E+03  0.23583365545E+03  0.00000000000E+00 0.  1.
          2   -1    0    0  502    0 -0.00000000000E+00 -0.00000000000E+00 -0.18984382454E+02  0.18984382454E+02  0.00000000000E+00 0. -1.
          2    1    1    2  501    0  0.24913460057E+01 -0.20935850894E+02 -0.12494141959E+02  0.24507554772E+02  0.00000000000E+00 0. -1.
          2    1    1    2  502    0 -0.24913460057E+01  0.20935850894E+02  0.22934341495E+03  0.23031048313E+03  0.00000000000E+00 0.  1.
</event>
<event>
 4    1  0.9360795E+003  0.2061818E+02  0.7546771E-02  0.1524787E+00
          2   -1    0    0  502    0  0.00000000000E+00  0.00000000000E+00  0.16834605306E+01  0.16834605306E+01  0.00000000000E+00 0. -1.
          2   -1    0    0  501    0 -0.00000000000E+00 -0.00000000000E+00 -0.15189097556E+04  0.15189097556E+04  0.00000000000E+00 0.  1.
          2    1    1    2  501    0 -0.14287239446E+02 -0.14865530089E+02 -0.64387612204E+02  0.67608237673E+02  0.00000000000E+00 0. -1.
          2    1    1    2  502    0  0.14287239446E+02  0.14865530089E+02 -0.14528386829E+04  0.14529849785E+04  0.00000000000E+00 0.  1.
</event>
<event>
 4    1  0.9360795E+003  0.2481542E+02  0.7546771E-02  0.1470879E+00
          2   -1    0    0  502    0  0.00000000000E+00  0.00000000000E+00  0.36477567427E+02  0.36477567427E+02  0.00000000000E+00 0. -1.
          2   -1    0    0  501    0 -0.00000000000E+00 -0.00000000000E+00 -0.19206880719E+03  0.19206880719E+03  0.00000000000E+00 0. -1.
          2    1    1    2  501    0  0.19736022798E+01  0.24736813386E+02  0.31340104252E+02  0.39975081951E+02  0.00000000000E+00 0. -1.
          2    1    1    2  502    0 -0.19736022798E+01 -0.24736813386E+02 -0.18693134402E+03  0.18857129267E+03  0.00000000000E+00 0. -1.
</event>
<event>
 4    1  0.9360795E+003  0.2347078E+02  0.7546771E-02  0.1486670E+00
          2   -1    0    0  501    0  0.00000000000E+00  0.00000000000E+00  0.68582794209E+03  0.68582794209E+03  0.00000000000E+00 0.  1.
          2   -1    0    0  502    0 -0.00000000000E+00 -0.00000000000E+00 -0.16330565682E+02  0.16330565682E+02  0.00000000000E+00 0.  1.
          2    1    1    2  501    0 -0.82529624222E+01  0.21971936927E+02 -0.75876705316E+01  0.24666782221E+02  0.00000000000E+00 0.  1.
          2    1    1    2  502    0  0.82529624222E+01 -0.21971936927E+02  0.67708504694E+03  0.67749172555E+03  0.00000000000E+00 0.  1.
</event>
<event>
 4    1  0.9360795E+003  0.3571367E+02  0.7546771E-02  0.1375614E+00
          2   -1    0    0  501    0  0.00000000000E+00  0.00000000000E+00  0.40772811465E+02  0.40772811465E+02  0.00000000000E+00 0. -1.
          2   -1    0    0  502    0 -0.00000000000E+00 -0.00000000000E+00 -0.17068563122E+03  0.17068563122E+03  0.00000000000E+00 0. -1.
          2    1    1    2  501    0 -0.14376416656E+02 -0.32692276967E+02 -0.16050695439E+03  0.16443220103E+03  0.00000000000E+00 0. -1.
          2    1    1    2  502    0  0.14376416656E+02  0.32692276967E+02  0.30594134639E+02  0.47026241648E+02  0.00000000000E+00 0. -1.
</event>
<event>
 4    1  0.9360795E+003  0.3046464E+02  0.7546771E-02  0.1415601E+00
          2   -1    0    0  502    0  0.00000000000E+00  0.00000000000E+00  0.16284660415E+02  0.16284660415E+02  0.00000000000E+00 0. -1.
          2   -1    0    0  501    0 -0.00000000000E+00 -0.00000000000E+00 -0.17572696438E+04  0.17572696438E+04  0.00000000000E+00 0.  1.
          2    1    1    2  501    0 -0.85403368151E+01  0.29243071194E+02  0.17861127470E+01  0.30516958638E+02  0.00000000000E+00 0. -1.
          2    1    1    2  502    0  0.85403368151E+01 -0.29243071194E+02 -0.17427710961E+04  0.17430373456E+04  0.00000000000E+00 0.  1.
</event>
<event>
 4    1  0.9360795E+003  0.2647897E+02  0.7546771E-02  0.1452913E+00
          2   -1    0    0  501    0  0.00000000000E+00  0.00000000000E+00  0.95469607277E+01  0.95469607277E+01  0.00000000000E+00 0. -1.
          2   -1    0    0  502    0 -0.00000000000E+00 -0.00000000000E+00 -0.46009765711E+03  0.46009765711E+03  0.00000000000E+00 0. -1.
          2    1    1    2  501    0 -0.23840692476E+02  0.11522028599E+02 -0.44054224037E+03  0.44133728747E+03  0.00000000000E+00 0. -1.
          2    1    1    2  502    0  0.23840692476E+02 -0.11522028599E+02 -0.10008456010E+02  0.28307330366E+02  0.00000000000E+00 0. -1.
</event>
<event>
 4    1  0.9360795E+003  0.3858554E+02  0.7546771E-02  0.1356980E+00
          2   -1    0    0  501    0  0.00000000000E+00  0.00000000000E+00  0.53099714606E+02  0.53099714606E+02  0.00000000000E+00 0.  1.
          2   -1    0    0  502    0 -0.00000000000E+00 -0.00000000000E+00 -0.43347835121E+03  0.43347835121E+03  0.00000000000E+00 0.  1.
          2    1    1    2  501    0  0.23096627100E+02 -0.30909382566E+02 -0.42547850266E+03  0.42722453153E+03  0.00000000000E+00 0.  1.
          2    1    1    2  502    0 -0.23096627100E+02  0.30909382566E+02  0.45099866057E+02  0.59353534287E+02  0.00000000000E+00 0.  1.
</event>
<event>
 4    1  0.9360795E+003  0.4195029E+02  0.7546771E-02  0.1337421E+00
          2   -1    0    0  501    0  0.00000000000E+00  0.00000000000E+00  0.49034907516E+02  0.49034907516E+02  0.00000000000E+00 0. -1.
          2   -1    0    0  502    0 -0.00000000000E+00 -0.00000000000E+00 -0.11360672819E+03  0.11360672819E+03  0.00000000000E+00 0. -1.
          2    1    1    2  501    0  0.30958253071E+02  0.28309250791E+02 -0.99546241471E+02  0.10802444772E+03  0.00000000000E+00 0. -1.
          2    1    1    2  502    0 -0.30958253071E+02 -0.28309250791E+02  0.34974420798E+02  0.54617187988E+02  0.00000000000E+00 0. -1.
</event>
<event>
 4    1  0.9360795E+003  0.5129674E+02  0.7546771E-02  0.1292646E+00
          2   -1    0    0  502    0  0.00000000000E+00  0.00000000000E+00  0.92500819173E+03  0.92500819173E+03  0.00000000000E+00 0. -1.
          2   -1    0    0  501    0 -0.00000000000E+00 -0.00000000000E+00 -0.34382535483E+01  0.34382535483E+01  0.00000000000E+00 0.  1.
          2    1    1    2  501    0 -0.49647036155E+02 -0.12904544721E+02  0.65366795824E+03  0.65567763048E+03  0.00000000000E+00 0. -1.
          2    1    1    2  502    0  0.49647036155E+02  0.12904544721E+02  0.26790197994E+03  0.27276881480E+03  0.00000000000E+00 0.  1.
</event>
<event>
 4    1  0.9360795E+003  0.3154848E+02  0.7546771E-02  0.1406601E+00
          2   -1    0    0  502    0  0.00000000000E+00  0.00000000000E+00  0.24304207490E+03  0.24304207490E+03  0.00000000000E+00 0.  1.
          2   -1    0    0  501    0 -0.00000000000E+00 -0.00000000000E+00 -0.18278928661E+03  0.18278928661E+03  0.00000000000E+00 0.  1.
          2    1    1    2  501    0 -0.20512149197E+02 -0.23969940698E+02  0.24064348840E+03  0.24270268814E+03  0.00000000000E+00 0.  1.
          2    1    1    2  502    0  0.20512149197E+02  0.23969940698E+02 -0.18039070011E+03  0.18312867337E+03  0.00000000000E+00 0.  1.
</event>
<event>
 4    1  0.9360795E+003  0.2305322E+02  0.7546771E-02  0.1491831E+00
          2   -1    0    0  501    0  0.00000000000E+00  0.00000000000E+00  0.11753145399E+03  0.11753145399E+03  0.00000000000E+00 0. -1.
          2   -1    0    0  502    0 -0.00000000000E+00 -0.00000000000E+00 -0.12266317079E+04  0.12266317079E+04  0.00000000000E+00 0. -1.
          2    1    1    2  501    0  0.15118369079E+00  0.23052721367E+02 -0.12253918053E+04  0.12256086355E+04  0.00000000000E+00 0. -1.
          2    1    1    2  502    0 -0.15118369079E+00 -0.23052721367E+02  0.11629155137E+03  0.11855452644E+03  0.00000000000E+00 0. -1.
</event>
<event>
 4    1  0.9360795E+003  0.2308300E+02  0.7546771E-02  0.1491458E+00
          2   -1    0    0  501    0  0.00000000000E+00  0.00000000000E+00  0.13999198418E+02  0.13999198418E+02  0.00000000000E+00 0. -1.
          2   -1    0    0  502    0 -0.00000000000E+00 -0.00000000000E+00 -0.10207030731E+03  0.10207030731E+03  0.00000000000E+00 0.  1.
          2    1    1    2  501    0 -0.14074130603E+02 -0.18296008137E+02 -0.89993394600E+02  0.92906598999E+02  0.00000000000E+00 0.  1.
          2    1    1    2  502    0  0.14074130603E+02  0.18296008137E+02  0.19222857043E+01  0.23162906733E+02  0.00000000000E+00 0. -1.
</event>
<event>
 4    1  0.9360795E+003  0.3018187E+02  0.7546771E-02  0.1418022E+00
          2   -1    0    0  501    0  0.00000000000E+00  0.00000000000E+00  0.20476432756E+02  0.20476432756E+02  0.00000000000E+00 0.  1.
          2   -1    0    0  502    0 -0.00000000000E+00 -0.00000000000E+00 -0.66770136689E+02  0.66770136689E+02  0.00000000000E+00 0.  1.
          2    1    1    2  501    0 -0.22884405427E+02 -0.19678654013E+02 -0.48347427382E+02  0.56994904772E+02  0.00000000000E+00 0.  1.
          2    1    1    2  502    0  0.22884405427E+02  0.19678654013E+02  0.20537234495E+01  0.30251664673E+02  0.00000000000E+00 0.  1.
</event>
<event>
 4    1  0.9360795E+003  0.2032593E+02  0.7546771E-02  0.1529110E+00
          2   -1    0    0  502    0  0.00000000000E+00  0.00000000000E+00  0.14566000070E+04  0.14566000070E+04  0.00000000000E+00 0. -1.
          2   -1    0    0  501    0 -0.00000000000E+00 -0.00000000000E+00 -0.21681507398E+02  0.21681507398E+02  0.00000000000E+00 0.  1.
          2    1    1    2  501    0 -0.20314433564E+02 -0.68361360317E+00  0.14517494042E+04  0.14518916889E+04  0.00000000000E+00 0. -1.
          2    1    1    2  502    0  0.20314433564E+02  0.68361360317E+00 -0.16830904652E+02  0.26389825501E+02  0.00000000000E+00 0.  1.
</event>
<event>
 4    1  0.9360795E+003  0.2056138E+02  0.7546771E-02  0.1525620E+00
          2   -1    0    0  501    0  0.00000000000E+00  0.00000000000E+00  0.24619693927E+01  0.24619693927E+01  0.00000000000E+00 0. -1.
          2   -1    0    0  502    0 -0.00000000000E+00 -0.00000000000E+00 -0.23806620912E+03  0.23806620912E+03  0.00000000000E+00 0. -1.
          2    1    1    2  501    0  0.14179646340E+02 -0.14889857170E+02 -0.18129046954E+03  0.18245274611E+03  0.00000000000E+00 0. -1.
          2    1    1    2  502    0 -0.14179646340E+02  0.14889857170E+02 -0.54313770191E+02  0.58075432407E+02  0.00000000000E+00 0. -1.
</event>
<event>
 4    1  0.9360795E+003  0.2223298E+02  0.7546771E-02  0.1502361E+00
          2   -1    0    0  501    0  0.00000000000E+00  0.00000000000E+00  0.56096923449E+03  0.56096923449E+03  0.00000000000E+00 0. -1.
          2   -1    0    0  502    0 -0.00000000000E+00 -0.00000000000E+00 -0.46661240942E+01  0.46661240942E+01  0.00000000000E+00 0. -1.
          2    1    1    2  501    0  0.13705906359E+02 -0.17505817268E+02  0.23433867208E+02  0.32302502065E+02  0.00000000000E+00 0. -1.
          2    1    1    2  502    0 -0.13705906359E+02  0.17505817268E+02  0.53286924319E+03  0.53333285652E+03  0.00000000000E+00 0. -1.
</event>
<event>
 4    1  0.9360795E+003  0.2460709E+02  0.7546771E-02  0.1473247E+00
          2   -1    0    0  501    0  0.00000000000E+00  0.00000000000E+00  0.49775879424E+02  0.49775879424E+02  0.00000000000E+00 0.  1.
          2   -1    0    0  502    0 -0.00000000000E+00 -0.00000000000E+00 -0.65416551960E+02  0.65416551960E+02  0.00000000000E+00 0. -1.
          2    1    1    2  501    0  0.70146619617E+01 -0.23586081891E+02 -0.59786119163E+02  0.64652059410E+02  0.00000000000E+00 0. -1.
          2    1    1    2  502    0 -0.70146619617E+01  0.23586081891E+02  0.44145446627E+02  0.50540371974E+02  0.00000000000E+00 0.  1.
</event>
<event>
 4    1  0.9360795E+003  0.2530674E+02  0.7546771E-02  0.1465401E+00
          2   -1    0    0  501    0  0.00000000000E+00  0.00000000000E+00  0.69380045565E+02  0.69380045565E+02  0.00000000000E+00 0. -1.
          2   -1    0    0  502    0 -0.00000000000E+00 -0.00000000000E+00 -0.18135923574E+03  0.18135923574E+03  0.00000000000E+00 0.  1.
          2    1    1    2  501    0 -0.23656771892E+02 -0.89882384464E+01 -0.17812705693E+03  0.17991575723E+03  0.00000000000E+00 0.  1.
          2    1    1    2  502    0  0.23656771892E+02  0.89882384464E+01  0.66147866756E+02  0.70823524080E+02  0.00000000000E+00 0. -1.
</event>
<event>
 4    1  0.9360795E+003  0.3203811E+02  0.7546771E-02  0.1402675E+00
          2   -1    0    0  502    0  0.00000000000E+00  0.00000000000E+00  0.13403772888E+02  0.13403772888E+02  0.00000000000E+00 0. -1.
          2   -1    0    0  501    0 -0.00000000000E+00 -0.00000000000E+00 -0.10729570127E+04  0.10729570127E+04  0.00000000000E+00 0.  1.
          2    1    1    2  501    0 -0.25034913585E+02  0.19992338427E+02 -0.63387915844E+01  0.32659160625E+02  0.00000000000E+00 0. -1.
          2    1    1    2  502    0  0.25034913585E+02 -0.19992338427E+02 -0.10532144482E+04  0.10537016250E+04  0.00000000000E+00 0.  1.
</event>
<event>
 4    1  0.9360795E+003  0.4023314E+02  0.7546771E-02  0.1347125E+00
          2   -1    0    0  502    0  0.00000000000E+00  0.00000000000E+00  0.13941740067E+04  0.13941740067E+04  0.00000000000E+00 0. -1.
          2   -1    0    0  501    0 -0.00000000000E+00 -0.00000000000E+00 -0.36717681407E+02  0.36717681407E+02  0.00000000000E+00 0.  1.
          2    1    1    2  501    0  0.84429695217E+01  0.39337282192E+02  0.13827715868E+04  0.13833567750E+04  0.00000000000E+00 0. -1.
          2    1    1    2  502    0 -0.84429695217E+01 -0.39337282192E+02 -0.25315261508E+02  0.47534913167E+02  0.00000000000E+00 0.  1.
</event>
<event>
 4    1  0.9360795E+003  0.2578938E+02  0.7546771E-02  0.1460163E+00
          2   -1    0    0  502    0  0.00000000000E+00  0.00000000000E+00  0.40093668809E+03  0.40093668809E+03  0.00000000000E+00 0. -1.
          2   -1    0    0  501    0 -0.00000000000E+00 -0.00000000000E+00 -0.43656745416E+01  0.43656745416E+01  0.00000000000E+00 0. -1.
          2    1    1    2  501    0 -0.24525539339E+02 -0.79743298978E+01  0.35785647347E+03  0.35878454206E+03  0.00000000000E+00 0. -1.
          2    1    1    2  502    0  0.24525539339E+02  0.79743298978E+01  0.38714540078E+02  0.46517820570E+02  0.00000000000E+00 0. -1.
</event>
<event>
 4    1  0.9360795E+003  0.2050550E+02  0.7546771E-02  0.1526444E+00
          2   -1    0    0  502    0  0.00000000000E+00  0.00000000000E+00  0.97728130497E+03  0.97728130497E+03  0.00000000000E+00 0.  1.
          2   -1    0    0  501    0 -0.00000000000E+00 -0.00000000000E+00 -0.85765345263E+01  0.85765345263E+01  0.00000000000E+00 0.  1.
          2    1    1    2  501    0  0.13441148865E+02 -0.15485832318E+02  0.96475809473E+03  0.96497598770E+03  0.00000000000E+00 0.  1.
          2    1    1    2  502    0 -0.13441148865E+02  0.15485832318E+02  0.39466757140E+01  0.20881851799E+02  0.00000000000E+00 0.  1.
</event>
<event>
 4    1  0.9360795E+003  0.2174729E+02  0.7546771E-02  0.1508857E+00
          2   -1    0    0  502    0  0.00000000000E+00  0.00000000000E+00  0.54349254664E+03  0.54349254664E+03  0.00000000000E+00 0.  1.
          2   -1    0    0  501    0 -0.00000000000E+00 -0.00000000000E+00 -0.87085453524E+01  0.87085453524E+01  0.00000000000E+00 0. -1.
          2    1    1    2  501    0  0.17171685055E+01 -0.21679391102E+02  0.52933499244E+03  0.52978153884E+03  0.00000000000E+00 0.  1.
          2    1    1    2  502    0 -0.17171685055E+01  0.21679391102E+02  0.54490088406E+01  0.22419553153E+02  0.00000000000E+00 0. -1.
</event>
<event>
 4    1  0.9360795E+003  0.3226918E+02  0.7546771E-02  0.1400850E+00
          2   -1    0    0  502    0  0.00000000000E+00  0.00000000000E+00  0.14741859031E+03  0.14741859031E+03  0.00000000000E+00 0. -1.
          2   -1    0    0  501    0 -0.00000000000E+00 -0.00000000000E+00 -0.42795290076E+03  0.42795290076E+03  0.00000000000E+00 0.  1.
          2    1    1    2  501    0  0.21837256663E+02  0.23757819556E+02  0.14503451953E+03  0.14858099349E+03  0.00000000000E+00 0. -1.
          2    1    1    2  502    0 -0.21837256663E+02 -0.23757819556E+02 -0.42556882999E+03  0.42679049758E+03  0.00000000000E+00 0.  1.
</event>
<event>
 4    1  0.9360795E+003  0.2728407E+02  0.7546771E-02  0.1444775E+00
          2   -1    0    0  501    0  0.00000000000E+00  0.00000000000E+00  0.39911578561E+03  0.39911578561E+03  0.00000000000E+00 0. -1.
          2   -1    0    0  502    0 -0.00000000000E+00 -0.00000000000E+00 -0.14448953519E+02  0.14448953519E+02  0.00000000000E+00 0.  1.
          2    1    1    2  501    0 -0.16680147232E+02 -0.21591502470E+02 -0.64150194299E+00  0.27291607050E+02  0.00000000000E+00 0.  1.
          2    1    1    2  502    0  0.16680147232E+02  0.21591502470E+02  0.38530833403E+03  0.38627313208E+03  0.00000000000E+00 0. -1.
</event>
<event>
 4    1  0.9360795E+003  0.2619883E+02  0.7546771E-02  0.1455826E+00
          2   -1    0    0  501    0  0.00000000000E+00  0.00000000000E+00  0.51054456972E+02  0.51054456972E+02  0.00000000000E+00 0.  1.
          2   -1    0    0  502    0 -0.00000000000E+00 -0.00000000000E+00 -0.13965239383E+02  0.13965239383E+02  0.00000000000E+00 0.  1.
          2    1    1    2  501    0 -0.19534276695E+02  0.17458253959E+02  0.12264182244E+02  0.28927301350E+02  0.00000000000E+00 0.  1.
          2    1    1    2  502    0  0.19534276695E+02 -0.17458253959E+02  0.24825035345E+02  0.36092395005E+02  0.00000000000E+00 0.  1.
</event>
<event>
 4    1  0.9360795E+003  0.2011223E+02  0.7546771E-02  0.1532327E+00
          2   -1    0    0  502    0  0.00000000000E+00  0.00000000000E+00  0.69083193112E+01  0.69083193112E+01  0.00000000000E+00 0. -1.
          2   -1    0    0  501    0 -0.00000000000E+00 -0.00000000000E+00 -0.12984616112E+04  0.12984616112E+04  0.00000000000E+00 0. -1.
          2    1    1    2  501    0 -0.19827980897E+02  0.33694352850E+01 -0.79775306309E+01  0.21636610538E+02  0.00000000000E+00 0. -1.
          2    1    1    2  502    0  0.19827980897E+02 -0.33694352850E+01 -0.12835757612E+04  0.12837333199E+04  0.00000000000E+00 0. -1.
</event>
<event>
 4    1  0.9360795E+003  0.2065261E+02  0.7546771E-02  0.1524283E+00
          2   -1    0    0  501    0  0.00000000000E+00  0.00000000000E+00  0.36781209305E+03  0.36781209305E+03  0.00000000000E+00 0.  1.
          2   -1    0    0  502    0 -0.00000000000E+00 -0.00000000000E+00 -0.23733593749E+01  0.23733593749E+01  0.00000000000E+00 0.  1.
          2    1    1    2  501    0 -0.19919910620E+02 -0.54522971827E+01  0.50356437867E+02  0.54427026543E+02  0.00000000000E+00 0.  1.
          2    1    1    2  502    0  0.19919910620E+02  0.54522971827E+01  0.31508229580E+03  0.31575842588E+03  0.00000000000E+00 0.  1.
</event>
<event>
 4    1  0.9360795E+003  0.2443415E+02  0.7546771E-02  0.1475234E+00
          2   -1    0    0  502    0  0.00000000000E+00  0.00000000000E+00  0.55469019685E+02  0.55469019685E+02  0.00000000000E+00 0. -1.
          2   -1    0    0  501    0 -0.00000000000E+00 -0.00000000000E+00 -0.58020909881E+02  0.58020909881E+02  0.00000000000E+00 0.  1.
          2    1    1    2  501    0 -0.44245188270E+01  0.24030213831E+02  0.49935981962E+02  0.55593433408E+02  0.00000000000E+00 0. -1.
          2    1    1    2  502    0  0.44245188270E+01 -0.24030213831E+02 -0.52487872158E+02  0.57896496157E+02  0.00000000000E+00 0.  1.
</event>
<event>
 4    1  0.9360795E+003  0.4721680E+02  0.7546771E-02  0.1310712E+00
          2   -1    0    0  502    0  0.00000000000E+00  0.00000000000E+00  0.51943478927E+03  0.51943478927E+03  0.00000000000E+00 0.  1.
          2   -1    0    0  501    0 -0.00000000000E+00 -0.00000000000E+00 -0.80881051075E+02  0.80881051075E+02  0.00000000000E+00 0. -1.
          2    1    1    2  501    0  0.40599491984E+01  0.47041928886E+02  0.51136216361E+03  0.51353742671E+03  0.00000000000E+00 0.  1.
          2    1    1    2  502    0 -0.40599491984E+01 -0.47041928886E+02 -0.72808425418E+02  0.86778413633E+02  0.00000000000E+00 0. -1.
</event>
<event>
 4    1  0.9360795E+003  0.3471181E+02  0.7546771E-02  0.1382601E+00
          2   -1    0    0  502    0  0.00000000000E+00  0.00000000000E+00  0.47878285201E+03  0.47878285201E+03  0.00000000000E+00 0.  1.
          2   -1    0    0  501    0 -0.00000000000E+00 -0.00000000000E+00 -0.21983658979E+02  0.21983658979E+02  0.00000000000E+00 0.  1.
          2    1    1    2  501    0 -0.99889826902E+01 -0.33243491556E+02  0.46401591087E+03  0.46531244884E+03  0.00000000000E+00 0.  1.
          2    1    1    2  502    0  0.99889826902E+01  0.33243491556E+02 -0.72167178429E+01  0.35454062143E+02  0.00000000000E+00 0.  1.
</event>
<event>
 4    1  0.9360795E+003  0.5680496E+02  0.7546771E-02  0.1271092E+00
          2   -1    0    0  501    0  0.00000000000E+00  0.00000000000E+00  0.11033372214E+02  0.11033372214E+02  0.00000000000E+00 0. -1.
          2   -1    0    0  502    0 -0.00000000000E+00 -0.00000000000E+00 -0.33998030766E+03  0.33998030766E+03  0.00000000000E+00 0. -1.
          2    1    1    2  501    0 -0.18958287219E+02 -0.53547983886E+02 -0.23009007134E+03  0.23699840540E+03  0.00000000000E+00 0. -1.
          2    1    1    2  502    0  0.18958287219E+02  0.53547983886E+02 -0.98856864100E+02  0.11401527447E+03  0.00000000000E+00 0. -1.
</event>
<event>
 4    1  0.9360795E+003  0.2888425E+02  0.7546771E-02  0.1429546E+00
          2   -1    0    0  501    0  0.00000000000E+00  0.00000000000E+00  0.17646316047E+01  0.17646316047E+01  0.00000000000E+00 0. -1.
          2   -1    0    0  502    0 -0.00000000000E+00 -0.00000000000E+00 -0.17689714212E+04  0.17689714212E+04  0.00000000000E+00 0. -1.
          2    1    1    2  501    0  0.28727199306E+02 -0.30079468595E+01 -0.16414762720E+04  0.16417303832E+04  0.00000000000E+00 0. -1.
          2    1    1    2  502    0 -0.28727199306E+02  0.30079468595E+01 -0.12573051759E+03  0.12900566956E+03  0.00000000000E+00 0. -1.
</event>
<event>
 4    1  0.9360795E+003  0.2491896E+02  0.7546771E-02  0.1469712E+00
          2   -1    0    0  502    0  0.00000000000E+00  0.00000000000E+00  0.57516580572E+01  0.57516580572E+01  0.00000000000E+00 0.  1.
          2   -1    0    0  501    0 -0.00000000000E+00 -0.00000000000E+00 -0.49082045222E+03  0.49082045222E+03  0.00000000000E+00 0.  1.
          2    1    1    2  501    0 -0.32192920244E+01  0.24710132487E+02 -0.23248492935E+02  0.34080007517E+02  0.00000000000E+00 0.  1.
          2    1    1    2  502    0  0.32192920244E+01 -0.24710132487E+02 -0.46182030123E+03  0.46249210276E+03  0.00000000000E+00 0.  1.
</event>
<event>
 4    1  0.9360795E+003  0.5199168E+02  0.7546771E-02  0.1289761E+00
          2   -1    0    0  501    0  0.00000000000E+00  0.00000000000E+00  0.15090365900E+02  0.15090365900E+02  0.00000000000E+00 0. -1.
          2   -1    0    0  502    0 -0.00000000000E+00 -0.00000000000E+00 -0.32309021214E+03  0.32309021214E+03  0.00000000000E+00 0. -1.
          2    1    1    2  501    0 -0.35938226915E+02  0.37570976274E+02 -0.26686986144E+03  0.27188721441E+03  0.00000000000E+00 0. -1.
          2    1    1    2  502    0  0.35938226915E+02 -0.37570976274E+02 -0.41129984794E+02  0.66293363628E+02  0.00000000000E+00 0. -1.
</event>
<event>
 4    1  0.9360795E+003  0.7034388E+02  0.7546771E-02  0.1228235E+00
          2   -1    0    0  502    0  0.00000000000E+00  0.00000000000E+00  0.18993985694E+03  0.18993985694E+03  0.00000000000E+00 0. -1.
          2   -1    0    0  501    0 -0.00000000000E+00 -0.00000000000E+00 -0.45898952388E+03  0.45898952388E+03  0.00000000000E+00 0. -1.
          2    1    1    2  501    0 -0.58408665759E+02 -0.39200636735E+02  0.18059722484E+03  0.19381336326E+03  0.00000000000E+00 0. -1.
          2    1    1    2  502    0  0.58408665759E+02  0.39200636735E+02 -0.44964689178E+03  0.45511601756E+03  0.00000000000E+00 0. -1.
</event>
<event>
 4    1  0.9360795E+003  0.2203259E+02  0.7546771E-02  0.1505017E+00
          2   -1    0    0  502    0  0.00000000000E+00  0.00000000000E+00  0.93003362149E+03  0.93003362149E+03  0.00000000000E+00 0. -1.
          2   -1    0    0  501    0 -0.00000000000E+00 -0.00000000000E+00 -0.24687019475E+03  0.24687019475E+03  0.00000000000E+00 0.  1.
          2    1    1    2  501    0 -0.13946675151E+02 -0.17056530940E+02  0.92941121446E+03  0.92967232967E+03  0.00000000000E+00 0. -1.
          2    1    1    2  502    0  0.13946675151E+02  0.17056530940E+02 -0.24624778772E+03  0.24723148657E+03  0.00000000000E+00 0.  1.
</event>
<event>
 4    1  0.9360795E+003  0.3103707E+02  0.7546771E-02  0.1410793E+00
          2   -1    0    0  502    0  0.00000000000E+00  0.00000000000E+00  0.28334833242E+03  0.28334833242E+03  0.00000000000E+00 0.  1.
          2   -1    0    0  501    0 -0.00000000000E+00 -0.00000000000E+00 -0.34018896615E+01  0.34018896615E+01  0.00000000000E+00 0. -1.
          2    1    1    2  501    0 -0.29699972867E+02  0.90117293536E+01  0.14360975098E+03  0.14692535598E+03  0.00000000000E+00 0.  1.
          2    1    1    2  502    0  0.29699972867E+02 -0.90117293536E+01  0.13633669178E+03  0.13982486610E+03  0.00000000000E+00 0. -1.
</event>
<event>
 4    1  0.9360795E+003  0.2712789E+02  0.7546771E-02  0.1446328E+00
          2   -1    0    0  501    0  0.00000000000E+00  0.00000000000E+00  0.26311375167E+01  0.26311375167E+01  0.00000000000E+00 0. -1.
          2   -1    0    0  502    0 -0.00000000000E+00 -0.00000000000E+00 -0.18530152698E+04  0.18530152698E+04  0.00000000000E+00 0. -1.
          2    1    1    2  501    0  0.21188529973E+02 -0.16940140671E+02 -0.17801287970E+04  0.17803354897E+04  0.00000000000E+00 0. -1.
          2    1    1    2  502    0 -0.21188529973E+02  0.16940140671E+02 -0.70255335284E+02  0.75310917563E+02  0.00000000000E+00 0. -1.
</event>
<event>
 4    1  0.2300811E+004  0.2945381E+02  0.7546771E-02  0.1424403E+00
          2   -1    0    0  502    0  0.00000000000E+00  0.00000000000E+00  0.13628293101E+04  0.13628293101E+04  0.00000000000E+00 0.  1.
          2   -1    0    0  501    0 -0.00000000000E+00 -0.00000000000E+00 -0.21160443573E+04  0.21160443573E+04  0.00000000000E+00 0. -1.
          2    1    1    2  501    0  0.19543042145E+02 -0.22036255666E+02  0.13625676556E+04  0.13628859612E+04  0.00000000000E+00 0.  1.
          2    1    1    2  502    0 -0.19543042145E+02  0.22036255666E+02 -0.21157827028E+04  0.21159877062E+04  0.00000000000E+00 0. -1.
</event>
<event>
 4    1  0.9360795E+003  0.3544728E+02  0.7546771E-02  0.1377446E+00
          2   -1    0    0  502    0  0.00000000000E+00  0.00000000000E+00  0.49063384466E+03  0.49063384466E+03  0.00000000000E+00 0.  1.
          2   -1    0    0  501    0 -0.00000000000E+00 -0.00000000000E+00 -0.26159289451E+01  0.26159289451E+01  0.00000000000E+00 0.  1.
          2    1    1    2  501    0 -0.31535292198E+02 -0.16187484990E+02  0.20826880579E+03  0.21126382745E+03  0.00000000000E+00 0.  1.
          2    1    1    2  502    0  0.31535292198E+02  0.16187484990E+02  0.27974910992E+03  0.28198594615E+03  0.00000000000E+00 0.  1.
</event>
<event>
 4    1  0.9360795E+003  0.2502690E+02  0.7546771E-02  0.1468503E+00
          2   -1    0    0  501    0  0.00000000000E+00  0.00000000000E+00  0.60222431028E+02  0.60222431028E+02  0.00000000000E+00 0. -1.
          2   -1    0    0  502    0 -0.00000000000E+00 -0.00000000000E+00 -0.24070065918E+02  0.24070065918E+02  0.00000000000E+00 0.  1.
          2    1    1    2  501    0 -0.11568186873E+01  0.25000152629E+02 -0.13685024164E+02  0.28524125707E+02  0.00000000000E+00 0.  1.
          2    1    1    2  502    0  0.11568186873E+01 -0.25000152629E+02  0.49837389275E+02  0.55768371239E+02  0.00000000000E+00 0. -1.
</event>
<event>
 4    1  0.9360795E+003  0.3538668E+02  0.7546771E-02  0.1377865E+00
          2   -1    0    0  501    0  0.00000000000E+00  0.00000000000E+00  0.22614173441E+01  0.22614173441E+01  0.00000000000E+00 0. -1.
          2   -1    0    0  502    0 -0.00000000000E+00 -0.00000000000E+00 -0.10947814848E+04  0.10947814848E+04  0.00000000000E+00 0.  1.
          2    1    1    2  501    0 -0.24314687794E+02  0.25710176780E+02 -0.93187042474E+03  0.93254206647E+03  0.00000000000E+00 0.  1.
          2    1    1    2  502    0  0.24314687794E+02 -0.25710176780E+02 -0.16064964273E+03  0.16450083569E+03  0.00000000000E+00 0. -1.
</event>
<event>
 4    1  0.9360795E+003  0.2140907E+02  0.7546771E-02  0.1513504E+00
          2   -1    0    0  502    0  0.00000000000E+00  0.00000000000E+00  0.15182502303E+04  0.15182502303E+04  0.00000000000E+00 0. -1.
          2   -1    0    0  501    0 -0.00000000000E+00 -0.00000000000E+00 -0.14455419002E+02  0.14455419002E+02  0.00000000000E+00 0. -1.
          2    1    1    2  501    0  0.15131418106E+02  0.15145572976E+02  0.15102056070E+04  0.15103573496E+04  0.00000000000E+00 0. -1.
          2    1    1    2  502    0 -0.15131418106E+02 -0.15145572976E+02 -0.64107957309E+01  0.22348299635E+02  0.00000000000E+00 0. -1.
</event>
<event>
 4    1  0.9360795E+003  0.2106697E+02  0.7546771E-02  0.1518311E+00
          2   -1    0    0  502    0  0.00000000000E+00  0.00000000000E+00  0.73985359986E+03  0.73985359986E+03  0.00000000000E+00 0. -1.
          2   -1    0    0  501    0 -0.00000000000E+00 -0.00000000000E+00 -0.82748502920E+02  0.82748502920E+02  0.00000000000E+00 0.  1.
          2    1    1    2  501    0  0.22067936216E+01  0.20951070853E+02  0.73836005815E+03  0.73866053961E+03  0.00000000000E+00 0. -1.
          2    1    1    2  502    0 -0.22067936216E+01 -0.20951070853E+02 -0.81254961204E+02  0.83941563175E+02  0.00000000000E+00 0.  1.
</event>
<event>
 4    1  0.9360795E+003  0.2019765E+02  0.7546771E-02  0.1531035E+00
          2   -1    0    0  501    0  0.00000000000E+00  0.00000000000E+00  0.18322421215E+03  0.18322421215E+03  0.00000000000E+00 0.  1.
          2   -1    0    0  502    0 -0.00000000000E+00 -0.00000000000E+00 -0.34216243863E+02  0.34216243863E+02  0.00000000000E+00 0.  1.
          2    1    1    2  501    0  0.13827334879E+01  0.20150265700E+02 -0.30619489032E+02  0.36681034177E+02  0.00000000000E+00 0.  1.
          2    1    1    2  502    0 -0.13827334879E+01 -0.20150265700E+02  0.17962745732E+03  0.18075942184E+03  0.00000000000E+00 0.  1.
</event>
<event>
 4    1  0.9360795E+003  0.2056380E+02  0.7546771E-02  0.1525585E+00
          2   -1    0    0  501    0  0.00000000000E+00  0.00000000000E+00  0.17906313731E+02  0.17906313731E+02  0.00000000000E+00 0. -1.
          2   -1    0    0  502    0 -0.00000000000E+00 -0.00000000000E+00 -0.13380673447E+03  0.13380673447E+03  0.00000000000E+00 0. -1.
          2    1    1    2  501    0 -0.74383281590E+01 -0.19171363900E+02 -0.12678803003E+03  0.12844483048E+03  0.00000000000E+00 0. -1.
          2    1    1    2  502    0  0.74383281590E+01  0.19171363900E+02  0.10887609291E+02  0.23268217716E+02  0.00000000000E+00 0. -1.
</event>
<event>
 4    1  0.9360795E+003  0.2032467E+02  0.7546771E-02  0.1529129E+00
          2   -1    0    0  502    0  0.00000000000E+00  0.00000000000E+00  0.26371555020E+03  0.26371555020E+03  0.00000000000E+00 0.  1.
          2   -1    0    0  501    0 -0.00000000000E+00 -0.00000000000E+00 -0.79332787938E+03  0.79332787938E+03  0.00000000000E+00 0.  1.
          2    1    1    2  501    0 -0.17511620485E+02  0.10316752715E+02  0.26319350759E+03  0.26397711013E+03  0.00000000000E+00 0.  1.
          2    1    1    2  502    0  0.17511620485E+02 -0.10316752715E+02 -0.79280583677E+03  0.79306631945E+03  0.00000000000E+00 0.  1.
</event>
<event>
 4    1  0.9360795E+003  0.2606854E+02  0.7546771E-02  0.1457196E+00
          2   -1    0    0  502    0  0.00000000000E+00  0.00000000000E+00  0.96814562696E+03  0.96814562696E+03  0.00000000000E+00 0.  1.
          2   -1    0    0  501    0 -0.00000000000E+00 -0.00000000000E+00 -0.97156141456E+01  0.97156141456E+01  0.00000000000E+00 0.  1.
          2    1    1    2  501    0 -0.24026331922E+01  0.25957586534E+02  0.95015254890E+03  0.95051009207E+03  0.00000000000E+00 0.  1.
          2    1    1    2  502    0  0.24026331922E+01 -0.25957586534E+02  0.82774639190E+01  0.27351149041E+02  0.00000000000E+00 0.  1.
</event>
<event>
 4    1  0.9360795E+003  0.2671904E+02  0.7546771E-02  0.1450451E+00
          2   -1    0    0  501    0  0.00000000000E+00  0.00000000000E+00  0.26750614660E+03  0.26750614660E+03  0.00000000000E+00 0.  1.
          2   -1    0    0  502    0 -0.00000000000E+00 -0.00000000000E+00 -0.14922922526E+04  0.14922922526E+04  0.00000000000E+00 0. -1.
          2    1    1    2  501    0  0.22561364932E+02 -0.14314039160E+02 -0.14915051140E+04  0.14917444192E+04  0.00000000000E+00 0. -1.
          2    1    1    2  502    0 -0.22561364932E+02  0.14314039160E+02  0.26671900810E+03  0.26805397998E+03  0.00000000000E+00 0.  1.
</event>
<event>
 4    1  0.9360795E+003  0.2307802E+02  0.7546771E-02  0.1491521E+00
          2   -1    0    0  501    0  0.00000000000E+00  0.00000000000E+00  0.26952728050E+03  0.26952728050E+03  0.00000000000E+00 0.  1.
          2   -1    0    0  502    0 -0.00000000000E+00 -0.00000000000E+00 -0.15534018416E+03  0.15534018416E+03  0.00000000000E+00 0. -1.
          2    1    1    2  501    0  0.12483460300E+02 -0.19410264135E+02 -0.15398470794E+03  0.15570448104E+03  0.00000000000E+00 0. -1.
          2    1    1    2  502    0 -0.12483460300E+02  0.19410264135E+02  0.26817180429E+03  0.26916298362E+03  0.00000000000E+00 0.  1.
</event>
<event>
 4    1  0.9360795E+003  0.2354383E+02  0.7546771E-02  0.1485780E+00
          2   -1    0    0  501    0  0.00000000000E+00  0.00000000000E+00  0.92322514877E+01  0.92322514877E+01  0.00000000000E+00 0. -1.
          2   -1    0    0  502    0 -0.00000000000E+00 -0.00000000000E+00 -0.13157660884E+04  0.13157660884E+04  0.00000000000E+00 0. -1.
          2    1    1    2  501    0  0.13825432667E+02  0.19057007540E+02 -0.13004740698E+04  0.13006871716E+04  0.00000000000E+00 0. -1.
          2    1    1    2  502    0 -0.13825432667E+02 -0.19057007540E+02 -0.60597670689E+01  0.24311168251E+02  0.00000000000E+00 0. -1.
</event>
<event>
 4    1  0.9360795E+003  0.3155426E+02  0.7546771E-02  0.1406554E+00
          2   -1    0    0  502    0  0.00000000000E+00  0.00000000000E+00  0.25574548429E+04  0.25574548429E+04  0.00000000000E+00 0.  1.
          2   -1    0    0  501    0 -0.00000000000E+00 -0.00000000000E+00 -0.73728539234E+00  0.73728539234E+00  0.00000000000E+00 0.  1.
          2    1    1    2  501    0  0.23587234132E+02  0.20959813620E+02  0.21570830498E+04  0.21573138286E+04  0.00000000000E+00 0.  1.
          2    1    1    2  502    0 -0.23587234132E+02 -0.20959813620E+02  0.39963450767E+03  0.40087829964E+03  0.00000000000E+00 0.  1.
</event>
<event>
 4    1  0.9360795E+003  0.2093379E+02  0.7546771E-02  0.1520212E+00
          2   -1    0    0  501    0  0.00000000000E+00  0.00000000000E+00  0.32657141881E+01  0.32657141881E+01  0.00000000000E+00 0. -1.
          2   -1    0    0  502    0 -0.00000000000E+00 -0.00000000000E+00 -0.32476056992E+03  0.32476056992E+03  0.00000000000E+00 0. -1.
          2    1    1    2  501    0  0.18460163864E+02 -0.98714604489E+01 -0.28638684024E+03  0.28715091092E+03  0.00000000000E+00 0. -1.
          2    1    1    2  502    0 -0.18460163864E+02  0.98714604489E+01 -0.35108015495E+02  0.40875373188E+02  0.00000000000E+00 0. -1.
</event>
<event>
 4    1  0.9360795E+003  0.3298907E+02  0.7546771E-02  0.1395280E+00
          2   -1    0    0  502    0  0.00000000000E+00  0.00000000000E+00  0.15734114275E+01  0.15734114275E+01  0.00000000000E+00 0. -1.
          2   -1    0    0  501    0 -0.00000000000E+00 -0.00000000000E+00 -0.11962245095E+04  0.11962245095E+04  0.00000000000E+00 0. -1.
          2    1    1    2  501    0 -0.23754871351E+02  0.22890717917E+02 -0.20836821133E+03  0.21096348114E+03  0.00000000000E+00 0. -1.
          2    1    1    2  502    0  0.23754871351E+02 -0.22890717917E+02 -0.98628288678E+03  0.98683443983E+03  0.00000000000E+00 0. -1.
</event>
<event>
 4    1  0.9360795E+003  0.9282244E+02  0.7546771E-02  0.1176862E+00
          2   -1    0    0  502    0  0.00000000000E+00  0.00000000000E+00  0.35016849739E+04  0.35016849739E+04  0.00000000000E+00 0. -1.
          2   -1    0    0  501    0 -0.00000000000E+00 -0.00000000000E+00 -0.17625653508E+03  0.17625653508E+03  0.00000000000E+00 0. -1.
          2    1    1    2  501    0  0.86434325947E+02 -0.33839522670E+02  0.34888038963E+04  0.34900384859E+04  0.00000000000E+00 0. -1.
          2    1    1    2  502    0 -0.86434325947E+02  0.33839522670E+02 -0.16337545747E+03  0.18790302312E+03  0.00000000000E+00 0. -1.
</event>
<event>
 4    1  0.9360795E+003  0.2548206E+02  0.7546771E-02  0.1463482E+00
          2   -1    0    0  501    0  0.00000000000E+00  0.00000000000E+00  0.32250428139E+01  0.32250428139E+01  0.00000000000E+00 0.  1.
          2   -1    0    0  502    0 -0.00000000000E+00 -0.00000000000E+00 -0.19112362959E+04  0.19112362959E+04  0.00000000000E+00 0.  1.
          2    1    1    2  501    0  0.46899565299E+01  0.25046750963E+02 -0.18594131302E+04  0.18595877297E+04  0.00000000000E+00 0.  1.
          2    1    1    2  502    0 -0.46899565299E+01 -0.25046750963E+02 -0.48598122894E+02  0.54873609093E+02  0.00000000000E+00 0.  1.
</event>
<event>
 4    1  0.9360795E+003  0.2245851E+02  0.7546771E-02  0.1499412E+00
          2   -1    0    0  501    0  0.00000000000E+00  0.00000000000E+00  0.62991081087E+03  0.62991081087E+03  0.00000000000E+00 0.  1.
          2   -1    0    0  502    0 -0.00000000000E+00 -0.00000000000E+00 -0.22806782968E+02  0.22806782968E+02  0.00000000000E+00 0. -1.
          2    1    1    2  501    0 -0.11929925643E+02 -0.19027920553E+02 -0.17026522541E+02  0.28183104092E+02  0.00000000000E+00 0. -1.
          2    1    1    2  502    0  0.11929925643E+02  0.19027920553E+02  0.62413055045E+03  0.62453448975E+03  0.00000000000E+00 0.  1.
</event>
<event>
 4    1  0.1319483E+004  0.2375884E+02  0.7546771E-02  0.1483183E+00
          2   -1    0    0  501    0  0.00000000000E+00  0.00000000000E+00  0.13971736460E+04  0.13971736460E+04  0.00000000000E+00 0. -1.
          2   -1    0    0  502    0 -0.00000000000E+00 -0.00000000000E+00 -0.51654456944E+03  0.51654456944E+03  0.00000000000E+00 0.  1.
          2    1    1    2  501    0  0.91696319693E+01 -0.21918034398E+02 -0.51617029070E+03  0.51671679998E+03  0.00000000000E+00 0.  1.
          2    1    1    2  502    0 -0.91696319693E+01  0.21918034398E+02  0.13967993673E+04  0.13970014155E+04  0.00000000000E+00 0. -1.
</event>
<event>
 4    1  0.9360795E+003  0.2737342E+02  0.7546771E-02  0.1443893E+00
          2   -1    0    0  501    0  0.00000000000E+00  0.00000000000E+00  0.51407124880E+03  0.51407124880E+03  0.00000000000E+00 0.  1.
          2   -1    0    0  502    0 -0.00000000000E+00 -0.00000000000E+00 -0.86393637854E+01  0.86393637854E+01  0.00000000000E+00 0. -1.
          2    1    1    2  501    0 -0.72108795436E+01  0.26406574503E+02  0.14425639465E+02  0.30941930043E+02  0.00000000000E+00 0. -1.
          2    1    1    2  502    0  0.72108795436E+01 -0.26406574503E+02  0.49100624555E+03  0.49176868254E+03  0.00000000000E+00 0.  1.
</event>
<event>
 4    1  0.9360795E+003  0.4109638E+02  0.7546771E-02  0.1342178E+00
          2   -1    0    0  502    0  0.00000000000E+00  0.00000000000E+00  0.42774702097E+01  0.42774702097E+01  0.00000000000E+00 0.  1.
          2   -1    0    0  501    0 -0.00000000000E+00 -0.00000000000E+00 -0.48361536289E+03  0.48361536289E+03  0.00000000000E+00 0.  1.
          2    1    1    2  501    0 -0.32831764631E+02  0.24718156927E+02 -0.13515046802E+03  0.14126061396E+03  0.00000000000E+00 0.  1.
          2    1    1    2  502    0  0.32831764631E+02 -0.24718156927E+02 -0.34418742467E+03  0.34663221914E+03  0.00000000000E+00 0.  1.
</event>
<event>
 4    1  0.9360795E+003  0.3063966E+02  0.7546771E-02  0.1414118E+00
          2   -1    0    0  502    0  0.00000000000E+00  0.00000000000E+00  0.25610218210E+02  0.25610218210E+02  0.00000000000E+00 0.  1.
          2   -1    0    0  501    0 -0.00000000000E+00 -0.00000000000E+00 -0.56948765155E+03  0.56948765155E+03  0.00000000000E+00 0. -1.
          2    1    1    2  501    0 -0.23029140466E+02  0.20210086939E+02  0.15874624618E+02  0.34507863328E+02  0.00000000000E+00 0.  1.
          2    1    1    2  502    0  0.23029140466E+02 -0.20210086939E+02 -0.55975205796E+03  0.56059000644E+03  0.00000000000E+00 0. -1.
</event>
<event>
 4    1  0.9360795E+003  0.2396003E+02  0.7546771E-02  0.1480782E+00
          2   -1    0    0  501    0  0.00000000000E+00  0.00000000000E+00  0.52480055061E+03  0.52480055061E+03  0.00000000000E+00 0. -1.
          2   -1    0    0  502    0 -0.00000000000E+00 -0.00000000000E+00 -0.40584505254E+01  0.40584505254E+01  0.00000000000E+00 0. -1.
          2    1    1    2  501    0 -0.23870766140E+02 -0.20662560455E+01  0.34370910660E+02  0.41897999830E+02  0.00000000000E+00 0. -1.
          2    1    1    2  502    0  0.23870766140E+02  0.20662560455E+01  0.48637118942E+03  0.48696100130E+03  0.00000000000E+00 0. -1.
</event>
<event>
 4    1  0.9360795E+003  0.2033418E+02  0.7546771E-02  0.1528987E+00
          2   -1    0    0  501    0  0.00000000000E+00  0.00000000000E+00  0.14749330955E+03  0.14749330955E+03  0.00000000000E+00 0.  1.
          2   -1    0    0  502    0 -0.00000000000E+00 -0.00000000000E+00 -0.49067696934E+01  0.49067696934E+01  0.00000000000E+00 0. -1.
          2    1    1    2  501    0  0.20257036276E+02 -0.17695476461E+01  0.21402763272E+02  0.29522145810E+02  0.00000000000E+00 0. -1.
          2    1    1    2  502    0 -0.20257036276E+02  0.17695476461E+01  0.12118377659E+03  0.12287793343E+03  0.00000000000E+00 0.  1.
</event>
<event>
 4    1  0.9360795E+003  0.2181450E+02  0.7546771E-02  0.1507946E+00
          2   -1    0    0  502    0  0.00000000000E+00  0.00000000000E+00  0.38419153485E+01  0.38419153485E+01  0.00000000000E+00 0.  1.
          2   -1    0    0  501    0 -0.00000000000E+00 -0.00000000000E+00 -0.13538888076E+03  0.13538888076E+03  0.00000000000E+00 0.  1.
          2    1    1    2  501    0 -0.27757232055E+01 -0.21637183449E+02 -0.86085125787E+02  0.88806087790E+02  0.00000000000E+00 0.  1.
          2    1    1    2  502    0  0.27757232055E+01  0.21637183449E+02 -0.45461839624E+02  0.50424708318E+02  0.00000000000E+00 0.  1.
</event>
<event>
 4    1  0.9360795E+003  0.2847776E+02  0.7546771E-02  0.1433303E+00
          2   -1    0    0  502    0  0.00000000000E+00  0.00000000000E+00  0.61257530032E+03  0.61257530032E+03  0.00000000000E+00 0.  1.
          2   -1    0    0  501    0 -0.00000000000E+00 -0.00000000000E+00 -0.24374568628E+01  0.24374568628E+01  0.00000000000E+00 0. -1.
          2    1    1    2  501    0 -0.19626997001E+02 -0.20634045880E+02  0.51291586173E+03  0.51370581471E+03  0.00000000000E+00 0.  1.
          2    1    1    2  502    0  0.19626997001E+02  0.20634045880E+02  0.97221981732E+02  0.10130694247E+03  0.00000000000E+00 0. -1.
</event>
<event>
 4    1  0.9360795E+003  0.2161669E+02  0.7546771E-02  0.1510639E+00
          2   -1    0    0  501    0  0.00000000000E+00  0.00000000000E+00  0.13180980769E+02  0.13180980769E+02  0.00000000000E+00 0.  1.
          2   -1    0    0  502    0 -0.00000000000E+00 -0.00000000000E+00 -0.47008061705E+03  0.47008061705E+03  0.00000000000E+00 0. -1.
          2    1    1    2  501    0  0.87567300636E+00 -0.21598950375E+02 -0.46079072553E+03  0.46129748991E+03  0.00000000000E+00 0. -1.
          2    1    1    2  502    0 -0.87567300636E+00  0.21598950375E+02  0.38910892544E+01  0.21964107906E+02  0.00000000000E+00 0.  1.
</event>
<event>
 4    1  0.9360795E+003  0.2315781E+02  0.7546771E-02  0.1490526E+00
          2   -1    0    0  502    0  0.00000000000E+00  0.00000000000E+00  0.23921462282E+02  0.23921462282E+02  0.00000000000E+00 0. -1.
          2   -1    0    0  501    0 -0.00000000000E+00 -0.00000000000E+00 -0.16621378089E+03  0.16621378089E+03  0.00000000000E+00 0.  1.
          2    1    1    2  501    0  0.16708949577E+02  0.16034190968E+02  0.17278087624E+02  0.28893192761E+02  0.00000000000E+00 0. -1.
          2    1    1    2  502    0 -0.16708949577E+02 -0.16034190968E+02 -0.15957040623E+03  0.16124205041E+03  0.00000000000E+00 0.  1.
</event>
<event>
 4    1  0.9360795E+003  0.3182244E+02  0.7546771E-02  0.1404394E+00
          2   -1    0    0  501    0  0.00000000000E+00  0.00000000000E+00  0.31924171606E+02  0.31924171606E+02  0.00000000000E+00 0. -1.
          2   -1    0    0  502    0 -0.00000000000E+00 -0.00000000000E+00 -0.10753645962E+04  0.10753645962E+04  0.00000000000E+00 0.  1.
          2    1    1    2  501    0 -0.30208252960E+02  0.10006456042E+02 -0.10671377911E+04  0.10676121641E+04  0.00000000000E+00 0.  1.
          2    1    1    2  502    0  0.30208252960E+02 -0.10006456042E+02  0.23697366459E+02  0.39676603767E+02  0.00000000000E+00 0. -1.
</event>
<event>
 4    1  0.9360795E+003  0.2351265E+02  0.7546771E-02  0.1486159E+00
          2   -1    0    0  501    0  0.00000000000E+00  0.00000000000E+00  0.31263931433E+02  0.31263931433E+02  0.00000000000E+00 0. -1.
          2   -1    0    0  502    0 -0.00000000000E+00 -0.00000000000E+00 -0.58108283284E+02  0.58108283284E+02  0.00000000000E+00 0. -1.
          2    1    1    2  501    0  0.27506503348E+01  0.23351200383E+02 -0.50693880788E+02  0.55881250755E+02  0.00000000000E+00 0. -1.
          2    1    1    2  502    0 -0.27506503348E+01 -0.23351200383E+02  0.23849528937E+02  0.33490963962E+02  0.00000000000E+00 0. -1.
</event>
<event>
 4    1  0.9360795E+003  0.3283372E+02  0.7546771E-02  0.1396468E+00
          2   -1    0    0  502    0  0.00000000000E+00  0.00000000000E+00  0.19320622975E+03  0.19320622975E+03  0.00000000000E+00 0. -1.
          2   -1    0    0  501    0 -0.00000000000E+00 -0.00000000000E+00 -0.10676934353E+04  0.10676934353E+04  0.00000000000E+00 0.  1.
          2    1    1    2  501    0  0.32458732846E+02 -0.49480951456E+01  0.19155669499E+03  0.19435025181E+03  0.00000000000E+00 0. -1.
          2    1    1    2  502    0 -0.32458732846E+02  0.49480951456E+01 -0.10660439006E+04  0.10665494132E+04  0.00000000000E+00 0.  1.
</event>
<event>
 4    1  0.9360795E+003  0.2496687E+02  0.7546771E-02  0.1469174E+00
          2   -1    0    0  502    0  0.00000000000E+00  0.00000000000E+00  0.11072331252E+04  0.11072331252E+04  0.00000000000E+00 0.  1.
          2   -1    0    0  501    0 -0.00000000000E+00 -0.00000000000E+00 -0.18382898073E+01  0.18382898073E+01  0.00000000000E+00 0.  1.
          2    1    1    2  501    0  0.51201002430E+01  0.24436222962E+02  0.10145796444E+04  0.10148867913E+04  0.00000000000E+00 0.  1.
          2    1    1    2  502    0 -0.51201002430E+01 -0.24436222962E+02  0.90815191011E+02  0.94184623679E+02  0.00000000000E+00 0.  1.
</event>
<event>
 4    1  0.9360795E+003  0.3521431E+02  0.7546771E-02  0.1379063E+00
          2   -1    0    0  501    0  0.00000000000E+00  0.00000000000E+00  0.21766237988E+03  0.21766237988E+03  0.00000000000E+00 0. -1.
          2   -1    0    0  502    0 -0.00000000000E+00 -0.00000000000E+00 -0.43417426344E+03  0.43417426344E+03  0.00000000000E+00 0.  1.
          2    1    1    2  501    0  0.32884309662E+02  0.12596421768E+02 -0.43202889720E+03  0.43346166575E+03  0.00000000000E+00 0.  1.
          2    1    1    2  502    0 -0.32884309662E+02 -0.12596421768E+02  0.21551701363E+03  0.21837497757E+03  0.00000000000E+00 0. -1.
</event>
<event>
 4    1  0.9360795E+003  0.3336418E+02  0.7546771E-02  0.1392443E+00
          2   -1    0    0  501    0  0.00000000000E+00  0.00000000000E+00  0.25810317006E+02  0.25810317006E+02  0.00000000000E+00 0.  1.
          2   -1    0    0  502    0 -0.00000000000E+00 -0.00000000000E+00 -0.81123616338E+03  0.81123616338E+03  0.00000000000E+00 0.  1.
          2    1    1    2  501    0  0.59008388660E+01  0.32838218818E+02 -0.79995897850E+03  0.80065444219E+03  0.00000000000E+00 0.  1.
          2    1    1    2  502    0 -0.59008388660E+01 -0.32838218818E+02  0.14533132129E+02  0.36392038194E+02  0.00000000000E+00 0.  1.
</event>
<event>
 4    1  0.9360795E+003  0.4101538E+02  0.7546771E-02  0.1342636E+00
          2   -1    0    0  501    0  0.00000000000E+00  0.00000000000E+00  0.14462253213E+04  0.14462253213E+04  0.00000000000E+00 0. -1.
          2   -1    0    0  502    0 -0.00000000000E+00 -0.00000000000E+00 -0.56333072477E+03  0.56333072477E+03  0.00000000000E+00 0.  1.
          2    1    1    2  501    0 -0.77068747387E+01 -0.40284805767E+02 -0.56229281739E+03  0.56378672739E+03  0.00000000000E+00 0.  1.
          2    1    1    2  502    0  0.77068747387E+01  0.40284805767E+02  0.14451874139E+04  0.14457693187E+04  0.00000000000E+00 0. -1.
</event>
<event>
 4    1  0.9360795E+003  0.2887166E+02  0.7546771E-02  0.1429662E+00
          2   -1    0    0  502    0  0.00000000000E+00  0.00000000000E+00  0.41783530520E+01  0.41783530520E+01  0.00000000000E+00 0.  1.
          2   -1    0    0  501    0 -0.00000000000E+00 -0.00000000000E+00 -0.66887968539E+03  0.66887968539E+03  0.00000000000E+00 0. -1.
          2    1    1    2  501    0 -0.15034295915E+02 -0.24648383332E+02 -0.50439932777E+02  0.58118496825E+02  0.00000000000E+00 0.  1.
          2    1    1    2  502    0  0.15034295915E+02  0.24648383332E+02 -0.61426139956E+03  0.61493954162E+03  0.00000000000E+00 0. -1.
</event>
<event>
 4    1  0.9360795E+003  0.6253954E+02  0.7546771E-02  0.1251440E+00
          2   -1    0    0  502    0  0.00000000000E+00  0.00000000000E+00  0.47627109061E+02  0.47627109061E+02  0.00000000000E+00 0.  1.
          2   -1    0    0  501    0 -0.00000000000E+00 -0.00000000000E+00 -0.19511501111E+04  0.19511501111E+04  0.00000000000E+00 0. -1.
          2    1    1    2  501    0 -0.48520450765E+02 -0.39458333359E+02  0.26369596287E+02  0.67871568585E+02  0.00000000000E+00 0.  1.
          2    1    1    2  502    0  0.48520450765E+02  0.39458333359E+02 -0.19298925983E+04  0.19309056516E+04  0.00000000000E+00 0. -1.
</event>
<event>
 4    1  0.9360795E+003  0.5238363E+02  0.7546771E-02  0.1288156E+00
          2   -1    0    0  502    0  0.00000000000E+00  0.00000000000E+00  0.16208047324E+03  0.16208047324E+03  0.00000000000E+00 0. -1.
          2   -1    0    0  501    0 -0.00000000000E+00 -0.00000000000E+00 -0.58173945095E+02  0.58173945095E+02  0.00000000000E+00 0.  1.
          2    1    1    2  501    0 -0.51587014648E+02 -0.91008106705E+01  0.14468101938E+03  0.15387216189E+03  0.00000000000E+00 0. -1.
          2    1    1    2  502    0  0.51587014648E+02  0.91008106705E+01 -0.40774491237E+02  0.66382256445E+02  0.00000000000E+00 0.  1.
</event>
<event>
 4    1  0.9360795E+003  0.2271429E+02  0.7546771E-02  0.1496117E+00
          2   -1    0    0  502    0  0.00000000000E+00  0.00000000000E+00  0.18672182415E+03  0.18672182415E+03  0.00000000000E+00 0.  1.
          2   -1    0    0  501    0 -0.00000000000E+00 -0.00000000000E+00 -0.24655276376E+03  0.24655276376E+03  0.00000000000E+00 0.  1.
          2    1    1    2  501    0 -0.11849316308E+02 -0.19378668960E+02  0.18550446518E+03  0.18688992940E+03  0.00000000000E+00 0.  1.
          2    1    1    2  502    0  0.11849316308E+02  0.19378668960E+02 -0.24533540479E+03  0.24638465851E+03  0.00000000000E+00 0.  1.
</event>
<event>
 4    1  0.9360795E+003  0.2111942E+02  0.7546771E-02  0.1517567E+00
          2   -1    0    0  501    0  0.00000000000E+00  0.00000000000E+00  0.65008008863E+00  0.65008008863E+00  0.00000000000E+00 0. -1.
          2   -1    0    0  502    0 -0.00000000000E+00 -0.00000000000E+00 -0.94174973947E+03  0.94174973947E+03  0.00000000000E+00 0. -1.
          2    1    1    2  501    0  0.20944567046E+02  0.27120258232E+01 -0.71604730135E+03  0.71635868651E+03  0.00000000000E+00 0. -1.
          2    1    1    2  502    0 -0.20944567046E+02 -0.27120258232E+01 -0.22505235803E+03  0.22604113305E+03  0.00000000000E+00 0. -1.
</event>
<event>
 4    1  0.9360795E+003  0.2014962E+02  0.7546771E-02  0.1531761E+00
          2   -1    0    0  501    0  0.00000000000E+00  0.00000000000E+00  0.33424135568E+03  0.33424135568E+03  0.00000000000E+00 0.  1.
          2   -1    0    0  502    0 -0.00000000000E+00 -0.00000000000E+00 -0.14680105228E+02  0.14680105228E+02  0.00000000000E+00 0. -1.
          2    1    1    2  501    0  0.14966467154E+02 -0.13491186424E+02 -0.73063548631E+01  0.21433386844E+02  0.00000000000E+00 0. -1.
          2    1    1    2  502    0 -0.14966467154E+02  0.13491186424E+02  0.32686760532E+03  0.32748807407E+03  0.00000000000E+00 0.  1.
</event>
<event>
 4    1  0.9360795E+003  0.3437870E+02  0.7546771E-02  0.1384984E+00
          2   -1    0    0  502    0  0.00000000000E+00  0.00000000000E+00  0.42442822836E+02  0.42442822836E+02  0.00000000000E+00 0.  1.
          2   -1    0    0  501    0 -0.00000000000E+00 -0.00000000000E+00 -0.27971124123E+02  0.27971124123E+02  0.00000000000E+00 0.  1.
          2    1    1    2  501    0  0.25646952724E+02 -0.22893863429E+02  0.48882791208E+01  0.34724493365E+02  0.00000000000E+00 0.  1.
          2    1    1    2  502    0 -0.25646952724E+02  0.22893863429E+02  0.95834195920E+01  0.35689453593E+02  0.00000000000E+00 0.  1.
</event>
<event>
 4    1  0.9360795E+003  0.7796628E+02  0.7546771E-02  0.1208649E+00
          2   -1    0    0  501    0  0.00000000000E+00  0.00000000000E+00  0.46764097506E+03  0.46764097506E+03  0.00000000000E+00 0. -1.
          2   -1    0    0  502    0 -0.00000000000E+00 -0.00000000000E+00 -0.34231971831E+02  0.34231971831E+02  0.00000000000E+00 0.  1.
          2    1    1    2  501    0  0.33311153088E+02 -0.70491903068E+02  0.19073109599E+02  0.80265340142E+02  0.00000000000E+00 0.  1.
          2    1    1    2  502    0 -0.33311153088E+02  0.70491903068E+02  0.41433589363E+03  0.42160760675E+03  0.00000000000E+00 0. -1.
</event>
<event>
 4    1  0.9360795E+003  0.2127477E+02  0.7546771E-02  0.1515378E+00
          2   -1    0    0  501    0  0.00000000000E+00  0.00000000000E+00  0.12887647169E+02  0.12887647169E+02  0.00000000000E+00 0.  1.
          2   -1    0    0  502    0 -0.00000000000E+00 -0.00000000000E+00 -0.78293753426E+02  0.78293753426E+02  0.00000000000E+00 0. -1.
          2    1    1    2  501    0 -0.18156273770E+02 -0.11088985509E+02 -0.66557984917E+02  0.69875469466E+02  0.00000000000E+00 0. -1.
          2    1    1    2  502    0  0.18156273770E+02  0.11088985509E+02  0.11518786590E+01  0.21305931129E+02  0.00000000000E+00 0.  1.
</event>
<event>
 4    1  0.9360795E+003  0.2050774E+02  0.7546771E-02  0.1526410E+00
          2   -1    0    0  501    0  0.00000000000E+00  0.00000000000E+00  0.79823700881E+01  0.79823700881E+01  0.00000000000E+00 0. -1.
          2   -1    0    0  502    0 -0.00000000000E+00 -0.00000000000E+00 -0.37353816043E+03  0.37353816043E+03  0.00000000000E+00 0. -1.
          2    1    1    2  501    0 -0.17019945489E+02 -0.11440664673E+02 -0.35957380703E+03  0.36015814589E+03  0.00000000000E+00 0. -1.
          2    1    1    2  502    0  0.17019945489E+02  0.11440664673E+02 -0.59819833182E+01  0.21362384629E+02  0.00000000000E+00 0. -1.
</event>
<event>
 4    1  0.9360795E+003  0.2085919E+02  0.7546771E-02  0.1521285E+00
          2   -1    0    0  502    0  0.00000000000E+00  0.00000000000E+00  0.49361219344E+00  0.49361219344E+00  0.00000000000E+00 0. -1.
          2   -1    0    0  501    0 -0.00000000000E+00 -0.00000000000E+00 -0.11954547447E+04  0.11954547447E+04  0.00000000000E+00 0. -1.
          2    1    1    2  501    0  0.15208416653E+02  0.14276196451E+02 -0.29102451708E+03  0.29177110080E+03  0.00000000000E+00 0. -1.
          2    1    1    2  502    0 -0.15208416653E+02 -0.14276196451E+02 -0.90393661538E+03  0.90417725605E+03  0.00000000000E+00 0. -1.
</event>
<event>
 4    1  0.9360795E+003  0.3010274E+02  0.7546771E-02  0.1418706E+00
          2   -1    0    0  501    0  0.00000000000E+00  0.00000000000E+00  0.43215587963E+03  0.43215587963E+03  0.00000000000E+00 0.  1.
          2   -1    0    0  502    0 -0.00000000000E+00 -0.00000000000E+00 -0.63572008772E+03  0.63572008772E+03  0.00000000000E+00 0.  1.
          2    1    1    2  501    0  0.20902332704E+02 -0.21662578109E+02 -0.63483878520E+03  0.63555208913E+03  0.00000000000E+00 0.  1.
          2    1    1    2  502    0 -0.20902332704E+02  0.21662578109E+02  0.43127457712E+03  0.43232387821E+03  0.00000000000E+00 0.  1.
</event>
<event>
 4    1  0.9360795E+003  0.2008126E+02  0.7546771E-02  0.1532797E+00
          2   -1    0    0  502    0  0.00000000000E+00  0.00000000000E+00  0.28630964360E+01  0.28630964360E+01  0.00000000000E+00 0.  1.
          2   -1    0    0  501    0 -0.00000000000E+00 -0.00000000000E+00 -0.67202513798E+03  0.67202513798E+03  0.00000000000E+00 0.  1.
          2    1    1    2  501    0  0.20080107419E+02 -0.21524253415E+00 -0.34575385658E+02  0.39983925979E+02  0.00000000000E+00 0.  1.
          2    1    1    2  502    0 -0.20080107419E+02  0.21524253415E+00 -0.63458665588E+03  0.63490430843E+03  0.00000000000E+00 0.  1.
</event>
<event>
 4    1  0.9360795E+003  0.3687372E+02  0.7546771E-02  0.1367848E+00
          2   -1    0    0  501    0  0.00000000000E+00  0.00000000000E+00  0.85590785353E+03  0.85590785353E+03  0.00000000000E+00 0.  1.
          2   -1    0    0  502    0 -0.00000000000E+00 -0.00000000000E+00 -0.24927520962E+01  0.24927520962E+01  0.00000000000E+00 0.  1.
          2    1    1    2  501    0 -0.27019570884E+02 -0.25092114526E+02  0.16821507987E+03  0.17220913018E+03  0.00000000000E+00 0.  1.
          2    1    1    2  502    0  0.27019570884E+02  0.25092114526E+02  0.68520002156E+03  0.68619147544E+03  0.00000000000E+00 0.  1.
</event>
<event>
 4    1  0.9360795E+003  0.2375932E+02  0.7546771E-02  0.1483177E+00
          2   -1    0    0  502    0  0.00000000000E+00  0.00000000000E+00  0.28334009652E+03  0.28334009652E+03  0.00000000000E+00 0. -1.
          2   -1    0    0  501    0 -0.00000000000E+00 -0.00000000000E+00 -0.28173088960E+01  0.28173088960E+01  0.00000000000E+00 0. -1.
          2    1    1    2  501    0  0.16444154239E+02  0.17149198536E+02  0.21768632190E+03  0.21897908567E+03  0.00000000000E+00 0. -1.
          2    1    1    2  502    0 -0.16444154239E+02 -0.17149198536E+02  0.62836465727E+02  0.67178319748E+02  0.00000000000E+00 0. -1.
</event>
<event>
 4    1  0.9360795E+003  0.2370548E+02  0.7546771E-02  0.1483824E+00
          2   -1    0    0  501    0  0.00000000000E+00  0.00000000000E+00  0.15088774224E+04  0.15088774224E+04  0.00000000000E+00 0. -1.
          2   -1    0    0  502    0 -0.00000000000E+00 -0.00000000000E+00 -0.25113400105E+02  0.25113400105E+02  0.00000000000E+00 0.  1.
          2    1    1    2  501    0  0.82655302217E+01  0.22217798651E+02 -0.19404929117E+02  0.30634961087E+02  0.00000000000E+00 0.  1.
          2    1    1    2  502    0 -0.82655302217E+01 -0.22217798651E+02  0.15031689514E+04  0.15033558614E+04  0.00000000000E+00 0. -1.
</event>
<event>
 4    1  0.9360795E+003  0.2784429E+02  0.7546771E-02  0.1439307E+00
          2   -1    0    0  502    0  0.00000000000E+00  0.00000000000E+00  0.44225631132E+03  0.44225631132E+03  0.00000000000E+00 0. -1.
          2   -1    0    0  501    0 -0.00000000000E+00 -0.00000000000E+00 -0.12610502756E+03  0.12610502756E+03  0.00000000000E+00 0.  1.
          2    1    1    2  501    0  0.12598050161E+02  0.24831303120E+02  0.44027411041E+03  0.44115371105E+03  0.00000000000E+00 0. -1.
          2    1    1    2  502    0 -0.12598050161E+02 -0.24831303120E+02 -0.12412282665E+03  0.12720762783E+03  0.00000000000E+00 0.  1.
</event>
<event>
 4    1  0.9360795E+003  0.3978091E+02  0.7546771E-02  0.1349774E+00
          2   -1    0    0  502    0  0.00000000000E+00  0.00000000000E+00  0.74950950070E+01  0.74950950070E+01  0.00000000000E+00 0. -1.
          2   -1    0    0  501    0 -0.00000000000E+00 -0.00000000000E+00 -0.50913601823E+03  0.50913601823E+03  0.00000000000E+00 0.  1.
          2    1    1    2  501    0 -0.26459396440E+01  0.39692814592E+02 -0.53197100333E+02  0.66426290057E+02  0.00000000000E+00 0. -1.
          2    1    1    2  502    0  0.26459396440E+01 -0.39692814592E+02 -0.44844382289E+03  0.45020482318E+03  0.00000000000E+00 0.  1.
</event>
<event>
 4    1  0.9360795E+003  0.2052756E+02  0.7546771E-02  0.1526118E+00
          2   -1    0    0  501    0  0.00000000000E+00  0.00000000000E+00  0.28883467388E+03  0.28883467388E+03  0.00000000000E+00 0.  1.
          2   -1    0    0  502    0 -0.00000000000E+00 -0.00000000000E+00 -0.78925553652E+03  0.78925553652E+03  0.00000000000E+00 0. -1.
          2    1    1    2  501    0  0.14693640732E+02  0.14334487001E+02 -0.78875710728E+03  0.78902417889E+03  0.00000000000E+00 0. -1.
          2    1    1    2  502    0 -0.14693640732E+02 -0.14334487001E+02  0.28833624464E+03  0.28906603150E+03  0.00000000000E+00 0.  1.
</event>
<event>
 4    1  0.9360795E+003  0.2753873E+02  0.7546771E-02  0.1442270E+00
          2   -1    0    0  501    0  0.00000000000E+00  0.00000000000E+00  0.28030865808E+02  0.28030865808E+02  0.00000000000E+00 0. -1.
          2   -1    0    0  502    0 -0.00000000000E+00 -0.00000000000E+00 -0.53782436006E+02  0.53782436006E+02  0.00000000000E+00 0. -1.
          2    1    1    2  501    0 -0.25677947310E+02  0.99511211781E+01 -0.41712806020E+02  0.49983397012E+02  0.00000000000E+00 0. -1.
          2    1    1    2  502    0  0.25677947310E+02 -0.99511211781E+01  0.15961235823E+02  0.31829904803E+02  0.00000000000E+00 0. -1.
</event>
<event>
 4    1  0.9360795E+003  0.2617403E+02  0.7546771E-02  0.1456086E+00
          2   -1    0    0  501    0  0.00000000000E+00  0.00000000000E+00  0.85211955031E+03  0.85211955031E+03  0.00000000000E+00 0.  1.
          2   -1    0    0  502    0 -0.00000000000E+00 -0.00000000000E+00 -0.22901837195E+02  0.22901837195E+02  0.00000000000E+00 0. -1.
          2    1    1    2  501    0  0.25068296996E+02 -0.75273037560E+01 -0.15153800598E+02  0.30244296796E+02  0.00000000000E+00 0. -1.
          2    1    1    2  502    0 -0.25068296996E+02  0.75273037560E+01  0.84437151371E+03  0.84477709071E+03  0.00000000000E+00 0.  1.
</event>
<event>
 4    1  0.9360795E+003  0.3366145E+02  0.7546771E-02  0.1390226E+00
          2   -1    0    0  502    0  0.00000000000E+00  0.00000000000E+00  0.41677958535E+03  0.41677958535E+03  0.00000000000E+00 0. -1.
          2   -1    0    0  501    0 -0.00000000000E+00 -0.00000000000E+00 -0.16093633627E+03  0.16093633627E+03  0.00000000000E+00 0.  1.
          2    1    1    2  501    0  0.22550075086E+02  0.24991742718E+02  0.41432936443E+03  0.41569449758E+03  0.00000000000E+00 0. -1.
          2    1    1    2  502    0 -0.22550075086E+02 -0.24991742718E+02 -0.15848611534E+03  0.16202142404E+03  0.00000000000E+00 0.  1.
</event>
<event>
 4    1  0.9360795E+003  0.5481592E+02  0.7546771E-02  0.1278542E+00
          2   -1    0    0  501    0  0.00000000000E+00  0.00000000000E+00  0.13906124377E+03  0.13906124377E+03  0.00000000000E+00 0.  1.
          2   -1    0    0  502    0 -0.00000000000E+00 -0.00000000000E+00 -0.14557217309E+03  0.14557217309E+03  0.00000000000E+00 0. -1.
          2    1    1    2  501    0  0.52602717515E+02 -0.15418787507E+02 -0.13458591621E+03  0.14532086478E+03  0.00000000000E+00 0. -1.
          2    1    1    2  502    0 -0.52602717515E+02  0.15418787507E+02  0.12807498689E+03  0.13931255207E+03  0.00000000000E+00 0.  1.
</event>
<event>
 4    1  0.9360795E+003  0.3519476E+02  0.7546771E-02  0.1379199E+00
          2   -1    0    0  501    0  0.00000000000E+00  0.00000000000E+00  0.46213918431E+03  0.46213918431E+03  0.00000000000E+00 0.  1.
          2   -1    0    0  502    0 -0.00000000000E+00 -0.00000000000E+00 -0.24228920103E+03  0.24228920103E+03  0.00000000000E+00 0. -1.
          2    1    1    2  501    0 -0.30452883604E+02 -0.17643505805E+02 -0.24033561644E+03  0.24289890891E+03  0.00000000000E+00 0. -1.
          2    1    1    2  502    0  0.30452883604E+02  0.17643505805E+02  0.46018559973E+03  0.46152947643E+03  0.00000000000E+00 0.  1.
</event>
<event>
 4    1  0.9360795E+003  0.2766465E+02  0.7546771E-02  0.1441043E+00
          2   -1    0    0  502    0  0.00000000000E+00  0.00000000000E+00  0.30037628904E+02  0.30037628904E+02  0.00000000000E+00 0.  1.
          2   -1    0    0  501    0 -0.00000000000E+00 -0.00000000000E+00 -0.38488292196E+03  0.38488292196E+03  0.00000000000E+00 0.  1.
          2    1    1    2  501    0  0.27410880166E+02 -0.37385084933E+01  0.23053152997E+02  0.36010840873E+02  0.00000000000E+00 0.  1.
          2    1    1    2  502    0 -0.27410880166E+02  0.37385084933E+01 -0.37789844605E+03  0.37890970999E+03  0.00000000000E+00 0.  1.
</event>
<event>
 4    1  0.9360795E+003  0.2422674E+02  0.7546771E-02  0.1477643E+00
          2   -1    0    0  502    0  0.00000000000E+00  0.00000000000E+00  0.10935777919E+02  0.10935777919E+02  0.00000000000E+00 0.  1.
          2   -1    0    0  501    0 -0.00000000000E+00 -0.00000000000E+00 -0.10314040826E+04  0.10314040826E+04  0.00000000000E+00 0.  1.
          2    1    1    2  501    0  0.65553193211E+01 -0.23323011358E+02 -0.28054098160E+01  0.24388632484E+02  0.00000000000E+00 0.  1.
          2    1    1    2  502    0 -0.65553193211E+01  0.23323011358E+02 -0.10176628948E+04  0.10179512280E+04  0.00000000000E+00 0.  1.
</event>
<event>
 4    1  0.9360795E+003  0.4548902E+02  0.7546771E-02  0.1319012E+00
          2   -1    0    0  502    0  0.00000000000E+00  0.00000000000E+00  0.60080976560E+03  0.60080976560E+03  0.00000000000E+00 0. -1.
          2   -1    0    0  501    0 -0.00000000000E+00 -0.00000000000E+00 -0.29861940789E+03  0.29861940789E+03  0.00000000000E+00 0.  1.
          2    1    1    2  501    0 -0.45361849466E+02 -0.33990798936E+01  0.59820887046E+03  0.59993591643E+03  0.00000000000E+00 0. -1.
          2    1    1    2  502    0  0.45361849466E+02  0.33990798936E+01 -0.29601851275E+03  0.29949325706E+03  0.00000000000E+00 0.  1.
</event>
<event>
 4    1  0.9360795E+003  0.2142768E+02  0.7546771E-02  0.1513246E+00
          2   -1    0    0  501    0  0.00000000000E+00  0.00000000000E+00  0.21312241824E+03  0.21312241824E+03  0.00000000000E+00 0. -1.
          2   -1    0    0  502    0 -0.00000000000E+00 -0.00000000000E+00 -0.81560759939E+02  0.81560759939E+02  0.00000000000E+00 0. -1.
          2    1    1    2  501    0 -0.21150086356E+02  0.34378997864E+01 -0.79601771660E+02  0.82435352605E+02  0.00000000000E+00 0. -1.
          2    1    1    2  502    0  0.21150086356E+02 -0.34378997864E+01  0.21116342996E+03  0.21224782557E+03  0.00000000000E+00 0. -1.
</event>
<event>
 4    1  0.9360795E+003  0.2749909E+03  0.7546771E-02  0.1011868E+00
          2   -1    0    0  502    0  0.00000000000E+00  0.00000000000E+00  0.25581119669E+03  0.25581119669E+03  0.00000000000E+00 0.  1.
          2   -1    0    0  501    0 -0.00000000000E+00 -0.00000000000E+00 -0.48558274020E+03  0.48558274020E+03  0.00000000000E+00 0. -1.
          2    1    1    2  501    0 -0.26075931628E+03  0.87318826570E+02  0.11697891929E+03  0.29883785915E+03  0.00000000000E+00 0.  1.
          2    1    1    2  502    0  0.26075931628E+03 -0.87318826570E+02 -0.34675046280E+03  0.44255607775E+03  0.00000000000E+00 0. -1.
</event>
<event>
 4    1  0.9360795E+003  0.2577501E+02  0.7546771E-02  0.1460317E+00
          2   -1    0    0  501    0  0.00000000000E+00  0.00000000000E+00  0.86207593936E+00  0.86207593936E+00  0.00000000000E+00 0. -1.
          2   -1    0    0  502    0 -0.00000000000E+00 -0.00000000000E+00 -0.91128590503E+03  0.91128590503E+03  0.00000000000E+00 0. -1.
          2    1    1    2  501    0 -0.89961172881E+00 -0.25759305595E+02 -0.63438380251E+03  0.63490720583E+03  0.00000000000E+00 0. -1.
          2    1    1    2  502    0  0.89961172881E+00  0.25759305595E+02 -0.27604002658E+03  0.27724077514E+03  0.00000000000E+00 0. -1.
</event>
<event>
 4    1  0.1758831E+004  0.2837160E+02  0.7546771E-02  0.1434296E+00
          2   -1    0    0  502    0  0.00000000000E+00  0.00000000000E+00  0.86849280381E+03  0.86849280381E+03  0.00000000000E+00 0.  1.
          2   -1    0    0  501    0 -0.00000000000E+00 -0.00000000000E+00 -0.12088100317E+04  0.12088100317E+04  0.00000000000E+00 0.  1.
          2    1    1    2  501    0  0.27024648074E+02  0.86380569804E+01  0.86809454404E+03  0.86855804931E+03  0.00000000000E+00 0.  1.
          2    1    1    2  502    0 -0.27024648074E+02 -0.86380569804E+01 -0.12084117719E+04  0.12087447862E+04  0.00000000000E+00 0.  1.
</event>
<event>
 4    1  0.9360795E+003  0.2800312E+02  0.7546771E-02  0.1437784E+00
          2   -1    0    0  501    0  0.00000000000E+00  0.00000000000E+00  0.99996292174E+03  0.99996292174E+03  0.00000000000E+00 0. -1.
          2   -1    0    0  502    0 -0.00000000000E+00 -0.00000000000E+00 -0.12778344742E+02  0.12778344742E+02  0.00000000000E+00 0. -1.
          2    1    1    2  501    0  0.25042803377E+02  0.12531279115E+02  0.30055769002E+01  0.28163956571E+02  0.00000000000E+00 0. -1.
          2    1    1    2  502    0 -0.25042803377E+02 -0.12531279115E+02  0.98417900010E+03  0.98457730991E+03  0.00000000000E+00 0. -1.
</event>
<event>
 4    1  0.9360795E+003  0.3788835E+02  0.7546771E-02  0.1361325E+00
          2   -1    0    0  502    0  0.00000000000E+00  0.00000000000E+00  0.12583176861E+04  0.12583176861E+04  0.00000000000E+00 0. -1.
          2   -1    0    0  501    0 -0.00000000000E+00 -0.00000000000E+00 -0.11716462377E+01  0.11716462377E+01  0.00000000000E+00 0.  1.
          2    1    1    2  501    0 -0.37561540859E+02  0.49656544384E+01  0.73070298858E+03  0.73168462099E+03  0.00000000000E+00 0. -1.
          2    1    1    2  502    0  0.37561540859E+02 -0.49656544384E+01  0.52644305124E+03  0.52780471130E+03  0.00000000000E+00 0.  1.
</event>
<event>
 4    1  0.9360795E+003  0.2128428E+02  0.7546771E-02  0.1515245E+00
          2   -1    0    0  501    0  0.00000000000E+00  0.00000000000E+00  0.89141693660E+01  0.89141693660E+01  0.00000000000E+00 0.  1.
          2   -1    0    0  502    0 -0.00000000000E+00 -0.00000000000E+00 -0.10880842608E+04  0.10880842608E+04  0.00000000000E+00 0.  1.
          2    1    1    2  501    0 -0.20935654996E+02  0.38365003140E+01 -0.10751219448E+04  0.10753326074E+04  0.00000000000E+00 0.  1.
          2    1    1    2  502    0  0.20935654996E+02 -0.38365003140E+01 -0.40481466506E+01  0.21665822765E+02  0.00000000000E+00 0.  1.
</event>
<event>
 4    1  0.9360795E+003  0.2334169E+02  0.7546771E-02  0.1488252E+00
          2   -1    0    0  501    0  0.00000000000E+00  0.00000000000E+00  0.35054825081E+01  0.35054825081E+01  0.00000000000E+00 0.  1.
          2   -1    0    0  502    0 -0.00000000000E+00 -0.00000000000E+00 -0.31340039511E+03  0.31340039511E+03  0.00000000000E+00 0. -1.
          2    1    1    2  501    0 -0.50305205153E-01 -0.23341635177E+02 -0.26744609707E+03  0.26846275217E+03  0.00000000000E+00 0. -1.
          2    1    1    2  502    0  0.50305205153E-01  0.23341635177E+02 -0.42448815532E+02  0.48443125450E+02  0.00000000000E+00 0.  1.
</event>
<event>
 4    1  0.9360795E+003  0.2831886E+02  0.7546771E-02  0.1434791E+00
          2   -1    0    0  502    0  0.00000000000E+00  0.00000000000E+00  0.24193687002E+03  0.24193687002E+03  0.00000000000E+00 0.  1.
          2   -1    0    0  501    0 -0.00000000000E+00 -0.00000000000E+00 -0.22356211660E+02  0.22356211660E+02  0.00000000000E+00 0. -1.
          2    1    1    2  501    0 -0.27940445000E+02 -0.46140580506E+01  0.23174738735E+03  0.23347121780E+03  0.00000000000E+00 0.  1.
          2    1    1    2  502    0  0.27940445000E+02  0.46140580506E+01 -0.12166728992E+02  0.30821863877E+02  0.00000000000E+00 0. -1.
</event>
<event>
 4    1  0.1205337E+004  0.2195608E+02  0.7546771E-02  0.1506040E+00
          2   -1    0    0  501    0  0.00000000000E+00  0.00000000000E+00  0.12505524186E+04  0.12505524186E+04  0.00000000000E+00 0. -1.
          2   -1    0    0  502    0 -0.00000000000E+00 -0.00000000000E+00 -0.49884660477E+03  0.49884660477E+03  0.00000000000E+00 0. -1.
          2    1    1    2  501    0 -0.76445923285E+01  0.20582263570E+02 -0.49850857619E+03  0.49899185354E+03  0.00000000000E+00 0. -1.
          2    1    1    2  502    0  0.76445923285E+01 -0.20582263570E+02  0.12502143900E+04  0.12504071698E+04  0.00000000000E+00 0. -1.
</event>
<event>
 4    1  0.9360795E+003  0.2136914E+02  0.7546771E-02  0.1514059E+00
          2   -1    0    0  502    0  0.00000000000E+00  0.00000000000E+00  0.17314916455E+03  0.17314916455E+03  0.00000000000E+00 0.  1.
          2   -1    0    0  501    0 -0.00000000000E+00 -0.00000000000E+00 -0.53245842610E+01  0.53245842610E+01  0.00000000000E+00 0.  1.
          2    1    1    2  501    0  0.21071859168E+02 -0.35520089565E+01  0.14730819882E+03  0.14885007711E+03  0.00000000000E+00 0.  1.
          2    1    1    2  502    0 -0.21071859168E+02  0.35520089565E+01  0.20516381470E+02  0.29623671701E+02  0.00000000000E+00 0.  1.
</event>
<event>
 4    1  0.9360795E+003  0.2293626E+02  0.7546771E-02  0.1493300E+00
          2   -1    0    0  502    0  0.00000000000E+00  0.00000000000E+00  0.67757082572E+03  0.67757082572E+03  0.00000000000E+00 0.  1.
          2   -1    0    0  501    0 -0.00000000000E+00 -0.00000000000E+00 -0.93754129766E+01  0.93754129766E+01  0.00000000000E+00 0. -1.
          2    1    1    2  501    0 -0.21854660052E+02 -0.69603001596E+01  0.66304145021E+03  0.66343804280E+03  0.00000000000E+00 0.  1.
          2    1    1    2  502    0  0.21854660052E+02  0.69603001596E+01  0.51539625338E+01  0.23508195892E+02  0.00000000000E+00 0. -1.
</event>
<event>
 4    1  0.9360795E+003  0.2490667E+02  0.7546771E-02  0.1469850E+00
          2   -1    0    0  501    0  0.00000000000E+00  0.00000000000E+00  0.37538632036E+02  0.37538632036E+02  0.00000000000E+00 0. -1.
          2   -1    0    0  502    0 -0.00000000000E+00 -0.00000000000E+00 -0.12569851100E+03  0.12569851100E+03  0.00000000000E+00 0. -1.
          2    1    1    2  501    0  0.26738498068E+01  0.24762726624E+02 -0.12014438483E+03  0.12269888064E+03  0.00000000000E+00 0. -1.
          2    1    1    2  502    0 -0.26738498068E+01 -0.24762726624E+02  0.31984505869E+02  0.40538262399E+02  0.00000000000E+00 0. -1.
</event>
<event>
 4    1  0.9360795E+003  0.2438868E+02  0.7546771E-02  0.1475760E+00
          2   -1    0    0  502    0  0.00000000000E+00  0.00000000000E+00  0.13327710260E+04  0.13327710260E+04  0.00000000000E+00 0. -1.
          2   -1    0    0  501    0 -0.00000000000E+00 -0.00000000000E+00 -0.12895214120E+01  0.12895214120E+01  0.00000000000E+00 0. -1.
          2    1    1    2  501    0  0.23533817383E+02 -0.64005612091E+01  0.12051316560E+04  0.12053784119E+04  0.00000000000E+00 0. -1.
          2    1    1    2  502    0 -0.23533817383E+02  0.64005612091E+01  0.12634984860E+03  0.12868213546E+03  0.00000000000E+00 0. -1.
</event>
<event>
 4    1  0.9360795E+003  0.2027546E+02  0.7546771E-02  0.1529866E+00
          2   -1    0    0  501    0  0.00000000000E+00  0.00000000000E+00  0.62592601847E+02  0.62592601847E+02  0.00000000000E+00 0. -1.
          2   -1    0    0  502    0 -0.00000000000E+00 -0.00000000000E+00 -0.96544410089E+02  0.96544410089E+02  0.00000000000E+00 0. -1.
          2    1    1    2  501    0 -0.17630617545E+02 -0.10012772346E+02 -0.93790279700E+02  0.95956817638E+02  0.00000000000E+00 0. -1.
          2    1    1    2  502    0  0.17630617545E+02  0.10012772346E+02  0.59838471458E+02  0.63180194298E+02  0.00000000000E+00 0. -1.
</event>
<event>
 4    1  0.9360795E+003  0.2224749E+02  0.7546771E-02  0.1502170E+00
          2   -1    0    0  502    0  0.00000000000E+00  0.00000000000E+00  0.53179746559E+03  0.53179746559E+03  0.00000000000E+00 0. -1.
          2   -1    0    0  501    0 -0.00000000000E+00 -0.00000000000E+00 -0.44311794298E+01  0.44311794298E+01  0.00000000000E+00 0.  1.
          2    1    1    2  501    0 -0.11722919547E+00  0.22247185652E+02  0.50198272576E+03  0.50247547997E+03  0.00000000000E+00 0. -1.
          2    1    1    2  502    0  0.11722919547E+00 -0.22247185652E+02  0.25383560400E+02  0.33753165047E+02  0.00000000000E+00 0.  1.
</event>
<event>
 4    1  0.9360795E+003  0.2503517E+02  0.7546771E-02  0.1468410E+00
          2   -1    0    0  501    0  0.00000000000E+00  0.00000000000E+00  0.31393452071E+01  0.31393452071E+01  0.00000000000E+00 0. -1.
          2   -1    0    0  502    0 -0.00000000000E+00 -0.00000000000E+00 -0.37176141967E+03  0.37176141967E+03  0.00000000000E+00 0.  1.
          2    1    1    2  501    0  0.21118966697E+02 -0.13444296194E+02 -0.31185596770E+03  0.31285924062E+03  0.00000000000E+00 0.  1.
          2    1    1    2  502    0 -0.21118966697E+02  0.13444296194E+02 -0.56766106765E+02  0.62041524254E+02  0.00000000000E+00 0. -1.
</event>
<event>
 4    1  0.9360795E+003  0.4318927E+02  0.7546771E-02  0.1330746E+00
          2   -1    0    0  502    0  0.00000000000E+00  0.00000000000E+00  0.11391303206E+04  0.11391303206E+04  0.00000000000E+00 0. -1.
          2   -1    0    0  501    0 -0.00000000000E+00 -0.00000000000E+00 -0.58688713784E+03  0.58688713784E+03  0.00000000000E+00 0. -1.
          2    1    1    2  501    0  0.22390825772E+02 -0.36931883128E+02  0.11379255283E+04  0.11387448446E+04  0.00000000000E+00 0. -1.
          2    1    1    2  502    0 -0.22390825772E+02  0.36931883128E+02 -0.58568234557E+03  0.58727261385E+03  0.00000000000E+00 0. -1.
</event>
<event>
 4    1  0.9360795E+003  0.5733697E+02  0.7546771E-02  0.1269159E+00
          2   -1    0    0  502    0  0.00000000000E+00  0.00000000000E+00  0.35480347865E+02  0.35480347865E+02  0.00000000000E+00 0.  1.
          2   -1    0    0  501    0 -0.00000000000E+00 -0.00000000000E+00 -0.36493008713E+04  0.36493008713E+04  0.00000000000E+00 0.  1.
          2    1    1    2  501    0  0.17935516726E+02 -0.54459578932E+02  0.11940314731E+02  0.58567052287E+02  0.00000000000E+00 0.  1.
          2    1    1    2  502    0 -0.17935516726E+02  0.54459578932E+02 -0.36257608382E+04  0.36262141669E+04  0.00000000000E+00 0.  1.
</event>
<event>
 4    1  0.9360795E+003  0.3191542E+02  0.7546771E-02  0.1403651E+00
          2   -1    0    0  501    0  0.00000000000E+00  0.00000000000E+00  0.18000321118E+03  0.18000321118E+03  0.00000000000E+00 0. -1.
          2   -1    0    0  502    0 -0.00000000000E+00 -0.00000000000E+00 -0.10186524168E+03  0.10186524168E+03  0.00000000000E+00 0. -1.
          2    1    1    2  501    0 -0.30784289861E+02  0.84215065776E+01 -0.97894766146E+02  0.10296591433E+03  0.00000000000E+00 0. -1.
          2    1    1    2  502    0  0.30784289861E+02 -0.84215065776E+01  0.17603273564E+03  0.17890253853E+03  0.00000000000E+00 0. -1.
</event>
<event>
 4    1  0.9360795E+003  0.2035523E+02  0.7546771E-02  0.1528673E+00
          2   -1    0    0  502    0  0.00000000000E+00  0.00000000000E+00  0.13945007187E+04  0.13945007187E+04  0.00000000000E+00 0. -1.
          2   -1    0    0  501    0 -0.00000000000E+00 -0.00000000000E+00 -0.48958256725E+02  0.48958256725E+02  0.00000000000E+00 0. -1.
          2    1    1    2  501    0 -0.98134451130E+01 -0.17833446540E+02  0.13923073464E+04  0.13924561330E+04  0.00000000000E+00 0. -1.
          2    1    1    2  502    0  0.98134451130E+01  0.17833446540E+02 -0.46764884418E+02  0.51002842422E+02  0.00000000000E+00 0. -1.
</event>
<event>
 4    1  0.9360795E+003  0.2198739E+02  0.7546771E-02  0.1505621E+00
          2   -1    0    0  502    0  0.00000000000E+00  0.00000000000E+00  0.35866384613E+01  0.35866384613E+01  0.00000000000E+00 0.  1.
          2   -1    0    0  501    0 -0.00000000000E+00 -0.00000000000E+00 -0.13661129935E+04  0.13661129935E+04  0.00000000000E+00 0. -1.
          2    1    1    2  501    0 -0.21813364161E+02  0.27608460133E+01 -0.31076715580E+02  0.38068456469E+02  0.00000000000E+00 0.  1.
          2    1    1    2  502    0  0.21813364161E+02 -0.27608460133E+01 -0.13314496394E+04  0.13316311755E+04  0.00000000000E+00 0. -1.
</event>
<event>
 4    1  0.9360795E+003  0.3798577E+02  0.7546771E-02  0.1360711E+00
          2   -1    0    0  501    0  0.00000000000E+00  0.00000000000E+00  0.62954588542E+02  0.62954588542E+02  0.00000000000E+00 0. -1.
          2   -1    0    0  502    0 -0.00000000000E+00 -0.00000000000E+00 -0.14585365016E+03  0.14585365016E+03  0.00000000000E+00 0.  1.
          2    1    1    2  501    0  0.43341326289E+01  0.37737695552E+02 -0.13730003334E+03  0.14245777454E+03  0.00000000000E+00 0.  1.
          2    1    1    2  502    0 -0.43341326289E+01 -0.37737695552E+02  0.54400971719E+02  0.66350464167E+02  0.00000000000E+00 0. -1.
</event>
<event>
 4    1  0.9360795E+003  0.4218476E+02  0.7546771E-02  0.1336138E+00
          2   -1    0    0  502    0  0.00000000000E+00  0.00000000000E+00  0.48585161125E+02  0.48585161125E+02  0.00000000000E+00 0.  1.
          2   -1    0    0  501    0 -0.00000000000E+00 -0.00000000000E+00 -0.11791321964E+03  0.11791321964E+03  0.00000000000E+00 0.  1.
          2    1    1    2  501    0 -0.38743245968E+02  0.16688775362E+02  0.34456303983E+02  0.54468258788E+02  0.00000000000E+00 0.  1.
          2    1    1    2  502    0  0.38743245968E+02 -0.16688775362E+02 -0.10378436250E+03  0.11203012198E+03  0.00000000000E+00 0.  1.
</event>
<event>
 4    1  0.9360795E+003  0.2347336E+02  0.7546771E-02  0.1486638E+00
          2   -1    0    0  501    0  0.00000000000E+00  0.00000000000E+00  0.17438623562E+02  0.17438623562E+02  0.00000000000E+00 0. -1.
          2   -1    0    0  502    0 -0.00000000000E+00 -0.00000000000E+00 -0.42458104360E+03  0.42458104360E+03  0.00000000000E+00 0. -1.
          2    1    1    2  501    0  0.22031136998E+02 -0.81011013650E+01 -0.41619852359E+03  0.41685994036E+03  0.00000000000E+00 0. -1.
          2    1    1    2  502    0 -0.22031136998E+02  0.81011013650E+01  0.90561035561E+01  0.25159726794E+02  0.00000000000E+00 0. -1.
</event>
<event>
 4    1  0.9360795E+003  0.3605536E+02  0.7546771E-02  0.1373292E+00
          2   -1    0    0  502    0  0.00000000000E+00  0.00000000000E+00  0.11860916794E+01  0.11860916794E+01  0.00000000000E+00 0. -1.
          2   -1    0    0  501    0 -0.00000000000E+00 -0.00000000000E+00 -0.21942309409E+04  0.21942309409E+04  0.00000000000E+00 0.  1.
          2    1    1    2  501    0 -0.36048114855E+02  0.72280888460E+00 -0.31994050263E+03  0.32196570355E+03  0.00000000000E+00 0. -1.
          2    1    1    2  502    0  0.36048114855E+02 -0.72280888460E+00 -0.18731043466E+04  0.18734513291E+04  0.00000000000E+00 0.  1.
</event>
<event>
 4    1  0.9360795E+003  0.3045807E+02  0.7546771E-02  0.1415657E+00
          2   -1    0    0  501    0  0.00000000000E+00  0.00000000000E+00  0.23585354379E+03  0.23585354379E+03  0.00000000000E+00 0. -1.
          2   -1    0    0  502    0 -0.00000000000E+00 -0.00000000000E+00 -0.63627070831E+03  0.63627070831E+03  0.00000000000E+00 0. -1.
          2    1    1    2  501    0 -0.30404117925E+02 -0.18120792790E+01 -0.63492077740E+03  0.63565091646E+03  0.00000000000E+00 0. -1.
          2    1    1    2  502    0  0.30404117925E+02  0.18120792790E+01  0.23450361288E+03  0.23647333565E+03  0.00000000000E+00 0. -1.
</event>
<event>
 4    1  0.9360795E+003  0.2566203E+02  0.7546771E-02  0.1461532E+00
          2   -1    0    0  502    0  0.00000000000E+00  0.00000000000E+00  0.25327935484E+02  0.25327935484E+02  0.00000000000E+00 0. -1.
          2   -1    0    0  501    0 -0.00000000000E+00 -0.00000000000E+00 -0.40676189727E+03  0.40676189727E+03  0.00000000000E+00 0. -1.
          2    1    1    2  501    0 -0.20133514077E+01 -0.25582926854E+02  0.18309042613E+02  0.31523971382E+02  0.00000000000E+00 0. -1.
          2    1    1    2  502    0  0.20133514077E+01  0.25582926854E+02 -0.39974300440E+03  0.40056586137E+03  0.00000000000E+00 0. -1.
</event>
<event>
 4    1  0.9360795E+003  0.2379730E+02  0.7546771E-02  0.1482722E+00
          2   -1    0    0  501    0  0.00000000000E+00  0.00000000000E+00  0.23338729836E+02  0.23338729836E+02  0.00000000000E+00 0. -1.
          2   -1    0    0  502    0 -0.00000000000E+00 -0.00000000000E+00 -0.40963238621E+03  0.40963238621E+03  0.00000000000E+00 0.  1.
          2    1    1    2  501    0 -0.12389602446E+02 -0.20317708429E+02 -0.40312267042E+03  0.40382446550E+03  0.00000000000E+00 0.  1.
          2    1    1    2  502    0  0.12389602446E+02  0.20317708429E+02  0.16829014047E+02  0.29146650551E+02  0.00000000000E+00 0. -1.
</event>
<event>
 4    1  0.9360795E+003  0.4171621E+02  0.7546771E-02  0.1338712E+00
          2   -1    0    0  501    0  0.00000000000E+00  0.00000000000E+00  0.25907098963E+01  0.25907098963E+01  0.00000000000E+00 0.  1.
          2   -1    0    0  502    0 -0.00000000000E+00 -0.00000000000E+00 -0.14329373054E+04  0.14329373054E+04  0.00000000000E+00 0. -1.
          2    1    1    2  501    0  0.27802404244E+02 -0.31100936589E+02 -0.12383173305E+04  0.12390197952E+04  0.00000000000E+00 0. -1.
          2    1    1    2  502    0 -0.27802404244E+02  0.31100936589E+02 -0.19202926501E+03  0.19650822008E+03  0.00000000000E+00 0.  1.
</event>
<event>
 4    1  0.9360795E+003  0.2962637E+02  0.7546771E-02  0.1422871E+00
          2   -1    0    0  501    0  0.00000000000E+00  0.00000000000E+00  0.46952846034E+03  0.46952846034E+03  0.00000000000E+00 0.  1.
          2   -1    0    0  502    0 -0.00000000000E+00 -0.00000000000E+00 -0.94858452626E+02  0.94858452626E+02  0.00000000000E+00 0.  1.
          2    1    1    2  501    0  0.23005003662E+02  0.18667935616E+02 -0.92064033038E+02  0.96713536761E+02  0.00000000000E+00 0.  1.
          2    1    1    2  502    0 -0.23005003662E+02 -0.18667935616E+02  0.46673404075E+03  0.46767337620E+03  0.00000000000E+00 0.  1.
</event>
<event>
 4    1  0.9360795E+003  0.2120063E+02  0.7546771E-02  0.1516420E+00
          2   -1    0    0  501    0  0.00000000000E+00  0.00000000000E+00  0.13746823779E+02  0.13746823779E+02  0.00000000000E+00 0.  1.
          2   -1    0    0  502    0 -0.00000000000E+00 -0.00000000000E+00 -0.18869999595E+03  0.18869999595E+03  0.00000000000E+00 0.  1.
          2    1    1    2  501    0 -0.19056600772E+02  0.92904575429E+01 -0.17951366574E+03  0.18076123152E+03  0.00000000000E+00 0.  1.
          2    1    1    2  502    0  0.19056600772E+02 -0.92904575429E+01  0.45604935670E+01  0.21685588208E+02  0.00000000000E+00 0.  1.
</event>
<event>
 4    1  0.9360795E+003  0.2534948E+02  0.7546771E-02  0.1464931E+00
          2   -1    0    0  501    0  0.00000000000E+00  0.00000000000E+00  0.39955917454E+02  0.39955917454E+02  0.00000000000E+00 0. -1.
          2   -1    0    0  502    0 -0.00000000000E+00 -0.00000000000E+00 -0.30187523350E+02  0.30187523350E+02  0.00000000000E+00 0.  1.
          2    1    1    2  501    0 -0.24905983972E+02 -0.47210535342E+01 -0.19089122523E+02  0.31733121227E+02  0.00000000000E+00 0.  1.
          2    1    1    2  502    0  0.24905983972E+02  0.47210535342E+01  0.28857516627E+02  0.38410319577E+02  0.00000000000E+00 0. -1.
</event>
<event>
 4    1  0.9360795E+003  0.4202478E+02  0.7546771E-02  0.1337012E+00
          2   -1    0    0  501    0  0.00000000000E+00  0.00000000000E+00  0.16321198681E+03  0.16321198681E+03  0.00000000000E+00 0. -1.
          2   -1    0    0  502    0 -0.00000000000E+00 -0.00000000000E+00 -0.15780088080E+02  0.15780088080E+02  0.00000000000E+00 0.  1.
          2    1    1    2  501    0 -0.30359806838E+02 -0.29057945920E+02  0.23544188103E+02  0.48170643402E+02  0.00000000000E+00 0.  1.
          2    1    1    2  502    0  0.30359806838E+02  0.29057945920E+02  0.12388771063E+03  0.13082143149E+03  0.00000000000E+00 0. -1.
</event>
<event>
 4    1  0.9360795E+003  0.7818201E+02  0.7546771E-02  0.1208132E+00
          2   -1    0    0  502    0  0.00000000000E+00  0.00000000000E+00  0.13411150863E+02  0.13411150863E+02  0.00000000000E+00 0. -1.
          2   -1    0    0  501    0 -0.00000000000E+00 -0.00000000000E+00 -0.54550713966E+03  0.54550713966E+03  0.00000000000E+00 0. -1.
          2    1    1    2  501    0  0.72216605574E+02 -0.29953093839E+02 -0.15270372252E+03  0.17155422706E+03  0.00000000000E+00 0. -1.
          2    1    1    2  502    0 -0.72216605574E+02  0.29953093839E+02 -0.37939226628E+03  0.38736406346E+03  0.00000000000E+00 0. -1.
</event>
<event>
 4    1  0.9360795E+003  0.2960268E+02  0.7546771E-02  0.1423081E+00
          2   -1    0    0  501    0  0.00000000000E+00  0.00000000000E+00  0.52369619302E+00  0.52369619302E+00  0.00000000000E+00 0. -1.
          2   -1    0    0  502    0 -0.00000000000E+00 -0.00000000000E+00 -0.16819590312E+04  0.16819590312E+04  0.00000000000E+00 0. -1.
          2    1    1    2  501    0 -0.23416069047E+02 -0.18110940603E+02 -0.90096005909E+03  0.90144625271E+03  0.00000000000E+00 0. -1.
          2    1    1    2  502    0  0.23416069047E+02  0.18110940603E+02 -0.78047527590E+03  0.78103647466E+03  0.00000000000E+00 0. -1.
</event>
<event>
 4    1  0.9360795E+003  0.3184364E+02  0.7546771E-02  0.1404224E+00
          2   -1    0    0  501    0  0.00000000000E+00  0.00000000000E+00  0.40126432134E+03  0.40126432134E+03  0.00000000000E+00 0. -1.
          2   -1    0    0  502    0 -0.00000000000E+00 -0.00000000000E+00 -0.69116881009E+03  0.69116881009E+03  0.00000000000E+00 0.  1.
          2    1    1    2  501    0 -0.30669904765E+02 -0.85658707319E+01 -0.69016935559E+03  0.69090357981E+03  0.00000000000E+00 0.  1.
          2    1    1    2  502    0  0.30669904765E+02  0.85658707319E+01  0.40026486684E+03  0.40152955162E+03  0.00000000000E+00 0. -1.
</event>
<event>
 4    1  0.9360795E+003  0.3622541E+02  0.7546771E-02  0.1372147E+00
          2   -1    0    0  502    0  0.00000000000E+00  0.00000000000E+00  0.11179408521E+03  0.11179408521E+03  0.00000000000E+00 0.  1.
          2   -1    0    0  501    0 -0.00000000000E+00 -0.00000000000E+00 -0.38887564288E+03  0.38887564288E+03  0.00000000000E+00 0. -1.
          2    1    1    2  501    0 -0.26526539381E+02 -0.24670293625E+02  0.10798690372E+03  0.11390106256E+03  0.00000000000E+00 0.  1.
          2    1    1    2  502    0  0.26526539381E+02  0.24670293625E+02 -0.38506846139E+03  0.38676866553E+03  0.00000000000E+00 0. -1.
</event>
<event>
 4    1  0.9360795E+003  0.5060839E+02  0.7546771E-02  0.1295556E+00
          2   -1    0    0  502    0  0.00000000000E+00  0.00000000000E+00  0.23061088655E+02  0.23061088655E+02  0.00000000000E+00 0. -1.
          2   -1    0    0  501    0 -0.00000000000E+00 -0.00000000000E+00 -0.19439492956E+04  0.19439492956E+04  0.00000000000E+00 0. -1.
          2    1    1    2  501    0 -0.22218471741E+02  0.45470308552E+02 -0.54469500496E+01  0.50900674958E+02  0.00000000000E+00 0. -1.
          2    1    1    2  502    0  0.22218471741E+02 -0.45470308552E+02 -0.19154412569E+04  0.19161097093E+04  0.00000000000E+00 0. -1.
</event>
<event>
 4    1  0.9360795E+003  0.3875407E+02  0.7546771E-02  0.1355946E+00
          2   -1    0    0  501    0  0.00000000000E+00  0.00000000000E+00  0.60779386336E+01  0.60779386336E+01  0.00000000000E+00 0. -1.
          2   -1    0    0  502    0 -0.00000000000E+00 -0.00000000000E+00 -0.92034223335E+03  0.92034223335E+03  0.00000000000E+00 0. -1.
          2    1    1    2  501    0  0.30908977130E+02  0.23377623671E+02 -0.85330797285E+03  0.85418755240E+03  0.00000000000E+00 0. -1.
          2    1    1    2  502    0 -0.30908977130E+02 -0.23377623671E+02 -0.60956321873E+02  0.72232619584E+02  0.00000000000E+00 0. -1.
</event>
<event>
 4    1  0.9360795E+003  0.2286437E+02  0.7546771E-02  0.1494208E+00
          2   -1    0    0  502    0  0.00000000000E+00  0.00000000000E+00  0.52536020735E+03  0.52536020735E+03  0.00000000000E+00 0. -1.
          2   -1    0    0  501    0 -0.00000000000E+00 -0.00000000000E+00 -0.23145292742E+02  0.23145292742E+02  0.00000000000E+00 0.  1.
          2    1    1    2  501    0  0.19245691385E+02 -0.12344340617E+02  0.51939995543E+03  0.51990296506E+03  0.00000000000E+00 0. -1.
          2    1    1    2  502    0 -0.19245691385E+02  0.12344340617E+02 -0.17185040820E+02  0.28602535030E+02  0.00000000000E+00 0.  1.
</event>
<event>
 4    1  0.9360795E+003  0.2209584E+02  0.7546771E-02  0.1504175E+00
          2   -1    0    0  501    0  0.00000000000E+00  0.00000000000E+00  0.14887434073E+03  0.14887434073E+03  0.00000000000E+00 0. -1.
          2   -1    0    0  502    0 -0.00000000000E+00 -0.00000000000E+00 -0.78751112800E+01  0.78751112800E+01  0.00000000000E+00 0. -1.
          2    1    1    2  501    0 -0.19518405799E+02  0.10356551344E+02  0.10627916573E+02  0.24518950454E+02  0.00000000000E+00 0. -1.
          2    1    1    2  502    0  0.19518405799E+02 -0.10356551344E+02  0.13037131288E+03  0.13223050156E+03  0.00000000000E+00 0. -1.
</event>
<event>
 4    1  0.9360795E+003  0.3066036E+02  0.7546771E-02  0.1413943E+00
          2   -1    0    0  502    0  0.00000000000E+00  0.00000000000E+00  0.76100000697E+01  0.76100000697E+01  0.00000000000E+00 0.  1.
          2   -1    0    0  501    0 -0.00000000000E+00 -0.00000000000E+00 -0.31558296088E+03  0.31558296088E+03  0.00000000000E+00 0.  1.
          2    1    1    2  501    0  0.15992145265E+02  0.26159305205E+02 -0.27923833158E+02  0.41470452340E+02  0.00000000000E+00 0.  1.
          2    1    1    2  502    0 -0.15992145265E+02 -0.26159305205E+02 -0.28004912765E+03  0.28172250861E+03  0.00000000000E+00 0.  1.
</event>
<event>
 4    1  0.9360795E+003  0.2735451E+02  0.7546771E-02  0.1444079E+00
          2   -1    0    0  502    0  0.00000000000E+00  0.00000000000E+00  0.68677249917E+02  0.68677249917E+02  0.00000000000E+00 0. -1.
          2   -1    0    0  501    0 -0.00000000000E+00 -0.00000000000E+00 -0.54181834780E+03  0.54181834780E+03  0.00000000000E+00 0.  1.
          2    1    1    2  501    0 -0.15969897960E+02 -0.22208817679E+02  0.65592543862E+02  0.71067932528E+02  0.00000000000E+00 0. -1.
          2    1    1    2  502    0  0.15969897960E+02  0.22208817679E+02 -0.53873364175E+03  0.53942766519E+03  0.00000000000E+00 0.  1.
</event>
<event>
 4    1  0.9360795E+003  0.2095758E+02  0.7546771E-02  0.1519871E+00
          2   -1    0    0  502    0  0.00000000000E+00  0.00000000000E+00  0.97796662412E+02  0.97796662412E+02  0.00000000000E+00 0. -1.
          2   -1    0    0  501    0 -0.00000000000E+00 -0.00000000000E+00 -0.72357614554E+02  0.72357614554E+02  0.00000000000E+00 0. -1.
          2    1    1    2  501    0 -0.20903774782E+02 -0.15007391604E+01  0.95114047908E+02  0.97395596038E+02  0.00000000000E+00 0. -1.
          2    1    1    2  502    0  0.20903774782E+02  0.15007391604E+01 -0.69675000051E+02  0.72758680927E+02  0.00000000000E+00 0. -1.
</event>
<event>
 4    1  0.9360795E+003  0.3356209E+02  0.7546771E-02  0.1390964E+00
          2   -1    0    0  502    0  0.00000000000E+00  0.00000000000E+00  0.40849211326E+03  0.40849211326E+03  0.00000000000E+00 0.  1.
          2   -1    0    0  501    0 -0.00000000000E+00 -0.00000000000E+00 -0.27852109277E+01  0.27852109277E+01  0.00000000000E+00 0.  1.
          2    1    1    2  501    0 -0.52218026107E+01  0.33153381367E+02  0.22336792605E+03  0.22587528485E+03  0.00000000000E+00 0.  1.
          2    1    1    2  502    0  0.52218026107E+01 -0.33153381367E+02  0.18233897628E+03  0.18540203934E+03  0.00000000000E+00 0.  1.
</event>
<event>
 4    1  0.9360795E+003  0.2588629E+02  0.7546771E-02  0.1459128E+00
          2   -1    0    0  502    0  0.00000000000E+00  0.00000000000E+00  0.59351442658E+03  0.59351442658E+03  0.00000000000E+00 0.  1.
          2   -1    0    0  501    0 -0.00000000000E+00 -0.00000000000E+00 -0.30741750211E+03  0.30741750211E+03  0.00000000000E+00 0.  1.
          2    1    1    2  501    0 -0.40741201488E+01  0.25563675004E+02  0.59268646345E+03  0.59325150138E+03  0.00000000000E+00 0.  1.
          2    1    1    2  502    0  0.40741201488E+01 -0.25563675004E+02 -0.30658953898E+03  0.30768042730E+03  0.00000000000E+00 0.  1.
</event>
<event>
 4    1  0.9360795E+003  0.2650098E+02  0.7546771E-02  0.1452686E+00
          2   -1    0    0  502    0  0.00000000000E+00  0.00000000000E+00  0.60802991294E+01  0.60802991294E+01  0.00000000000E+00 0. -1.
          2   -1    0    0  501    0 -0.00000000000E+00 -0.00000000000E+00 -0.42646519258E+03  0.42646519258E+03  0.00000000000E+00 0.  1.
          2    1    1    2  501    0 -0.19115610207E+02 -0.18354711206E+02 -0.25515477440E+02  0.36787790991E+02  0.00000000000E+00 0. -1.
          2    1    1    2  502    0  0.19115610207E+02  0.18354711206E+02 -0.39486941601E+03  0.39575770072E+03  0.00000000000E+00 0.  1.
</event>
<event>
 4    1  0.9360795E+003  0.3040422E+02  0.7546771E-02  0.1416116E+00
          2   -1    0    0  501    0  0.00000000000E+00  0.00000000000E+00  0.10301291522E+04  0.10301291522E+04  0.00000000000E+00 0. -1.
          2   -1    0    0  502    0 -0.00000000000E+00 -0.00000000000E+00 -0.36238177184E+01  0.36238177184E+01  0.00000000000E+00 0.  1.
          2    1    1    2  501    0 -0.29737686006E+02 -0.63313866404E+01  0.64918888915E+02  0.71685971876E+02  0.00000000000E+00 0.  1.
          2    1    1    2  502    0  0.29737686006E+02  0.63313866404E+01  0.96158644561E+03  0.96206699809E+03  0.00000000000E+00 0. -1.
</event>
<event>
 4    1  0.9360795E+003  0.3055655E+02  0.7546771E-02  0.1414820E+00
          2   -1    0    0  502    0  0.00000000000E+00  0.00000000000E+00  0.44737886728E+02  0.44737886728E+02  0.00000000000E+00 0. -1.
          2   -1    0    0  501    0 -0.00000000000E+00 -0.00000000000E+00 -0.80651369684E+02  0.80651369684E+02  0.00000000000E+00 0. -1.
          2    1    1    2  501    0  0.27797047460E+02  0.12689643333E+02  0.36019856013E+02  0.47234869774E+02  0.00000000000E+00 0. -1.
          2    1    1    2  502    0 -0.27797047460E+02 -0.12689643333E+02 -0.71933338969E+02  0.78154386637E+02  0.00000000000E+00 0. -1.
</event>
<event>
 4    1  0.9360795E+003  0.2654152E+02  0.7546771E-02  0.1452269E+00
          2   -1    0    0  502    0  0.00000000000E+00  0.00000000000E+00  0.69654806450E+02  0.69654806450E+02  0.00000000000E+00 0.  1.
          2   -1    0    0  501    0 -0.00000000000E+00 -0.00000000000E+00 -0.35717367123E+03  0.35717367123E+03  0.00000000000E+00 0.  1.
          2    1    1    2  501    0 -0.17050391510E+02  0.20340513972E+02  0.66611666274E+02  0.71704717021E+02  0.00000000000E+00 0.  1.
          2    1    1    2  502    0  0.17050391510E+02 -0.20340513972E+02 -0.35413053106E+03  0.35512376066E+03  0.00000000000E+00 0.  1.
</event>
<event>
 4    1  0.9360795E+003  0.2246688E+02  0.7546771E-02  0.1499303E+00
          2   -1    0    0  502    0  0.00000000000E+00  0.00000000000E+00  0.12123754016E+01  0.12123754016E+01  0.00000000000E+00 0.  1.
          2   -1    0    0  501    0 -0.00000000000E+00 -0.00000000000E+00 -0.15454739948E+04  0.15454739948E+04  0.00000000000E+00 0.  1.
          2    1    1    2  501    0 -0.20439810696E+02  0.93260270625E+01 -0.11111155379E+03  0.11336021360E+03  0.00000000000E+00 0.  1.
          2    1    1    2  502    0  0.20439810696E+02 -0.93260270625E+01 -0.14331500656E+04  0.14333261566E+04  0.00000000000E+00 0.  1.
</event>
<event>
 4    1  0.9360795E+003  0.2037165E+02  0.7546771E-02  0.1528428E+00
          2   -1    0    0  502    0  0.00000000000E+00  0.00000000000E+00  0.70263086861E+01  0.70263086861E+01  0.00000000000E+00 0. -1.
          2   -1    0    0  501    0 -0.00000000000E+00 -0.00000000000E+00 -0.13370311657E+03  0.13370311657E+03  0.00000000000E+00 0. -1.
          2    1    1    2  501    0 -0.19018613849E+02 -0.73004465846E+01 -0.10764957600E+02  0.23041017886E+02  0.00000000000E+00 0. -1.
          2    1    1    2  502    0  0.19018613849E+02  0.73004465846E+01 -0.11591185028E+03  0.11768840737E+03  0.00000000000E+00 0. -1.
</event>
<event>
 4    1  0.9360795E+003  0.2292315E+02  0.7546771E-02  0.1493465E+00
          2   -1    0    0  502    0  0.00000000000E+00  0.00000000000E+00  0.44230164443E+01  0.44230164443E+01  0.00000000000E+00 0. -1.
          2   -1    0    0  501    0 -0.00000000000E+00 -0.00000000000E+00 -0.30074076891E+03  0.30074076891E+03  0.00000000000E+00 0. -1.
          2    1    1    2  501    0  0.73614294111E+01 -0.21708987571E+02 -0.29481639958E+02  0.37344850769E+02  0.00000000000E+00 0. -1.
          2    1    1    2  502    0 -0.73614294111E+01  0.21708987571E+02 -0.26683611251E+03  0.26781893459E+03  0.00000000000E+00 0. -1.
</event>
<event>
 4    1  0.9360795E+003  0.5142600E+02  0.7546771E-02  0.1292105E+00
          2   -1    0    0  502    0  0.00000000000E+00  0.00000000000E+00  0.55200017387E+03  0.55200017387E+03  0.00000000000E+00 0. -1.
          2   -1    0    0  501    0 -0.00000000000E+00 -0.00000000000E+00 -0.12337701392E+02  0.12337701392E+02  0.00000000000E+00 0. -1.
          2    1    1    2  501    0  0.51150384007E+02  0.53170975007E+01  0.49051512784E+03  0.49320353198E+03  0.00000000000E+00 0. -1.
          2    1    1    2  502    0 -0.51150384007E+02 -0.53170975007E+01  0.49147344629E+02  0.71134343281E+02  0.00000000000E+00 0. -1.
</event>
<event>
 4    1  0.9360795E+003  0.2803085E+02  0.7546771E-02  0.1437519E+00
          2   -1    0    0  502    0  0.00000000000E+00  0.00000000000E+00  0.25605140869E+03  0.25605140869E+03  0.00000000000E+00 0. -1.
          2   -1    0    0  501    0 -0.00000000000E+00 -0.00000000000E+00 -0.69741474632E+03  0.69741474632E+03  0.00000000000E+00 0. -1.
          2    1    1    2  501    0  0.22897396727E+02 -0.16169044083E+02  0.25500143561E+03  0.25653744547E+03  0.00000000000E+00 0. -1.
          2    1    1    2  502    0 -0.22897396727E+02  0.16169044083E+02 -0.69636477324E+03  0.69692870954E+03  0.00000000000E+00 0. -1.
</event>
<event>
 4    1  0.9360795E+003  0.4841006E+02  0.7546771E-02  0.1305217E+00
          2   -1    0    0  501    0  0.00000000000E+00  0.00000000000E+00  0.60241024627E+02  0.60241024627E+02  0.00000000000E+00 0. -1.
          2   -1    0    0  502    0 -0.00000000000E+00 -0.00000000000E+00 -0.97007734898E+03  0.97007734898E+03  0.00000000000E+00 0.  1.
          2    1    1    2  501    0 -0.16797193109E+02 -0.45402517471E+02 -0.95964204478E+03  0.96086231501E+03  0.00000000000E+00 0.  1.
          2    1    1    2  502    0  0.16797193109E+02  0.45402517471E+02  0.49805720428E+02  0.69456058601E+02  0.00000000000E+00 0. -1.
</event>
<event>
 4    1  0.9360795E+003  0.2036235E+02  0.7546771E-02  0.1528567E+00
          2   -1    0    0  502    0  0.00000000000E+00  0.00000000000E+00  0.16491195080E+03  0.16491195080E+03  0.00000000000E+00 0. -1.
          2   -1    0    0  501    0 -0.00000000000E+00 -0.00000000000E+00 -0.45837071670E+02  0.45837071670E+02  0.00000000000E+00 0.  1.
          2    1    1    2  501    0  0.20361561086E+02  0.17922853980E+00  0.16198123201E+03  0.16325607130E+03  0.00000000000E+00 0. -1.
          2    1    1    2  502    0 -0.20361561086E+02 -0.17922853980E+00 -0.42906352884E+02  0.47492951167E+02  0.00000000000E+00 0.  1.
</event>
<event>
 4    1  0.9360795E+003  0.2117372E+02  0.7546771E-02  0.1516799E+00
          2   -1    0    0  502    0  0.00000000000E+00  0.00000000000E+00  0.10108197029E+03  0.10108197029E+03  0.00000000000E+00 0. -1.
          2   -1    0    0  501    0 -0.00000000000E+00 -0.00000000000E+00 -0.12193290605E+03  0.12193290605E+03  0.00000000000E+00 0. -1.
          2    1    1    2  501    0 -0.85083010770E+01 -0.19389050167E+02  0.99035158515E+02  0.10127333842E+03  0.00000000000E+00 0. -1.
          2    1    1    2  502    0  0.85083010770E+01  0.19389050167E+02 -0.11988609428E+03  0.12174153792E+03  0.00000000000E+00 0. -1.
</event>
<event>
 4    1  0.9360795E+003  0.2014520E+02  0.7546771E-02  0.1531828E+00
          2   -1    0    0  502    0  0.00000000000E+00  0.00000000000E+00  0.13928278076E+02  0.13928278076E+02  0.00000000000E+00 0.  1.
          2   -1    0    0  501    0 -0.00000000000E+00 -0.00000000000E+00 -0.28488532656E+03  0.28488532656E+03  0.00000000000E+00 0.  1.
          2    1    1    2  501    0  0.15886863665E+02  0.12386952362E+02  0.60818436925E+01  0.21043237599E+02  0.00000000000E+00 0.  1.
          2    1    1    2  502    0 -0.15886863665E+02 -0.12386952362E+02 -0.27703889217E+03  0.27777036703E+03  0.00000000000E+00 0.  1.
</event>
<event>
 4    1  0.9360795E+003  0.4327689E+02  0.7546771E-02  0.1330284E+00
          2   -1    0    0  502    0  0.00000000000E+00  0.00000000000E+00  0.17603589889E+02  0.17603589889E+02  0.00000000000E+00 0. -1.
          2   -1    0    0  501    0 -0.00000000000E+00 -0.00000000000E+00 -0.90683059947E+03  0.90683059947E+03  0.00000000000E+00 0.  1.
          2    1    1    2  501    0 -0.17247555937E+02 -0.39691448830E+02 -0.10356526316E+02  0.44498841933E+02  0.00000000000E+00 0. -1.
          2    1    1    2  502    0  0.17247555937E+02  0.39691448830E+02 -0.87887048327E+03  0.87993534743E+03  0.00000000000E+00 0.  1.
</event>
<event>
 4    1  0.9360795E+003  0.2021126E+02  0.7546771E-02  0.1530830E+00
          2   -1    0    0  502    0  0.00000000000E+00  0.00000000000E+00  0.42608333889E+03  0.42608333889E+03  0.00000000000E+00 0. -1.
          2   -1    0    0  501    0 -0.00000000000E+00 -0.00000000000E+00 -0.25978356972E+01  0.25978356972E+01  0.00000000000E+00 0.  1.
          2    1    1    2  501    0  0.16931079737E+02 -0.11037819217E+02  0.38199909000E+03  0.38253339681E+03  0.00000000000E+00 0. -1.
          2    1    1    2  502    0 -0.16931079737E+02  0.11037819217E+02  0.41486413188E+02  0.46147777773E+02  0.00000000000E+00 0.  1.
</event>
<event>
 4    1  0.9360795E+003  0.2001919E+02  0.7546771E-02  0.1533742E+00
          2   -1    0    0  501    0  0.00000000000E+00  0.00000000000E+00  0.35892237410E+03  0.35892237410E+03  0.00000000000E+00 0. -1.
          2   -1    0    0  502    0 -0.00000000000E+00 -0.00000000000E+00 -0.26793682544E+01  0.26793682544E+01  0.00000000000E+00 0. -1.
          2    1    1    2  501    0  0.20019023853E+02  0.82044902234E-01  0.40040664525E+02  0.44766313932E+02  0.00000000000E+00 0. -1.
          2    1    1    2  502    0 -0.20019023853E+02 -0.82044902234E-01  0.31620234132E+03  0.31683542842E+03  0.00000000000E+00 0. -1.
</event>
<event>
 4    1  0.1279396E+004  0.2826692E+02  0.7546771E-02  0.1435281E+00
          2   -1    0    0  502    0  0.00000000000E+00  0.00000000000E+00  0.83203733536E+03  0.83203733536E+03  0.00000000000E+00 0. -1.
          2   -1    0    0  501    0 -0.00000000000E+00 -0.00000000000E+00 -0.58507592400E+03  0.58507592400E+03  0.00000000000E+00 0. -1.
          2    1    1    2  501    0 -0.15614212788E+02 -0.23563005469E+02  0.83145560078E+03  0.83193595603E+03  0.00000000000E+00 0. -1.
          2    1    1    2  502    0  0.15614212788E+02  0.23563005469E+02 -0.58449418942E+03  0.58517730333E+03  0.00000000000E+00 0. -1.
</event>
<event>
 4    1  0.9360795E+003  0.4096376E+02  0.7546771E-02  0.1342929E+00
          2   -1    0    0  501    0  0.00000000000E+00  0.00000000000E+00  0.10590879428E+03  0.10590879428E+03  0.00000000000E+00 0.  1.
          2   -1    0    0  502    0 -0.00000000000E+00 -0.00000000000E+00 -0.10934775616E+03  0.10934775616E+03  0.00000000000E+00 0.  1.
          2    1    1    2  501    0  0.23028655835E+02  0.33877880467E+02 -0.10124529392E+03  0.10921831035E+03  0.00000000000E+00 0.  1.
          2    1    1    2  502    0 -0.23028655835E+02 -0.33877880467E+02  0.97806332039E+02  0.10603824009E+03  0.00000000000E+00 0.  1.
</event>
<event>
 4    1  0.9360795E+003  0.2048202E+02  0.7546771E-02  0.1526790E+00
          2   -1    0    0  502    0  0.00000000000E+00  0.00000000000E+00  0.39030195348E+03  0.39030195348E+03  0.00000000000E+00 0. -1.
          2   -1    0    0  501    0 -0.00000000000E+00 -0.00000000000E+00 -0.16536379002E+01  0.16536379002E+01  0.00000000000E+00 0.  1.
          2    1    1    2  501    0 -0.18660981617E+02  0.84428065181E+01  0.31026837943E+03  0.31094369344E+03  0.00000000000E+00 0. -1.
          2    1    1    2  502    0  0.18660981617E+02 -0.84428065181E+01  0.78379936145E+02  0.81011897934E+02  0.00000000000E+00 0.  1.
</event>
<event>
 4    1  0.9360795E+003  0.5591519E+02  0.7546771E-02  0.1274381E+00
          2   -1    0    0  502    0  0.00000000000E+00  0.00000000000E+00  0.92836220418E+01  0.92836220418E+01  0.00000000000E+00 0. -1.
          2   -1    0    0  501    0 -0.00000000000E+00 -0.00000000000E+00 -0.54014979344E+03  0.54014979344E+03  0.00000000000E+00 0. -1.
          2    1    1    2  501    0 -0.54369157008E+02 -0.13057704349E+02 -0.96865306228E+02  0.11184541308E+03  0.00000000000E+00 0. -1.
          2    1    1    2  502    0  0.54369157008E+02  0.13057704349E+02 -0.43400086517E+03  0.43758800240E+03  0.00000000000E+00 0. -1.
</event>
<event>
 4    1  0.9360795E+003  0.5532357E+02  0.7546771E-02  0.1276606E+00
          2   -1    0    0  502    0  0.00000000000E+00  0.00000000000E+00  0.72859498620E+03  0.72859498620E+03  0.00000000000E+00 0. -1.
          2   -1    0    0  501    0 -0.00000000000E+00 -0.00000000000E+00 -0.13093704094E+02  0.13093704094E+02  0.00000000000E+00 0.  1.
          2    1    1    2  501    0  0.54802376026E+02  0.75760703668E+01  0.66337058153E+03  0.66567351285E+03  0.00000000000E+00 0. -1.
          2    1    1    2  502    0 -0.54802376026E+02 -0.75760703668E+01  0.52130700576E+02  0.76015177451E+02  0.00000000000E+00 0.  1.
</event>
<event>
 4    1  0.9360795E+003  0.5054220E+02  0.7546771E-02  0.1295839E+00
          2   -1    0    0  502    0  0.00000000000E+00  0.00000000000E+00  0.20924113238E+03  0.20924113238E+03  0.00000000000E+00 0. -1.
          2   -1    0    0  501    0 -0.00000000000E+00 -0.00000000000E+00 -0.88916085986E+03  0.88916085986E+03  0.00000000000E+00 0.  1.
          2    1    1    2  501    0  0.50430199687E+02 -0.33628908767E+01  0.20545774590E+03  0.21158307925E+03  0.00000000000E+00 0. -1.
          2    1    1    2  502    0 -0.50430199687E+02  0.33628908767E+01 -0.88537747337E+03  0.88681891299E+03  0.00000000000E+00 0.  1.
</event>
<event>
 4    1  0.9360795E+003  0.2610866E+02  0.7546771E-02  0.1456773E+00
          2   -1    0    0  501    0  0.00000000000E+00  0.00000000000E+00  0.30874055132E+02  0.30874055132E+02  0.00000000000E+00 0.  1.
          2   -1    0    0  502    0 -0.00000000000E+00 -0.00000000000E+00 -0.30226700290E+02  0.30226700290E+02  0.00000000000E+00 0. -1.
          2    1    1    2  501    0 -0.14557800560E+02 -0.21673320116E+02 -0.15537807068E+02  0.30382327272E+02  0.00000000000E+00 0. -1.
          2    1    1    2  502    0  0.14557800560E+02  0.21673320116E+02  0.16185161910E+02  0.30718428150E+02  0.00000000000E+00 0.  1.
</event>
<event>
 4    1  0.9360795E+003  0.2032275E+02  0.7546771E-02  0.1529158E+00
          2   -1    0    0  501    0  0.00000000000E+00  0.00000000000E+00  0.48750886083E+01  0.48750886083E+01  0.00000000000E+00 0. -1.
          2   -1    0    0  502    0 -0.00000000000E+00 -0.00000000000E+00 -0.78788467625E+03  0.78788467625E+03  0.00000000000E+00 0.  1.
          2    1    1    2  501    0  0.11687302469E+01  0.20289112796E+02 -0.76596788732E+03  0.76623744259E+03  0.00000000000E+00 0.  1.
          2    1    1    2  502    0 -0.11687302469E+01 -0.20289112796E+02 -0.17041700325E+02  0.26522322267E+02  0.00000000000E+00 0. -1.
</event>
<event>
 4    1  0.9360795E+003  0.2063987E+02  0.7546771E-02  0.1524469E+00
          2   -1    0    0  501    0  0.00000000000E+00  0.00000000000E+00  0.65267441226E+03  0.65267441226E+03  0.00000000000E+00 0. -1.
          2   -1    0    0  502    0 -0.00000000000E+00 -0.00000000000E+00 -0.51128455799E+01  0.51128455799E+01  0.00000000000E+00 0. -1.
          2    1    1    2  501    0 -0.69249016538E+01  0.19443508295E+02  0.16596943620E+02  0.26485143293E+02  0.00000000000E+00 0. -1.
          2    1    1    2  502    0  0.69249016538E+01 -0.19443508295E+02  0.63096462306E+03  0.63130211454E+03  0.00000000000E+00 0. -1.
</event>
<event>
 4    1  0.9360795E+003  0.3153365E+02  0.7546771E-02  0.1406721E+00
          2   -1    0    0  502    0  0.00000000000E+00  0.00000000000E+00  0.29776217563E+03  0.29776217563E+03  0.00000000000E+00 0.  1.
          2   -1    0    0  501    0 -0.00000000000E+00 -0.00000000000E+00 -0.92881067830E+01  0.92881067830E+01  0.00000000000E+00 0. -1.
          2    1    1    2  501    0  0.27890933989E+02  0.14712816656E+02  0.26710091404E+03  0.26895588756E+03  0.00000000000E+00 0.  1.
          2    1    1    2  502    0 -0.27890933989E+02 -0.14712816656E+02  0.21373154808E+02  0.38094394853E+02  0.00000000000E+00 0. -1.
</event>
<event>
 4    1  0.9360795E+003  0.2494717E+02  0.7546771E-02  0.1469395E+00
          2   -1    0    0  501    0  0.00000000000E+00  0.00000000000E+00  0.90851397808E+03  0.90851397808E+03  0.00000000000E+00 0. -1.
          2   -1    0    0  502    0 -0.00000000000E+00 -0.00000000000E+00 -0.14830730200E+01  0.14830730200E+01  0.00000000000E+00 0. -1.
          2    1    1    2  501    0 -0.23994966862E+02  0.68266133460E+01  0.11975002544E+03  0.12232101077E+03  0.00000000000E+00 0. -1.
          2    1    1    2  502    0  0.23994966862E+02 -0.68266133460E+01  0.78728087962E+03  0.78767604032E+03  0.00000000000E+00 0. -1.
</event>
<event>
 4    1  0.9360795E+003  0.2330279E+02  0.7546771E-02  0.1488731E+00
          2   -1    0    0  501    0  0.00000000000E+00  0.00000000000E+00  0.13484458573E+03  0.13484458573E+03  0.00000000000E+00 0. -1.
          2   -1    0    0  502    0 -0.00000000000E+00 -0.00000000000E+00 -0.22016363585E+02  0.22016363585E+02  0.00000000000E+00 0. -1.
          2    1    1    2  501    0 -0.20657622090E+02  0.10783453445E+02 -0.14481582045E+02  0.27436042665E+02  0.00000000000E+00 0. -1.
          2    1    1    2  502    0  0.20657622090E+02 -0.10783453445E+02  0.12730980419E+03  0.12942490665E+03  0.00000000000E+00 0. -1.
</event>
<event>
 4    1  0.9360795E+003  0.2023033E+02  0.7546771E-02  0.1530543E+00
          2   -1    0    0  502    0  0.00000000000E+00  0.00000000000E+00  0.15371735763E+04  0.15371735763E+04  0.00000000000E+00 0.  1.
          2   -1    0    0  501    0 -0.00000000000E+00 -0.00000000000E+00 -0.37608467170E+00  0.37608467170E+00  0.00000000000E+00 0. -1.
          2    1    1    2  501    0  0.95389512789E+01  0.17840250616E+02  0.11838635229E+04  0.11840363622E+04  0.00000000000E+00 0.  1.
          2    1    1    2  502    0 -0.95389512789E+01 -0.17840250616E+02  0.35293396866E+03  0.35351329872E+03  0.00000000000E+00 0. -1.
</event>
<event>
 4    1  0.9360795E+003  0.2314206E+02  0.7546771E-02  0.1490722E+00
          2   -1    0    0  501    0  0.00000000000E+00  0.00000000000E+00  0.90321169444E+02  0.90321169444E+02  0.00000000000E+00 0.  1.
          2   -1    0    0  502    0 -0.00000000000E+00 -0.00000000000E+00 -0.26375842499E+02  0.26375842499E+02  0.00000000000E+00 0. -1.
          2    1    1    2  501    0  0.89110308068E+01 -0.21357629070E+02 -0.19400336172E+02  0.30198142876E+02  0.00000000000E+00 0. -1.
          2    1    1    2  502    0 -0.89110308068E+01  0.21357629070E+02  0.83345663117E+02  0.86498869067E+02  0.00000000000E+00 0.  1.
</event>
<event>
 4    1  0.9360795E+003  0.3211668E+02  0.7546771E-02  0.1402052E+00
          2   -1    0    0  501    0  0.00000000000E+00  0.00000000000E+00  0.24794590002E+03  0.24794590002E+03  0.00000000000E+00 0.  1.
          2   -1    0    0  502    0 -0.00000000000E+00 -0.00000000000E+00 -0.70848787402E+02  0.70848787402E+02  0.00000000000E+00 0. -1.
          2    1    1    2  501    0 -0.10719688073E+02  0.30274897746E+02 -0.66098242767E+02  0.73487814247E+02  0.00000000000E+00 0. -1.
          2    1    1    2  502    0  0.10719688073E+02 -0.30274897746E+02  0.24319535538E+03  0.24530687317E+03  0.00000000000E+00 0.  1.
</event>
<event>
 4    1  0.9360795E+003  0.4226622E+02  0.7546771E-02  0.1335694E+00
          2   -1    0    0  501    0  0.00000000000E+00  0.00000000000E+00  0.42115772198E+01  0.42115772198E+01  0.00000000000E+00 0.  1.
          2   -1    0    0  502    0 -0.00000000000E+00 -0.00000000000E+00 -0.55743286370E+03  0.55743286370E+03  0.00000000000E+00 0. -1.
          2    1    1    2  501    0 -0.29956157326E+02 -0.29817139119E+02 -0.41391568693E+03  0.41606805818E+03  0.00000000000E+00 0. -1.
          2    1    1    2  502    0  0.29956157326E+02  0.29817139119E+02 -0.13930559955E+03  0.14557638275E+03  0.00000000000E+00 0.  1.
</event>
<event>
 4    1  0.9360795E+003  0.2788649E+02  0.7546771E-02  0.1438901E+00
          2   -1    0    0  502    0  0.00000000000E+00  0.00000000000E+00  0.19256109869E+03  0.19256109869E+03  0.00000000000E+00 0. -1.
          2   -1    0    0  501    0 -0.00000000000E+00 -0.00000000000E+00 -0.21689045262E+02  0.21689045262E+02  0.00000000000E+00 0. -1.
          2    1    1    2  501    0 -0.14632899296E+02 -0.23738880000E+02  0.18207450646E+03  0.18419767118E+03  0.00000000000E+00 0. -1.
          2    1    1    2  502    0  0.14632899296E+02  0.23738880000E+02 -0.11202453037E+02  0.30052472768E+02  0.00000000000E+00 0. -1.
</event>
<event>
 4    1  0.9360795E+003  0.2165520E+02  0.7546771E-02  0.1510112E+00
          2   -1    0    0  501    0  0.00000000000E+00  0.00000000000E+00  0.31395320901E+02  0.31395320901E+02  0.00000000000E+00 0.  1.
          2   -1    0    0  502    0 -0.00000000000E+00 -0.00000000000E+00 -0.13800498174E+03  0.13800498174E+03  0.00000000000E+00 0. -1.
          2    1    1    2  501    0  0.21344867528E+02 -0.36530007748E+01 -0.13329001939E+03  0.13503768753E+03  0.00000000000E+00 0. -1.
          2    1    1    2  502    0 -0.21344867528E+02  0.36530007748E+01  0.26680358554E+02  0.34362615108E+02  0.00000000000E+00 0.  1.
</event>
<event>
 4    1  0.9360795E+003  0.2294069E+02  0.7546771E-02  0.1493244E+00
          2   -1    0    0  502    0  0.00000000000E+00  0.00000000000E+00  0.16788286051E+01  0.16788286051E+01  0.00000000000E+00 0. -1.
          2   -1    0    0  501    0 -0.00000000000E+00 -0.00000000000E+00 -0.61724652867E+03  0.61724652867E+03  0.00000000000E+00 0. -1.
          2    1    1    2  501    0 -0.15617608937E+02  0.16803739751E+02 -0.90688493300E+02  0.93545059707E+02  0.00000000000E+00 0. -1.
          2    1    1    2  502    0  0.15617608937E+02 -0.16803739751E+02 -0.52487920677E+03  0.52538029757E+03  0.00000000000E+00 0. -1.
</event>
<event>
 4    1  0.9360795E+003  0.4044916E+02  0.7546771E-02  0.1345874E+00
          2   -1    0    0  502    0  0.00000000000E+00  0.00000000000E+00  0.40054850146E+02  0.40054850146E+02  0.00000000000E+00 0.  1.
          2   -1    0    0  501    0 -0.00000000000E+00 -0.00000000000E+00 -0.22937169338E+03  0.22937169338E+03  0.00000000000E+00 0.  1.
          2    1    1    2  501    0  0.37474480395E+02 -0.15224917168E+02  0.27472091929E+02  0.48896325205E+02  0.00000000000E+00 0.  1.
          2    1    1    2  502    0 -0.37474480395E+02  0.15224917168E+02 -0.21678893516E+03  0.22053021832E+03  0.00000000000E+00 0.  1.
</event>
<event>
 4    1  0.9360795E+003  0.3332027E+02  0.7546771E-02  0.1392773E+00
          2   -1    0    0  502    0  0.00000000000E+00  0.00000000000E+00  0.16887691003E+03  0.16887691003E+03  0.00000000000E+00 0. -1.
          2   -1    0    0  501    0 -0.00000000000E+00 -0.00000000000E+00 -0.36459264438E+03  0.36459264438E+03  0.00000000000E+00 0.  1.
          2    1    1    2  501    0  0.31931162178E+02  0.95205629296E+01  0.16646111778E+03  0.16976319969E+03  0.00000000000E+00 0. -1.
          2    1    1    2  502    0 -0.31931162178E+02 -0.95205629296E+01 -0.36217685214E+03  0.36370635472E+03  0.00000000000E+00 0.  1.
</event>
<event>
 4    1  0.9360795E+003  0.2330816E+02  0.7546771E-02  0.1488664E+00
          2   -1    0    0  501    0  0.00000000000E+00  0.00000000000E+00  0.54831162045E+00  0.54831162045E+00  0.00000000000E+00 0. -1.
          2   -1    0    0  502    0 -0.00000000000E+00 -0.00000000000E+00 -0.13782173604E+04  0.13782173604E+04  0.00000000000E+00 0.  1.
          2    1    1    2  501    0  0.20964529496E+02 -0.10186207512E+02 -0.10543349692E+04  0.10545925743E+04  0.00000000000E+00 0.  1.
          2    1    1    2  502    0 -0.20964529496E+02  0.10186207512E+02 -0.32333407959E+03  0.32417309782E+03  0.00000000000E+00 0. -1.
</event>
<event>
 4    1  0.9360795E+003  0.2901883E+02  0.7546771E-02  0.1428319E+00
          2   -1    0    0  501    0  0.00000000000E+00  0.00000000000E+00  0.19408775790E+03  0.19408775790E+03  0.00000000000E+00 0. -1.
          2   -1    0    0  502    0 -0.00000000000E+00 -0.00000000000E+00 -0.20431847778E+04  0.20431847778E+04  0.00000000000E+00 0. -1.
          2    1    1    2  501    0  0.27917985773E+02 -0.79169787103E+01 -0.20419964298E+04  0.20422026128E+04  0.00000000000E+00 0. -1.
          2    1    1    2  502    0 -0.27917985773E+02  0.79169787103E+01  0.19289940989E+03  0.19506992290E+03  0.00000000000E+00 0. -1.
</event>
<event>
 4    1  0.9360795E+003  0.2082759E+02  0.7546771E-02  0.1521741E+00
          2   -1    0    0  502    0  0.00000000000E+00  0.00000000000E+00  0.28409477756E+03  0.28409477756E+03  0.00000000000E+00 0.  1.
          2   -1    0    0  501    0 -0.00000000000E+00 -0.00000000000E+00 -0.43746439831E+02  0.43746439831E+02  0.00000000000E+00 0.  1.
          2    1    1    2  501    0  0.65570737620E+00  0.20817261620E+02  0.28120864898E+03  0.28197888679E+03  0.00000000000E+00 0.  1.
          2    1    1    2  502    0 -0.65570737620E+00 -0.20817261620E+02 -0.40860311246E+02  0.45862330606E+02  0.00000000000E+00 0.  1.
</event>
<event>
 4    1  0.9360795E+003  0.3366791E+02  0.7546771E-02  0.1390178E+00
          2   -1    0    0  502    0  0.00000000000E+00  0.00000000000E+00  0.20238874659E+02  0.20238874659E+02  0.00000000000E+00 0. -1.
          2   -1    0    0  501    0 -0.00000000000E+00 -0.00000000000E+00 -0.80487603400E+03  0.80487603400E+03  0.00000000000E+00 0.  1.
          2    1    1    2  501    0 -0.31222255072E+02  0.12597587484E+02  0.56261313611E+01  0.34134759064E+02  0.00000000000E+00 0. -1.
          2    1    1    2  502    0  0.31222255072E+02 -0.12597587484E+02 -0.79026329070E+03  0.79098014960E+03  0.00000000000E+00 0.  1.
</event>
<event>
 4    1  0.9360795E+003  0.3123648E+02  0.7546771E-02  0.1409147E+00
          2   -1    0    0  502    0  0.00000000000E+00  0.00000000000E+00  0.94939760173E+01  0.94939760173E+01  0.00000000000E+00 0.  1.
          2   -1    0    0  501    0 -0.00000000000E+00 -0.00000000000E+00 -0.12466511919E+03  0.12466511919E+03  0.00000000000E+00 0. -1.
          2    1    1    2  501    0  0.29984004823E+02 -0.87565338333E+01 -0.29475054938E+02  0.42947599393E+02  0.00000000000E+00 0.  1.
          2    1    1    2  502    0 -0.29984004823E+02  0.87565338333E+01 -0.85696088236E+02  0.91211495816E+02  0.00000000000E+00 0. -1.
</event>
<event>
 4    1  0.9360795E+003  0.3108091E+02  0.7546771E-02  0.1410430E+00
          2   -1    0    0  501    0  0.00000000000E+00  0.00000000000E+00  0.14557699114E+03  0.14557699114E+03  0.00000000000E+00 0. -1.
          2   -1    0    0  502    0 -0.00000000000E+00 -0.00000000000E+00 -0.22604113694E+02  0.22604113694E+02  0.00000000000E+00 0.  1.
          2    1    1    2  501    0  0.22296816590E+02  0.21653519926E+02 -0.91913082532E+01  0.32411465604E+02  0.00000000000E+00 0.  1.
          2    1    1    2  502    0 -0.22296816590E+02 -0.21653519926E+02  0.13216418570E+03  0.13576963923E+03  0.00000000000E+00 0. -1.
</event>
<event>
 4    1  0.9360795E+003  0.3328589E+02  0.7546771E-02  0.1393032E+00
          2   -1    0    0  502    0  0.00000000000E+00  0.00000000000E+00  0.51785724999E+03  0.51785724999E+03  0.00000000000E+00 0.  1.
          2   -1    0    0  501    0 -0.00000000000E+00 -0.00000000000E+00 -0.19071085137E+03  0.19071085137E+03  0.00000000000E+00 0. -1.
          2    1    1    2  501    0  0.26021588519E+02 -0.20756387759E+02  0.51586437633E+03  0.51693713880E+03  0.00000000000E+00 0.  1.
          2    1    1    2  502    0 -0.26021588519E+02  0.20756387759E+02 -0.18871797771E+03  0.19163096256E+03  0.00000000000E+00 0. -1.
</event>
<event>
 4    1  0.9360795E+003  0.2588005E+02  0.7546771E-02  0.1459194E+00
          2   -1    0    0  502    0  0.00000000000E+00  0.00000000000E+00  0.15365757175E+03  0.15365757175E+03  0.00000000000E+00 0. -1.
          2   -1    0    0  501    0 -0.00000000000E+00 -0.00000000000E+00 -0.17746001099E+04  0.17746001099E+04  0.00000000000E+00 0. -1.
          2    1    1    2  501    0  0.25680035200E+02 -0.32113883787E+01  0.15247276392E+03  0.15465355140E+03  0.00000000000E+00 0. -1.
          2    1    1    2  502    0 -0.25680035200E+02  0.32113883787E+01 -0.17734153021E+04  0.17736041303E+04  0.00000000000E+00 0. -1.
</event>
<event>
 4    1  0.9360795E+003  0.2230639E+02  0.7546771E-02  0.1501396E+00
          2   -1    0    0  501    0  0.00000000000E+00  0.00000000000E+00  0.10655221323E+04  0.10655221323E+04  0.00000000000E+00 0. -1.
          2   -1    0    0  502    0 -0.00000000000E+00 -0.00000000000E+00 -0.16660817840E+01  0.16660817840E+01  0.00000000000E+00 0. -1.
          2    1    1    2  501    0 -0.21177350608E+02  0.70067681471E+01  0.79248007788E+02  0.82327527092E+02  0.00000000000E+00 0. -1.
          2    1    1    2  502    0  0.21177350608E+02 -0.70067681471E+01  0.98460804274E+03  0.98486068701E+03  0.00000000000E+00 0. -1.
</event>
<event>
 4    1  0.9360795E+003  0.2565229E+02  0.7546771E-02  0.1461637E+00
          2   -1    0    0  501    0  0.00000000000E+00  0.00000000000E+00  0.12670325705E+03  0.12670325705E+03  0.00000000000E+00 0. -1.
          2   -1    0    0  502    0 -0.00000000000E+00 -0.00000000000E+00 -0.36676906373E+02  0.36676906373E+02  0.00000000000E+00 0. -1.
          2    1    1    2  501    0  0.12964792579E+02 -0.22134912789E+02 -0.30672461067E+02  0.39985498355E+02  0.00000000000E+00 0. -1.
          2    1    1    2  502    0 -0.12964792579E+02  0.22134912789E+02  0.12069881174E+03  0.12339466506E+03  0.00000000000E+00 0. -1.
</event>
<event>
 4    1  0.9360795E+003  0.3523870E+02  0.7546771E-02  0.1378893E+00
          2   -1    0    0  502    0  0.00000000000E+00  0.00000000000E+00  0.11337521795E+04  0.11337521795E+04  0.00000000000E+00 0. -1.
          2   -1    0    0  501    0 -0.00000000000E+00 -0.00000000000E+00 -0.43087891980E+02  0.43087891980E+02  0.00000000000E+00 0.  1.
          2    1    1    2  501    0 -0.30234971868E+02  0.18100065201E+02  0.11262253796E+04  0.11267765402E+04  0.00000000000E+00 0. -1.
          2    1    1    2  502    0  0.30234971868E+02 -0.18100065201E+02 -0.35561092140E+02  0.50063531221E+02  0.00000000000E+00 0.  1.
</event>
<event>
 4    1  0.9360795E+003  0.3264314E+02  0.7546771E-02  0.1397936E+00
          2   -1    0    0  501    0  0.00000000000E+00  0.00000000000E+00  0.51759620437E+01  0.51759620437E+01  0.00000000000E+00 0.  1.
          2   -1    0    0  502    0 -0.00000000000E+00 -0.00000000000E+00 -0.60172434348E+03  0.60172434348E+03  0.00000000000E+00 0. -1.
          2    1    1    2  501    0  0.28055351331E+02 -0.16687467363E+02 -0.54439956122E+03  0.54537735245E+03  0.00000000000E+00 0. -1.
          2    1    1    2  502    0 -0.28055351331E+02  0.16687467363E+02 -0.52148820214E+02  0.61522953075E+02  0.00000000000E+00 0.  1.
</event>
<event>
 4    1  0.9360795E+003  0.2637522E+02  0.7546771E-02  0.1453987E+00
          2   -1    0    0  501    0  0.00000000000E+00  0.00000000000E+00  0.18689750906E+04  0.18689750906E+04  0.00000000000E+00 0. -1.
          2   -1    0    0  502    0 -0.00000000000E+00 -0.00000000000E+00 -0.26991007451E+02  0.26991007451E+02  0.00000000000E+00 0.  1.
          2    1    1    2  501    0 -0.26013817555E+02 -0.43512619600E+01 -0.20431893559E+02  0.33363370017E+02  0.00000000000E+00 0.  1.
          2    1    1    2  502    0  0.26013817555E+02  0.43512619600E+01  0.18624159767E+04  0.18626027280E+04  0.00000000000E+00 0. -1.
</event>
<event>
 4    1  0.9360795E+003  0.2364804E+02  0.7546771E-02  0.1484517E+00
          2   -1    0    0  501    0  0.00000000000E+00  0.00000000000E+00  0.85001517426E+03  0.85001517426E+03  0.00000000000E+00 0. -1.
          2   -1    0    0  502    0 -0.00000000000E+00 -0.00000000000E+00 -0.53746311054E+01  0.53746311054E+01  0.00000000000E+00 0.  1.
          2    1    1    2  501    0 -0.50715255583E+01 -0.23097819624E+02  0.21656522468E+02  0.32066097490E+02  0.00000000000E+00 0.  1.
          2    1    1    2  502    0  0.50715255583E+01  0.23097819624E+02  0.82298402069E+03  0.82332370787E+03  0.00000000000E+00 0. -1.
</event>
<event>
 4    1  0.9360795E+003  0.4571107E+02  0.7546771E-02  0.1317922E+00
          2   -1    0    0  502    0  0.00000000000E+00  0.00000000000E+00  0.57434998525E+02  0.57434998525E+02  0.00000000000E+00 0.  1.
          2   -1    0    0  501    0 -0.00000000000E+00 -0.00000000000E+00 -0.95742610297E+02  0.95742610297E+02  0.00000000000E+00 0.  1.
          2    1    1    2  501    0 -0.45288743251E+02  0.61993527054E+01  0.41153242134E+02  0.61506841712E+02  0.00000000000E+00 0.  1.
          2    1    1    2  502    0  0.45288743251E+02 -0.61993527054E+01 -0.79460853906E+02  0.91670767111E+02  0.00000000000E+00 0.  1.
</event>
<event>
 4    1  0.9360795E+003  0.2621561E+02  0.7546771E-02  0.1455651E+00
          2   -1    0    0  502    0  0.00000000000E+00  0.00000000000E+00  0.17322715260E+02  0.17322715260E+02  0.00000000000E+00 0.  1.
          2   -1    0    0  501    0 -0.00000000000E+00 -0.00000000000E+00 -0.12834323156E+03  0.12834323156E+03  0.00000000000E+00 0.  1.
          2    1    1    2  501    0  0.20353555789E+02 -0.16522445689E+02  0.50277944237E+01  0.26693391721E+02  0.00000000000E+00 0.  1.
          2    1    1    2  502    0 -0.20353555789E+02  0.16522445689E+02 -0.11604831073E+03  0.11897255510E+03  0.00000000000E+00 0.  1.
</event>
<event>
 4    1  0.9360795E+003  0.2021154E+02  0.7546771E-02  0.1530826E+00
          2   -1    0    0  501    0  0.00000000000E+00  0.00000000000E+00  0.21905098974E+04  0.21905098974E+04  0.00000000000E+00 0. -1.
          2   -1    0    0  502    0 -0.00000000000E+00 -0.00000000000E+00 -0.19434431662E+00  0.19434431662E+00  0.00000000000E+00 0. -1.
          2    1    1    2  501    0  0.92735937071E+01 -0.17958469487E+02  0.87494243076E+03  0.87517584708E+03  0.00000000000E+00 0. -1.
          2    1    1    2  502    0 -0.92735937071E+01  0.17958469487E+02  0.13153731223E+04  0.13155283946E+04  0.00000000000E+00 0. -1.
</event>
<event>
 4    1  0.9360795E+003  0.4169751E+02  0.7546771E-02  0.1338816E+00
          2   -1    0    0  501    0  0.00000000000E+00  0.00000000000E+00  0.24700960261E+02  0.24700960261E+02  0.00000000000E+00 0. -1.
          2   -1    0    0  502    0 -0.00000000000E+00 -0.00000000000E+00 -0.60785894321E+03  0.60785894321E+03  0.00000000000E+00 0. -1.
          2    1    1    2  501    0 -0.25987576140E+02 -0.32608709730E+02 -0.58898329509E+03  0.59045745313E+03  0.00000000000E+00 0. -1.
          2    1    1    2  502    0  0.25987576140E+02  0.32608709730E+02  0.58253121329E+01  0.42102450348E+02  0.00000000000E+00 0. -1.
</event>
<event>
 4    1  0.9360795E+003  0.3929922E+02  0.7546771E-02  0.1352642E+00
          2   -1    0    0  501    0  0.00000000000E+00  0.00000000000E+00  0.79227247077E+03  0.79227247077E+03  0.00000000000E+00 0. -1.
          2   -1    0    0  502    0 -0.00000000000E+00 -0.00000000000E+00 -0.26462475178E+01  0.26462475178E+01  0.00000000000E+00 0. -1.
          2    1    1    2  501    0  0.25056492785E+02 -0.30275418253E+02  0.19084744821E+03  0.19485168018E+03  0.00000000000E+00 0. -1.
          2    1    1    2  502    0 -0.25056492785E+02  0.30275418253E+02  0.59877877504E+03  0.60006703811E+03  0.00000000000E+00 0. -1.
</event>
<event>
 4    1  0.9360795E+003  0.4250249E+02  0.7546771E-02  0.1334414E+00
          2   -1    0    0  502    0  0.00000000000E+00  0.00000000000E+00  0.15163014030E+04  0.15163014030E+04  0.00000000000E+00 0. -1.
          2   -1    0    0  501    0 -0.00000000000E+00 -0.00000000000E+00 -0.14374620193E+01  0.14374620193E+01  0.00000000000E+00 0.  1.
          2    1    1    2  501    0  0.33157771322E+02 -0.26589923787E+02  0.10714292412E+04  0.10722719248E+04  0.00000000000E+00 0. -1.
          2    1    1    2  502    0 -0.33157771322E+02  0.26589923787E+02  0.44343469973E+03  0.44546694015E+03  0.00000000000E+00 0.  1.
</event>
<event>
 4    1  0.9360795E+003  0.2097937E+02  0.7546771E-02  0.1519560E+00
          2   -1    0    0  501    0  0.00000000000E+00  0.00000000000E+00  0.15206985356E+03  0.15206985356E+03  0.00000000000E+00 0.  1.
          2   -1    0    0  502    0 -0.00000000000E+00 -0.00000000000E+00 -0.69773385698E+01  0.69773385698E+01  0.00000000000E+00 0.  1.
          2    1    1    2  501    0  0.19519576254E+02 -0.76889623141E+01  0.11712663458E+02  0.24027494333E+02  0.00000000000E+00 0.  1.
          2    1    1    2  502    0 -0.19519576254E+02  0.76889623141E+01  0.13337985154E+03  0.13501969780E+03  0.00000000000E+00 0.  1.
</event>
<event>
 4    1  0.9360795E+003  0.3088111E+02  0.7546771E-02  0.1412091E+00
          2   -1    0    0  502    0  0.00000000000E+00  0.00000000000E+00  0.10666830265E+01  0.10666830265E+01  0.00000000000E+00 0. -1.
          2   -1    0    0  501    0 -0.00000000000E+00 -0.00000000000E+00 -0.14715427432E+04  0.14715427432E+04  0.00000000000E+00 0. -1.
          2    1    1    2  501    0 -0.10126935831E+02 -0.29173417841E+02 -0.27397021245E+03  0.27570513315E+03  0.00000000000E+00 0. -1.
          2    1    1    2  502    0  0.10126935831E+02  0.29173417841E+02 -0.11965058477E+04  0.11969042930E+04  0.00000000000E+00 0. -1.
</event>
<event>
 4    1  0.9360795E+003  0.2348184E+02  0.7546771E-02  0.1486535E+00
          2   -1    0    0  502    0  0.00000000000E+00  0.00000000000E+00  0.21537992461E+02  0.21537992461E+02  0.00000000000E+00 0.  1.
          2   -1    0    0  501    0 -0.00000000000E+00 -0.00000000000E+00 -0.29952119641E+02  0.29952119641E+02  0.00000000000E+00 0.  1.
          2    1    1    2  501    0 -0.13332524875E+02  0.19329781163E+02  0.56053251897E+01  0.24141589215E+02  0.00000000000E+00 0.  1.
          2    1    1    2  502    0  0.13332524875E+02 -0.19329781163E+02 -0.14019452370E+02  0.27348522887E+02  0.00000000000E+00 0.  1.
</event>
<event>
 4    1  0.9360795E+003  0.3428357E+02  0.7546771E-02  0.1385671E+00
          2   -1    0    0  501    0  0.00000000000E+00  0.00000000000E+00  0.55795378836E+03  0.55795378836E+03  0.00000000000E+00 0. -1.
          2   -1    0    0  502    0 -0.00000000000E+00 -0.00000000000E+00 -0.21365064154E+01  0.21365064154E+01  0.00000000000E+00 0.  1.
          2    1    1    2  501    0  0.31188247031E+01  0.34141409300E+02  0.24475345730E+03  0.24714290958E+03  0.00000000000E+00 0.  1.
          2    1    1    2  502    0 -0.31188247031E+01 -0.34141409300E+02  0.31106382464E+03  0.31294738519E+03  0.00000000000E+00 0. -1.
</event>
<event>
 4    1  0.9360795E+003  0.2648721E+02  0.7546771E-02  0.1452828E+00
          2   -1    0    0  502    0  0.00000000000E+00  0.00000000000E+00  0.14412294057E+03  0.14412294057E+03  0.00000000000E+00 0. -1.
          2   -1    0    0  501    0 -0.00000000000E+00 -0.00000000000E+00 -0.13987295844E+04  0.13987295844E+04  0.00000000000E+00 0.  1.
          2    1    1    2  501    0  0.18003625889E+02  0.19427854264E+02  0.14277940802E+03  0.14521546551E+03  0.00000000000E+00 0. -1.
          2    1    1    2  502    0 -0.18003625889E+02 -0.19427854264E+02 -0.13973860519E+04  0.13976370595E+04  0.00000000000E+00 0.  1.
</event>
<event>
 4    1  0.9360795E+003  0.2126317E+02  0.7546771E-02  0.1515540E+00
          2   -1    0    0  501    0  0.00000000000E+00  0.00000000000E+00  0.38364375501E+03  0.38364375501E+03  0.00000000000E+00 0. -1.
          2   -1    0    0  502    0 -0.00000000000E+00 -0.00000000000E+00 -0.76387138919E+03  0.76387138919E+03  0.00000000000E+00 0.  1.
          2    1    1    2  501    0  0.65798071309E-01 -0.21263069507E+02 -0.76342862373E+03  0.76372467944E+03  0.00000000000E+00 0.  1.
          2    1    1    2  502    0 -0.65798071309E-01  0.21263069507E+02  0.38320098955E+03  0.38379046476E+03  0.00000000000E+00 0. -1.
</event>
<event>
 4    1  0.9360795E+003  0.2055846E+02  0.7546771E-02  0.1525663E+00
          2   -1    0    0  501    0  0.00000000000E+00  0.00000000000E+00  0.12927492798E+01  0.12927492798E+01  0.00000000000E+00 0.  1.
          2   -1    0    0  502    0 -0.00000000000E+00 -0.00000000000E+00 -0.13050768451E+04  0.13050768451E+04  0.00000000000E+00 0.  1.
          2    1    1    2  501    0 -0.16939549310E+02 -0.11649110570E+02 -0.12173731105E+04  0.12175466892E+04  0.00000000000E+00 0.  1.
          2    1    1    2  502    0  0.16939549310E+02  0.11649110570E+02 -0.86410985241E+02  0.88822905144E+02  0.00000000000E+00 0.  1.
</event>
<event>
 4    1  0.9360795E+003  0.3228171E+02  0.7546771E-02  0.1400752E+00
          2   -1    0    0  501    0  0.00000000000E+00  0.00000000000E+00  0.92845139175E+03  0.92845139175E+03  0.00000000000E+00 0. -1.
          2   -1    0    0  502    0 -0.00000000000E+00 -0.00000000000E+00 -0.50289308741E+01  0.50289308741E+01  0.00000000000E+00 0. -1.
          2    1    1    2  501    0 -0.25855716923E+02 -0.19328502007E+02  0.50341760851E+02  0.59803026454E+02  0.00000000000E+00 0. -1.
          2    1    1    2  502    0  0.25855716923E+02  0.19328502007E+02  0.87308070002E+03  0.87367729617E+03  0.00000000000E+00 0. -1.
</event>
<event>
 4    1  0.9360795E+003  0.2324111E+02  0.7546771E-02  0.1489493E+00
          2   -1    0    0  502    0  0.00000000000E+00  0.00000000000E+00  0.25112252830E+01  0.25112252830E+01  0.00000000000E+00 0. -1.
          2   -1    0    0  501    0 -0.00000000000E+00 -0.00000000000E+00 -0.34532497860E+03  0.34532497860E+03  0.00000000000E+00 0. -1.
          2    1    1    2  501    0 -0.11301720915E+00 -0.23240831863E+02 -0.64602698456E+02  0.68656082661E+02  0.00000000000E+00 0. -1.
          2    1    1    2  502    0  0.11301720915E+00  0.23240831863E+02 -0.27821105486E+03  0.27918012122E+03  0.00000000000E+00 0. -1.
</event>
<event>
 4    1  0.9360795E+003  0.3127090E+02  0.7546771E-02  0.1408865E+00
          2   -1    0    0  501    0  0.00000000000E+00  0.00000000000E+00  0.16196197320E+02  0.16196197320E+02  0.00000000000E+00 0.  1.
          2   -1    0    0  502    0 -0.00000000000E+00 -0.00000000000E+00 -0.28469030293E+03  0.28469030293E+03  0.00000000000E+00 0.  1.
          2    1    1    2  501    0  0.31168452250E+02  0.25291690850E+01 -0.26778798534E+03  0.26960763010E+03  0.00000000000E+00 0.  1.
          2    1    1    2  502    0 -0.31168452250E+02 -0.25291690850E+01 -0.70612026107E+00  0.31278870148E+02  0.00000000000E+00 0.  1.
</event>
<event>
 4    1  0.9360795E+003  0.3885797E+02  0.7546771E-02  0.1355311E+00
          2   -1    0    0  502    0  0.00000000000E+00  0.00000000000E+00  0.36829000012E+03  0.36829000012E+03  0.00000000000E+00 0.  1.
          2   -1    0    0  501    0 -0.00000000000E+00 -0.00000000000E+00 -0.69699168688E+03  0.69699168688E+03  0.00000000000E+00 0.  1.
          2    1    1    2  501    0 -0.37938018899E+02  0.84052820165E+01  0.36672112892E+03  0.36877408862E+03  0.00000000000E+00 0.  1.
          2    1    1    2  502    0  0.37938018899E+02 -0.84052820165E+01 -0.69542281567E+03  0.69650759838E+03  0.00000000000E+00 0.  1.
</event>
<event>
 4    1  0.9360795E+003  0.3683203E+02  0.7546771E-02  0.1368122E+00
          2   -1    0    0  501    0  0.00000000000E+00  0.00000000000E+00  0.24322986865E+02  0.24322986865E+02  0.00000000000E+00 0.  1.
          2   -1    0    0  502    0 -0.00000000000E+00 -0.00000000000E+00 -0.90223202025E+03  0.90223202025E+03  0.00000000000E+00 0.  1.
          2    1    1    2  501    0  0.30817714014E+02 -0.20170947199E+02 -0.88768411619E+03  0.88844790998E+03  0.00000000000E+00 0.  1.
          2    1    1    2  502    0 -0.30817714014E+02  0.20170947199E+02  0.97750828095E+01  0.38107097133E+02  0.00000000000E+00 0.  1.
</event>
<event>
 4    1  0.9360795E+003  0.2882996E+02  0.7546771E-02  0.1430044E+00
          2   -1    0    0  501    0  0.00000000000E+00  0.00000000000E+00  0.10409207541E+03  0.10409207541E+03  0.00000000000E+00 0. -1.
          2   -1    0    0  502    0 -0.00000000000E+00 -0.00000000000E+00 -0.62885498495E+03  0.62885498495E+03  0.00000000000E+00 0. -1.
          2    1    1    2  501    0 -0.24429527957E+02 -0.15308971159E+02 -0.62652089458E+03  0.62718386282E+03  0.00000000000E+00 0. -1.
          2    1    1    2  502    0  0.24429527957E+02  0.15308971159E+02  0.10175798505E+03  0.10576319754E+03  0.00000000000E+00 0. -1.
</event>
<event>
 4    1  0.9360795E+003  0.2479886E+02  0.7546771E-02  0.1471066E+00
          2   -1    0    0  501    0  0.00000000000E+00  0.00000000000E+00  0.47266050923E+02  0.47266050923E+02  0.00000000000E+00 0.  1.
          2   -1    0    0  502    0 -0.00000000000E+00 -0.00000000000E+00 -0.12930811145E+03  0.12930811145E+03  0.00000000000E+00 0. -1.
          2    1    1    2  501    0  0.37041948837E+01  0.24520650297E+02 -0.12474861251E+03  0.12718962094E+03  0.00000000000E+00 0. -1.
          2    1    1    2  502    0 -0.37041948837E+01 -0.24520650297E+02  0.42706551983E+02  0.49384541437E+02  0.00000000000E+00 0.  1.
</event>
<event>
 4    1  0.9360795E+003  0.2311890E+02  0.7546771E-02  0.1491010E+00
          2   -1    0    0  501    0  0.00000000000E+00  0.00000000000E+00  0.36163052320E+01  0.36163052320E+01  0.00000000000E+00 0. -1.
          2   -1    0    0  502    0 -0.00000000000E+00 -0.00000000000E+00 -0.33285469269E+03  0.33285469269E+03  0.00000000000E+00 0. -1.
          2    1    1    2  501    0  0.60396899221E+01  0.22316043456E+02 -0.29006102403E+03  0.29098089510E+03  0.00000000000E+00 0. -1.
          2    1    1    2  502    0 -0.60396899221E+01 -0.22316043456E+02 -0.39177363425E+02  0.45490102823E+02  0.00000000000E+00 0. -1.
</event>
<event>
 4    1  0.9360795E+003  0.2504941E+02  0.7546771E-02  0.1468251E+00
          2   -1    0    0  502    0  0.00000000000E+00  0.00000000000E+00  0.48127768118E+03  0.48127768118E+03  0.00000000000E+00 0. -1.
          2   -1    0    0  501    0 -0.00000000000E+00 -0.00000000000E+00 -0.39316914519E+01  0.39316914519E+01  0.00000000000E+00 0. -1.
          2    1    1    2  501    0  0.59764638799E+01  0.24326015513E+02  0.43701561597E+03  0.43773293428E+03  0.00000000000E+00 0. -1.
          2    1    1    2  502    0 -0.59764638799E+01 -0.24326015513E+02  0.40330373763E+02  0.47476438357E+02  0.00000000000E+00 0. -1.
</event>
<event>
 4    1  0.9360795E+003  0.2225939E+02  0.7546771E-02  0.1502013E+00
          2   -1    0    0  501    0  0.00000000000E+00  0.00000000000E+00  0.66863643160E+03  0.66863643160E+03  0.00000000000E+00 0. -1.
          2   -1    0    0  502    0 -0.00000000000E+00 -0.00000000000E+00 -0.78651573854E+00  0.78651573854E+00  0.00000000000E+00 0. -1.
          2    1    1    2  501    0 -0.90819095226E+01  0.20322386576E+02  0.25343371223E+03  0.25440936887E+03  0.00000000000E+00 0. -1.
          2    1    1    2  502    0  0.90819095226E+01 -0.20322386576E+02  0.41441620364E+03  0.41501357847E+03  0.00000000000E+00 0. -1.
</event>
<event>
 4    1  0.9360795E+003  0.2140461E+02  0.7546771E-02  0.1513566E+00
          2   -1    0    0  501    0  0.00000000000E+00  0.00000000000E+00  0.15378382708E+02  0.15378382708E+02  0.00000000000E+00 0.  1.
          2   -1    0    0  502    0 -0.00000000000E+00 -0.00000000000E+00 -0.14082953604E+03  0.14082953604E+03  0.00000000000E+00 0. -1.
          2    1    1    2  501    0  0.12047117377E+02 -0.17692496313E+02 -0.13207781595E+03  0.13380099749E+03  0.00000000000E+00 0. -1.
          2    1    1    2  502    0 -0.12047117377E+02  0.17692496313E+02  0.66266626176E+01  0.22406921260E+02  0.00000000000E+00 0.  1.
</event>
<event>
 4    1  0.9360795E+003  0.3682836E+02  0.7546771E-02  0.1368146E+00
          2   -1    0    0  502    0  0.00000000000E+00  0.00000000000E+00  0.11805621995E+03  0.11805621995E+03  0.00000000000E+00 0.  1.
          2   -1    0    0  501    0 -0.00000000000E+00 -0.00000000000E+00 -0.14085862575E+04  0.14085862575E+04  0.00000000000E+00 0. -1.
          2    1    1    2  501    0 -0.31345088509E+02 -0.19334261543E+02  0.11493691300E+03  0.12069309099E+03  0.00000000000E+00 0.  1.
          2    1    1    2  502    0  0.31345088509E+02  0.19334261543E+02 -0.14054669506E+04  0.14059493865E+04  0.00000000000E+00 0. -1.
</event>
<event>
 4    1  0.9360795E+003  0.2332525E+02  0.7546771E-02  0.1488454E+00
          2   -1    0    0  501    0  0.00000000000E+00  0.00000000000E+00  0.56495304246E+01  0.56495304246E+01  0.00000000000E+00 0. -1.
          2   -1    0    0  502    0 -0.00000000000E+00 -0.00000000000E+00 -0.11925921751E+03  0.11925921751E+03  0.00000000000E+00 0. -1.
          2    1    1    2  501    0  0.12635382055E+02 -0.19606491755E+02 -0.84205812779E+02  0.87376691997E+02  0.00000000000E+00 0. -1.
          2    1    1    2  502    0 -0.12635382055E+02  0.19606491755E+02 -0.29403874303E+02  0.37532055934E+02  0.00000000000E+00 0. -1.
</event>
<event>
 4    1  0.9360795E+003  0.2180877E+02  0.7546771E-02  0.1508024E+00
          2   -1    0    0  501    0  0.00000000000E+00  0.00000000000E+00  0.34476161430E+03  0.34476161430E+03  0.00000000000E+00 0.  1.
          2   -1    0    0  502    0 -0.00000000000E+00 -0.00000000000E+00 -0.63981600665E+01  0.63981600665E+01  0.00000000000E+00 0.  1.
          2    1    1    2  501    0  0.89761549580E+01  0.19875895988E+02  0.13678967983E+02  0.25743674257E+02  0.00000000000E+00 0.  1.
          2    1    1    2  502    0 -0.89761549580E+01 -0.19875895988E+02  0.32468448625E+03  0.32541610011E+03  0.00000000000E+00 0.  1.
</event>
<event>
 4    1  0.9360795E+003  0.2399661E+02  0.7546771E-02  0.1480349E+00
          2   -1    0    0  501    0  0.00000000000E+00  0.00000000000E+00  0.72036606676E+03  0.72036606676E+03  0.00000000000E+00 0. -1.
          2   -1    0    0  502    0 -0.00000000000E+00 -0.00000000000E+00 -0.44752438156E+01  0.44752438156E+01  0.00000000000E+00 0. -1.
          2    1    1    2  501    0 -0.19983240700E+00  0.23995781362E+02  0.29483499545E+02  0.38014657720E+02  0.00000000000E+00 0. -1.
          2    1    1    2  502    0  0.19983240700E+00 -0.23995781362E+02  0.68640732340E+03  0.68682665285E+03  0.00000000000E+00 0. -1.
</event>
<event>
 4    1  0.9360795E+003  0.3191565E+02  0.7546771E-02  0.1403649E+00
          2   -1    0    0  501    0  0.00000000000E+00  0.00000000000E+00  0.19733691184E+02  0.19733691184E+02  0.00000000000E+00 0. -1.
          2   -1    0    0  502    0 -0.00000000000E+00 -0.00000000000E+00 -0.46852659418E+03  0.46852659418E+03  0.00000000000E+00 0.  1.
          2    1    1    2  501    0 -0.12146228748E+02 -0.29514032135E+02 -0.45468631880E+03  0.45580506521E+03  0.00000000000E+00 0.  1.
          2    1    1    2  502    0  0.12146228748E+02  0.29514032135E+02  0.58934158025E+01  0.32455220158E+02  0.00000000000E+00 0. -1.
</event>
<event>
 4    1  0.9360795E+003  0.2922072E+02  0.7546771E-02  0.1426491E+00
          2   -1    0    0  501    0  0.00000000000E+00  0.00000000000E+00  0.46063479857E+03  0.46063479857E+03  0.00000000000E+00 0.  1.
          2   -1    0    0  502    0 -0.00000000000E+00 -0.00000000000E+00 -0.11208568838E+02  0.11208568838E+02  0.00000000000E+00 0.  1.
          2    1    1    2  501    0 -0.28616182423E+02  0.59130895413E+01  0.91804742260E+01  0.30628934546E+02  0.00000000000E+00 0.  1.
          2    1    1    2  502    0  0.28616182423E+02 -0.59130895413E+01  0.44024575550E+03  0.44121443286E+03  0.00000000000E+00 0.  1.
</event>
<event>
 4    1  0.9360795E+003  0.2121841E+02  0.7546771E-02  0.1516169E+00
          2   -1    0    0  502    0  0.00000000000E+00  0.00000000000E+00  0.36278661565E+01  0.36278661565E+01  0.00000000000E+00 0.  1.
          2   -1    0    0  501    0 -0.00000000000E+00 -0.00000000000E+00 -0.15385512347E+04  0.15385512347E+04  0.00000000000E+00 0.  1.
          2    1    1    2  501    0 -0.91637734981E+00  0.21198608803E+02 -0.28124214518E+02  0.35230557828E+02  0.00000000000E+00 0.  1.
          2    1    1    2  502    0  0.91637734981E+00 -0.21198608803E+02 -0.15067991541E+04  0.15069485431E+04  0.00000000000E+00 0.  1.
</event>
<event>
 4    1  0.9360795E+003  0.2458805E+02  0.7546771E-02  0.1473465E+00
          2   -1    0    0  502    0  0.00000000000E+00  0.00000000000E+00  0.49748424447E+03  0.49748424447E+03  0.00000000000E+00 0. -1.
          2   -1    0    0  501    0 -0.00000000000E+00 -0.00000000000E+00 -0.40361904078E+01  0.40361904078E+01  0.00000000000E+00 0. -1.
          2    1    1    2  501    0  0.23749785144E+02  0.63655303937E+01  0.45636157323E+03  0.45702347619E+03  0.00000000000E+00 0. -1.
          2    1    1    2  502    0 -0.23749785144E+02 -0.63655303937E+01  0.37086480831E+02  0.44496958682E+02  0.00000000000E+00 0. -1.
</event>
<event>
 4    1  0.9360795E+003  0.2007552E+02  0.7546771E-02  0.1532884E+00
          2   -1    0    0  502    0  0.00000000000E+00  0.00000000000E+00  0.32694646183E+03  0.32694646183E+03  0.00000000000E+00 0. -1.
          2   -1    0    0  501    0 -0.00000000000E+00 -0.00000000000E+00 -0.39078289649E+02  0.39078289649E+02  0.00000000000E+00 0.  1.
          2    1    1    2  501    0  0.89299583052E+01 -0.17980056848E+02  0.32403682955E+03  0.32465811788E+03  0.00000000000E+00 0. -1.
          2    1    1    2  502    0 -0.89299583052E+01  0.17980056848E+02 -0.36168657369E+02  0.41366633601E+02  0.00000000000E+00 0.  1.
</event>
<event>
 4    1  0.9360795E+003  0.3521314E+02  0.7546771E-02  0.1379071E+00
          2   -1    0    0  502    0  0.00000000000E+00  0.00000000000E+00  0.15842209403E+02  0.15842209403E+02  0.00000000000E+00 0.  1.
          2   -1    0    0  501    0 -0.00000000000E+00 -0.00000000000E+00 -0.25128107162E+03  0.25128107162E+03  0.00000000000E+00 0. -1.
          2    1    1    2  501    0 -0.33961790968E+02 -0.93038534285E+01 -0.68940623553E+01  0.35881653113E+02  0.00000000000E+00 0.  1.
          2    1    1    2  502    0  0.33961790968E+02  0.93038534285E+01 -0.22854479986E+03  0.23124162790E+03  0.00000000000E+00 0. -1.
</event>
<event>
 4    1  0.9360795E+003  0.3230274E+02  0.7546771E-02  0.1400587E+00
          2   -1    0    0  501    0  0.00000000000E+00  0.00000000000E+00  0.53767024764E+03  0.53767024764E+03  0.00000000000E+00 0.  1.
          2   -1    0    0  502    0 -0.00000000000E+00 -0.00000000000E+00 -0.88906340537E+01  0.88906340537E+01  0.00000000000E+00 0. -1.
          2    1    1    2  501    0 -0.92669772409E+01 -0.30944957720E+02  0.22770348324E+02  0.39521589521E+02  0.00000000000E+00 0. -1.
          2    1    1    2  502    0  0.92669772409E+01  0.30944957720E+02  0.50600926526E+03  0.50703929217E+03  0.00000000000E+00 0.  1.
</event>
<event>
 4    1  0.9360795E+003  0.2834583E+02  0.7546771E-02  0.1434538E+00
          2   -1    0    0  501    0  0.00000000000E+00  0.00000000000E+00  0.14662044483E+03  0.14662044483E+03  0.00000000000E+00 0.  1.
          2   -1    0    0  502    0 -0.00000000000E+00 -0.00000000000E+00 -0.64318257558E+02  0.64318257558E+02  0.00000000000E+00 0.  1.
          2    1    1    2  501    0  0.20293318568E+02 -0.19790588906E+02 -0.59725146282E+02  0.66110356875E+02  0.00000000000E+00 0.  1.
          2    1    1    2  502    0 -0.20293318568E+02  0.19790588906E+02  0.14202733355E+03  0.14482834551E+03  0.00000000000E+00 0.  1.
</event>
<event>
 4    1  0.9360795E+003  0.2005575E+02  0.7546771E-02  0.1533185E+00
          2   -1    0    0  501    0  0.00000000000E+00  0.00000000000E+00  0.10812751539E+03  0.10812751539E+03  0.00000000000E+00 0. -1.
          2   -1    0    0  502    0 -0.00000000000E+00 -0.00000000000E+00 -0.25733405038E+02  0.25733405038E+02  0.00000000000E+00 0.  1.
          2    1    1    2  501    0  0.70032757093E+01  0.18793280594E+02 -0.20706970875E+02  0.28827277169E+02  0.00000000000E+00 0.  1.
          2    1    1    2  502    0 -0.70032757093E+01 -0.18793280594E+02  0.10310108122E+03  0.10503364326E+03  0.00000000000E+00 0. -1.
</event>
<event>
 4    1  0.9360795E+003  0.4975015E+02  0.7546771E-02  0.1299259E+00
          2   -1    0    0  501    0  0.00000000000E+00  0.00000000000E+00  0.12347267668E+03  0.12347267668E+03  0.00000000000E+00 0. -1.
          2   -1    0    0  502    0 -0.00000000000E+00 -0.00000000000E+00 -0.11900289463E+04  0.11900289463E+04  0.00000000000E+00 0. -1.
          2    1    1    2  501    0  0.44951104384E+02 -0.21318434946E+02 -0.11844741062E+04  0.11855184459E+04  0.00000000000E+00 0. -1.
          2    1    1    2  502    0 -0.44951104384E+02  0.21318434946E+02  0.11791783651E+03  0.12798317710E+03  0.00000000000E+00 0. -1.
</event>
<event>
 4    1  0.1266112E+004  0.2845329E+02  0.7546771E-02  0.1433531E+00
          2   -1    0    0  502    0  0.00000000000E+00  0.00000000000E+00  0.11054111044E+04  0.11054111044E+04  0.00000000000E+00 0. -1.
          2   -1    0    0  501    0 -0.00000000000E+00 -0.00000000000E+00 -0.59363327665E+03  0.59363327665E+03  0.00000000000E+00 0.  1.
          2    1    1    2  501    0  0.37127850556E+01 -0.28210011122E+02  0.11048868989E+04  0.11052532058E+04  0.00000000000E+00 0. -1.
          2    1    1    2  502    0 -0.37127850556E+01  0.28210011122E+02 -0.59310907117E+03  0.59379117525E+03  0.00000000000E+00 0.  1.
</event>
<event>
 4    1  0.9360795E+003  0.2600729E+02  0.7546771E-02  0.1457843E+00
          2   -1    0    0  502    0  0.00000000000E+00  0.00000000000E+00  0.13377733707E+04  0.13377733707E+04  0.00000000000E+00 0. -1.
          2   -1    0    0  501    0 -0.00000000000E+00 -0.00000000000E+00 -0.26333759050E+01  0.26333759050E+01  0.00000000000E+00 0. -1.
          2    1    1    2  501    0  0.19431115226E+02 -0.17286141562E+02  0.12700089844E+04  0.12702752455E+04  0.00000000000E+00 0. -1.
          2    1    1    2  502    0 -0.19431115226E+02  0.17286141562E+02  0.65131010388E+02  0.70131501076E+02  0.00000000000E+00 0. -1.
</event>
<event>
 4    1  0.9360795E+003  0.2396850E+02  0.7546771E-02  0.1480682E+00
          2   -1    0    0  502    0  0.00000000000E+00  0.00000000000E+00  0.12069176870E+04  0.12069176870E+04  0.00000000000E+00 0.  1.
          2   -1    0    0  501    0 -0.00000000000E+00 -0.00000000000E+00 -0.54361225558E+00  0.54361225558E+00  0.00000000000E+00 0.  1.
          2    1    1    2  501    0 -0.23115022724E+02 -0.63391566689E+01  0.39026481386E+03  0.39100014594E+03  0.00000000000E+00 0.  1.
          2    1    1    2  502    0  0.23115022724E+02  0.63391566689E+01  0.81610926089E+03  0.81646115333E+03  0.00000000000E+00 0.  1.
</event>
<event>
 4    1  0.9360795E+003  0.4396853E+02  0.7546771E-02  0.1326678E+00
          2   -1    0    0  502    0  0.00000000000E+00  0.00000000000E+00  0.31947356514E+03  0.31947356514E+03  0.00000000000E+00 0. -1.
          2   -1    0    0  501    0 -0.00000000000E+00 -0.00000000000E+00 -0.87063008591E+01  0.87063008591E+01  0.00000000000E+00 0. -1.
          2    1    1    2  501    0  0.25194509099E+02  0.36034267240E+02  0.24599800675E+03  0.24989648063E+03  0.00000000000E+00 0. -1.
          2    1    1    2  502    0 -0.25194509099E+02 -0.36034267240E+02  0.64769257528E+02  0.78283385370E+02  0.00000000000E+00 0. -1.
</event>
<event>
 4    1  0.9360795E+003  0.4282471E+02  0.7546771E-02  0.1332683E+00
          2   -1    0    0  502    0  0.00000000000E+00  0.00000000000E+00  0.71016802439E+01  0.71016802439E+01  0.00000000000E+00 0. -1.
          2   -1    0    0  501    0 -0.00000000000E+00 -0.00000000000E+00 -0.35856270112E+03  0.35856270112E+03  0.00000000000E+00 0. -1.
          2    1    1    2  501    0  0.42223185688E+02  0.71525013186E+01 -0.79022088374E+02  0.89880176545E+02  0.00000000000E+00 0. -1.
          2    1    1    2  502    0 -0.42223185688E+02 -0.71525013186E+01 -0.27243893250E+03  0.27578420482E+03  0.00000000000E+00 0. -1.
</event>
<event>
 4    1  0.9360795E+003  0.2100732E+02  0.7546771E-02  0.1519160E+00
          2   -1    0    0  501    0  0.00000000000E+00  0.00000000000E+00  0.49058196884E+03  0.49058196884E+03  0.00000000000E+00 0.  1.
          2   -1    0    0  502    0 -0.00000000000E+00 -0.00000000000E+00 -0.17949137948E+02  0.17949137948E+02  0.00000000000E+00 0.  1.
          2    1    1    2  501    0  0.10145238576E+02  0.18395157642E+02 -0.11495710072E+02  0.23947004834E+02  0.00000000000E+00 0.  1.
          2    1    1    2  502    0 -0.10145238576E+02 -0.18395157642E+02  0.48412854096E+03  0.48458410195E+03  0.00000000000E+00 0.  1.
</event>
<event>
 4    1  0.9360795E+003  0.2690034E+02  0.7546771E-02  0.1448612E+00
          2   -1    0    0  501    0  0.00000000000E+00  0.00000000000E+00  0.13857254078E+03  0.13857254078E+03  0.00000000000E+00 0. -1.
          2   -1    0    0  502    0 -0.00000000000E+00 -0.00000000000E+00 -0.15678404703E+03  0.15678404703E+03  0.00000000000E+00 0.  1.
          2    1    1    2  501    0 -0.26807384624E+02 -0.22343919476E+01 -0.15430385388E+03  0.15663111984E+03  0.00000000000E+00 0.  1.
          2    1    1    2  502    0  0.26807384624E+02  0.22343919476E+01  0.13609234763E+03  0.13872546797E+03  0.00000000000E+00 0. -1.
</event>
<event>
 4    1  0.9360795E+003  0.3093098E+02  0.7546771E-02  0.1411675E+00
          2   -1    0    0  501    0  0.00000000000E+00  0.00000000000E+00  0.49979196864E+02  0.49979196864E+02  0.00000000000E+00 0.  1.
          2   -1    0    0  502    0 -0.00000000000E+00 -0.00000000000E+00 -0.20773170184E+03  0.20773170184E+03  0.00000000000E+00 0.  1.
          2    1    1    2  501    0  0.44689963495E+01 -0.30606431933E+02 -0.20165122299E+03  0.20400965991E+03  0.00000000000E+00 0.  1.
          2    1    1    2  502    0 -0.44689963495E+01  0.30606431933E+02  0.43898718017E+02  0.53701238790E+02  0.00000000000E+00 0.  1.
</event>
<event>
 4    1  0.9360795E+003  0.2331835E+02  0.7546771E-02  0.1488539E+00
          2   -1    0    0  501    0  0.00000000000E+00  0.00000000000E+00  0.10211794644E+04  0.10211794644E+04  0.00000000000E+00 0.  1.
          2   -1    0    0  502    0 -0.00000000000E+00 -0.00000000000E+00 -0.51322600337E+01  0.51322600337E+01  0.00000000000E+00 0. -1.
          2    1    1    2  501    0  0.14924897319E+02 -0.17916273294E+02  0.22216269431E+02  0.32207266822E+02  0.00000000000E+00 0. -1.
          2    1    1    2  502    0 -0.14924897319E+02  0.17916273294E+02  0.99383093490E+03  0.99410445758E+03  0.00000000000E+00 0.  1.
</event>
<event>
 4    1  0.9360795E+003  0.2389798E+02  0.7546771E-02  0.1481520E+00
          2   -1    0    0  501    0  0.00000000000E+00  0.00000000000E+00  0.12520525882E+02  0.12520525882E+02  0.00000000000E+00 0.  1.
          2   -1    0    0  502    0 -0.00000000000E+00 -0.00000000000E+00 -0.15298096475E+04  0.15298096475E+04  0.00000000000E+00 0. -1.
          2    1    1    2  501    0 -0.13898585500E+02  0.19440745900E+02 -0.15182257743E+04  0.15184138484E+04  0.00000000000E+00 0. -1.
          2    1    1    2  502    0  0.13898585500E+02 -0.19440745900E+02  0.93665272327E+00  0.23916324935E+02  0.00000000000E+00 0.  1.
</event>
<event>
 4    1  0.9360795E+003  0.3274656E+02  0.7546771E-02  0.1397138E+00
          2   -1    0    0  502    0  0.00000000000E+00  0.00000000000E+00  0.31116925750E+01  0.31116925750E+01  0.00000000000E+00 0. -1.
          2   -1    0    0  501    0 -0.00000000000E+00 -0.00000000000E+00 -0.35042692512E+03  0.35042692512E+03  0.00000000000E+00 0.  1.
          2    1    1    2  501    0  0.30118465573E+02  0.12853610528E+02 -0.15089343157E+03  0.15440584498E+03  0.00000000000E+00 0.  1.
          2    1    1    2  502    0 -0.30118465573E+02 -0.12853610528E+02 -0.19642180097E+03  0.19913277272E+03  0.00000000000E+00 0. -1.
</event>
<event>
 4    1  0.9360795E+003  0.2558318E+02  0.7546771E-02  0.1462384E+00
          2   -1    0    0  501    0  0.00000000000E+00  0.00000000000E+00  0.50409940747E+01  0.50409940747E+01  0.00000000000E+00 0.  1.
          2   -1    0    0  502    0 -0.00000000000E+00 -0.00000000000E+00 -0.26356122671E+03  0.26356122671E+03  0.00000000000E+00 0. -1.
          2    1    1    2  501    0  0.21329483349E+02 -0.14126298560E+02 -0.22492368748E+03  0.22637394806E+03  0.00000000000E+00 0. -1.
          2    1    1    2  502    0 -0.21329483349E+02  0.14126298560E+02 -0.33596545158E+02  0.42228272727E+02  0.00000000000E+00 0.  1.
</event>
<event>
 4    1  0.1170358E+004  0.4805239E+02  0.7546771E-02  0.1306845E+00
          2   -1    0    0  501    0  0.00000000000E+00  0.00000000000E+00  0.15071292647E+04  0.15071292647E+04  0.00000000000E+00 0.  1.
          2   -1    0    0  502    0 -0.00000000000E+00 -0.00000000000E+00 -0.16306055603E+04  0.16306055603E+04  0.00000000000E+00 0.  1.
          2    1    1    2  501    0  0.44644005560E+02  0.17774840810E+02 -0.16298683543E+04  0.16305765497E+04  0.00000000000E+00 0.  1.
          2    1    1    2  502    0 -0.44644005560E+02 -0.17774840810E+02  0.15063920587E+04  0.15071582752E+04  0.00000000000E+00 0.  1.
</event>
<event>
 4    1  0.9360795E+003  0.2031824E+02  0.7546771E-02  0.1529225E+00
          2   -1    0    0  502    0  0.00000000000E+00  0.00000000000E+00  0.12375103109E+03  0.12375103109E+03  0.00000000000E+00 0.  1.
          2   -1    0    0  501    0 -0.00000000000E+00 -0.00000000000E+00 -0.66413308677E+03  0.66413308677E+03  0.00000000000E+00 0. -1.
          2    1    1    2  501    0 -0.14980205615E+02  0.13726778671E+02  0.12276038820E+03  0.12443047827E+03  0.00000000000E+00 0.  1.
          2    1    1    2  502    0  0.14980205615E+02 -0.13726778671E+02 -0.66314244388E+03  0.66345363959E+03  0.00000000000E+00 0. -1.
</event>
<event>
 4    1  0.9360795E+003  0.3377500E+02  0.7546771E-02  0.1389386E+00
          2   -1    0    0  501    0  0.00000000000E+00  0.00000000000E+00  0.22669803996E+04  0.22669803996E+04  0.00000000000E+00 0.  1.
          2   -1    0    0  502    0 -0.00000000000E+00 -0.00000000000E+00 -0.22415661132E+02  0.22415661132E+02  0.00000000000E+00 0.  1.
          2    1    1    2  501    0  0.33740915767E+02 -0.15169206605E+01 -0.94942369315E+01  0.35084055923E+02  0.00000000000E+00 0.  1.
          2    1    1    2  502    0 -0.33740915767E+02  0.15169206605E+01  0.22540589754E+04  0.22543120048E+04  0.00000000000E+00 0.  1.
</event>
<event>
 4    1  0.9360795E+003  0.4709281E+02  0.7546771E-02  0.1311294E+00
          2   -1    0    0  502    0  0.00000000000E+00  0.00000000000E+00  0.81075861484E+03  0.81075861484E+03  0.00000000000E+00 0.  1.
          2   -1    0    0  501    0 -0.00000000000E+00 -0.00000000000E+00 -0.31279020584E+03  0.31279020584E+03  0.00000000000E+00 0. -1.
          2    1    1    2  501    0  0.46254504798E+02  0.88460904013E+01  0.80829683607E+03  0.80966752914E+03  0.00000000000E+00 0.  1.
          2    1    1    2  502    0 -0.46254504798E+02 -0.88460904013E+01 -0.31032842708E+03  0.31388129155E+03  0.00000000000E+00 0. -1.
</event>
<event>
 4    1  0.9360795E+003  0.6362218E+02  0.7546771E-02  0.1247999E+00
          2   -1    0    0  501    0  0.00000000000E+00  0.00000000000E+00  0.46382369385E+03  0.46382369385E+03  0.00000000000E+00 0.  1.
          2   -1    0    0  502    0 -0.00000000000E+00 -0.00000000000E+00 -0.40930263210E+02  0.40930263210E+02  0.00000000000E+00 0. -1.
          2    1    1    2  501    0 -0.37874560063E+02  0.51120443844E+02 -0.12413808094E+02  0.64821946208E+02  0.00000000000E+00 0. -1.
          2    1    1    2  502    0  0.37874560063E+02 -0.51120443844E+02  0.43530723873E+03  0.43993201085E+03  0.00000000000E+00 0.  1.
</event>
<event>
 4    1  0.9360795E+003  0.2558691E+02  0.7546771E-02  0.1462344E+00
          2   -1    0    0  501    0  0.00000000000E+00  0.00000000000E+00  0.19323886806E+02  0.19323886806E+02  0.00000000000E+00 0. -1.
          2   -1    0    0  502    0 -0.00000000000E+00 -0.00000000000E+00 -0.72562692849E+03  0.72562692849E+03  0.00000000000E+00 0. -1.
          2    1    1    2  501    0  0.88876004443E+01  0.23993754940E+02 -0.71682747433E+03  0.71728398677E+03  0.00000000000E+00 0. -1.
          2    1    1    2  502    0 -0.88876004443E+01 -0.23993754940E+02  0.10524432653E+02  0.27666828522E+02  0.00000000000E+00 0. -1.
</event>
<event>
 4    1  0.9360795E+003  0.2170660E+02  0.7546771E-02  0.1509411E+00
          2   -1    0    0  501    0  0.00000000000E+00  0.00000000000E+00  0.59022478455E+03  0.59022478455E+03  0.00000000000E+00 0.  1.
          2   -1    0    0  502    0 -0.00000000000E+00 -0.00000000000E+00 -0.10470330413E+01  0.10470330413E+01  0.00000000000E+00 0.  1.
          2    1    1    2  501    0 -0.17775196837E+02 -0.12458684555E+02  0.15049559379E+03  0.15205295194E+03  0.00000000000E+00 0.  1.
          2    1    1    2  502    0  0.17775196837E+02  0.12458684555E+02  0.43868215772E+03  0.43921886565E+03  0.00000000000E+00 0.  1.
</event>
<event>
 4    1  0.9360795E+003  0.2549928E+02  0.7546771E-02  0.1463295E+00
          2   -1    0    0  501    0  0.00000000000E+00  0.00000000000E+00  0.60682904206E+03  0.60682904206E+03  0.00000000000E+00 0. -1.
          2   -1    0    0  502    0 -0.00000000000E+00 -0.00000000000E+00 -0.41948750825E+02  0.41948750825E+02  0.00000000000E+00 0.  1.
          2    1    1    2  501    0 -0.20415607281E+02  0.15277970193E+02 -0.37779032285E+02  0.45579257062E+02  0.00000000000E+00 0.  1.
          2    1    1    2  502    0  0.20415607281E+02 -0.15277970193E+02  0.60265932352E+03  0.60319853582E+03  0.00000000000E+00 0. -1.
</event>
<event>
 4    1  0.9360795E+003  0.2286809E+02  0.7546771E-02  0.1494161E+00
          2   -1    0    0  501    0  0.00000000000E+00  0.00000000000E+00  0.18235678024E+03  0.18235678024E+03  0.00000000000E+00 0. -1.
          2   -1    0    0  502    0 -0.00000000000E+00 -0.00000000000E+00 -0.54130934105E+02  0.54130934105E+02  0.00000000000E+00 0. -1.
          2    1    1    2  501    0  0.16793190526E+02 -0.15522189531E+02 -0.50956175329E+02  0.55852317947E+02  0.00000000000E+00 0. -1.
          2    1    1    2  502    0 -0.16793190526E+02  0.15522189531E+02  0.17918202147E+03  0.18063539640E+03  0.00000000000E+00 0. -1.
</event>
<event>
 4    1  0.9360795E+003  0.2065844E+02  0.7546771E-02  0.1524198E+00
          2   -1    0    0  501    0  0.00000000000E+00  0.00000000000E+00  0.69099731686E+03  0.69099731686E+03  0.00000000000E+00 0. -1.
          2   -1    0    0  502    0 -0.00000000000E+00 -0.00000000000E+00 -0.12370674688E+02  0.12370674688E+02  0.00000000000E+00 0.  1.
          2    1    1    2  501    0 -0.72464970919E+01  0.19345789528E+02 -0.34792145244E+01  0.20949372933E+02  0.00000000000E+00 0.  1.
          2    1    1    2  502    0  0.72464970919E+01 -0.19345789528E+02  0.68210585669E+03  0.68241861861E+03  0.00000000000E+00 0. -1.
</event>
<event>
 4    1  0.9360795E+003  0.3310774E+02  0.7546771E-02  0.1394378E+00
          2   -1    0    0  501    0  0.00000000000E+00  0.00000000000E+00  0.22552576634E+03  0.22552576634E+03  0.00000000000E+00 0.  1.
          2   -1    0    0  502    0 -0.00000000000E+00 -0.00000000000E+00 -0.58182550936E+02  0.58182550936E+02  0.00000000000E+00 0. -1.
          2    1    1    2  501    0 -0.31922927003E+02  0.87777665478E+01 -0.52128444829E+02  0.61753519853E+02  0.00000000000E+00 0. -1.
          2    1    1    2  502    0  0.31922927003E+02 -0.87777665478E+01  0.21947166023E+03  0.22195479742E+03  0.00000000000E+00 0.  1.
</event>
<event>
 4    1  0.9360795E+003  0.2106935E+02  0.7546771E-02  0.1518277E+00
          2   -1    0    0  501    0  0.00000000000E+00  0.00000000000E+00  0.78230875308E+03  0.78230875308E+03  0.00000000000E+00 0. -1.
          2   -1    0    0  502    0 -0.00000000000E+00 -0.00000000000E+00 -0.10473835279E+01  0.10473835279E+01  0.00000000000E+00 0.  1.
          2    1    1    2  501    0  0.85998058002E+01 -0.19234371454E+02  0.12549456608E+03  0.12725094821E+03  0.00000000000E+00 0.  1.
          2    1    1    2  502    0 -0.85998058002E+01  0.19234371454E+02  0.65576680348E+03  0.65610518840E+03  0.00000000000E+00 0. -1.
</event>
<event>
 4    1  0.9360795E+003  0.3428460E+02  0.7546771E-02  0.1385664E+00
          2   -1    0    0  502    0  0.00000000000E+00  0.00000000000E+00  0.29917860501E+02  0.29917860501E+02  0.00000000000E+00 0. -1.
          2   -1    0    0  501    0 -0.00000000000E+00 -0.00000000000E+00 -0.26985456050E+03  0.26985456050E+03  0.00000000000E+00 0. -1.
          2    1    1    2  501    0  0.89721953029E+01 -0.33089777076E+02  0.18577750456E+02  0.38994441238E+02  0.00000000000E+00 0. -1.
          2    1    1    2  502    0 -0.89721953029E+01  0.33089777076E+02 -0.25851445046E+03  0.26077797976E+03  0.00000000000E+00 0. -1.
</event>
<event>
 4    1  0.9360795E+003  0.2088571E+02  0.7546771E-02  0.1520903E+00
          2   -1    0    0  501    0  0.00000000000E+00  0.00000000000E+00  0.81368980335E+01  0.81368980335E+01  0.00000000000E+00 0.  1.
          2   -1    0    0  502    0 -0.00000000000E+00 -0.00000000000E+00 -0.95914282076E+02  0.95914282076E+02  0.00000000000E+00 0. -1.
          2    1    1    2  501    0 -0.83908022093E+01  0.19126088643E+02 -0.78440557276E+02  0.81173479994E+02  0.00000000000E+00 0. -1.
          2    1    1    2  502    0  0.83908022093E+01 -0.19126088643E+02 -0.93368267656E+01  0.22877700115E+02  0.00000000000E+00 0.  1.
</event>
<event>
 4    1  0.9360795E+003  0.2570073E+02  0.7546771E-02  0.1461115E+00
          2   -1    0    0  502    0  0.00000000000E+00  0.00000000000E+00  0.13778821498E+01  0.13778821498E+01  0.00000000000E+00 0. -1.
          2   -1    0    0  501    0 -0.00000000000E+00 -0.00000000000E+00 -0.11807144344E+04  0.11807144344E+04  0.00000000000E+00 0. -1.
          2    1    1    2  501    0  0.81417208814E+01  0.24377031484E+02 -0.13414354311E+03  0.13658337176E+03  0.00000000000E+00 0. -1.
          2    1    1    2  502    0 -0.81417208814E+01 -0.24377031484E+02 -0.10451930092E+04  0.10455089448E+04  0.00000000000E+00 0. -1.
</event>
<event>
 4    1  0.9360795E+003  0.2791662E+02  0.7546771E-02  0.1438612E+00
          2   -1    0    0  502    0  0.00000000000E+00  0.00000000000E+00  0.13729152971E+04  0.13729152971E+04  0.00000000000E+00 0.  1.
          2   -1    0    0  501    0 -0.00000000000E+00 -0.00000000000E+00 -0.51058339493E+01  0.51058339493E+01  0.00000000000E+00 0. -1.
          2    1    1    2  501    0 -0.25630625360E+02  0.11063835575E+02  0.13334860326E+04  0.13337782186E+04  0.00000000000E+00 0.  1.
          2    1    1    2  502    0  0.25630625360E+02 -0.11063835575E+02  0.34323430622E+02  0.44242912468E+02  0.00000000000E+00 0. -1.
</event>
<event>
 4    1  0.9360795E+003  0.2484372E+02  0.7546771E-02  0.1470559E+00
          2   -1    0    0  502    0  0.00000000000E+00  0.00000000000E+00  0.89118530574E+03  0.89118530574E+03  0.00000000000E+00 0. -1.
          2   -1    0    0  501    0 -0.00000000000E+00 -0.00000000000E+00 -0.19953758073E+02  0.19953758073E+02  0.00000000000E+00 0.  1.
          2    1    1    2  501    0  0.22367914081E+02 -0.10811414575E+02  0.88320933446E+03  0.88355867872E+03  0.00000000000E+00 0. -1.
          2    1    1    2  502    0 -0.22367914081E+02  0.10811414575E+02 -0.11977786793E+02  0.27580385093E+02  0.00000000000E+00 0.  1.
</event>
<event>
 4    1  0.9360795E+003  0.2066271E+02  0.7546771E-02  0.1524135E+00
          2   -1    0    0  501    0  0.00000000000E+00  0.00000000000E+00  0.13758598750E+01  0.13758598750E+01  0.00000000000E+00 0. -1.
          2   -1    0    0  502    0 -0.00000000000E+00 -0.00000000000E+00 -0.31333872674E+03  0.31333872674E+03  0.00000000000E+00 0. -1.
          2    1    1    2  501    0  0.23720662515E+01 -0.20526098702E+02 -0.14051881023E+03  0.14202986818E+03  0.00000000000E+00 0. -1.
          2    1    1    2  502    0 -0.23720662515E+01  0.20526098702E+02 -0.17144405663E+03  0.17268471844E+03  0.00000000000E+00 0. -1.
</event>
<event>
 4    1  0.9360795E+003  0.3977666E+02  0.7546771E-02  0.1349800E+00
          2   -1    0    0  502    0  0.00000000000E+00  0.00000000000E+00  0.15770321045E+04  0.15770321045E+04  0.00000000000E+00 0. -1.
          2   -1    0    0  501    0 -0.00000000000E+00 -0.00000000000E+00 -0.34447707758E+01  0.34447707758E+01  0.00000000000E+00 0.  1.
          2    1    1    2  501    0  0.26047201473E+02  0.30062040364E+02  0.14520771772E+04  0.14526218749E+04  0.00000000000E+00 0. -1.
          2    1    1    2  502    0 -0.26047201473E+02 -0.30062040364E+02  0.12151015653E+03  0.12785500036E+03  0.00000000000E+00 0.  1.
</event>
<event>
 4    1  0.9360795E+003  0.2146637E+02  0.7546771E-02  0.1512709E+00
          2   -1    0    0  501    0  0.00000000000E+00  0.00000000000E+00  0.79920700615E+02  0.79920700615E+02  0.00000000000E+00 0.  1.
          2   -1    0    0  502    0 -0.00000000000E+00 -0.00000000000E+00 -0.25887943861E+03  0.25887943861E+03  0.00000000000E+00 0. -1.
          2    1    1    2  501    0 -0.13004026027E+02 -0.17079231138E+02 -0.25698237289E+03  0.25787738327E+03  0.00000000000E+00 0. -1.
          2    1    1    2  502    0  0.13004026027E+02  0.17079231138E+02  0.78023634892E+02  0.80922755952E+02  0.00000000000E+00 0.  1.
</event>
<event>
 4    1  0.9360795E+003  0.2448327E+02  0.7546771E-02  0.1474668E+00
          2   -1    0    0  501    0  0.00000000000E+00  0.00000000000E+00  0.27016173298E+01  0.27016173298E+01  0.00000000000E+00 0. -1.
          2   -1    0    0  502    0 -0.00000000000E+00 -0.00000000000E+00 -0.99763864216E+03  0.99763864216E+03  0.00000000000E+00 0.  1.
          2    1    1    2  501    0 -0.20502627779E+02  0.13381813442E+02 -0.93852566019E+03  0.93884495286E+03  0.00000000000E+00 0.  1.
          2    1    1    2  502    0  0.20502627779E+02 -0.13381813442E+02 -0.56411364641E+02  0.61495306630E+02  0.00000000000E+00 0. -1.
</event>
<event>
 4    1  0.9360795E+003  0.3418471E+02  0.7546771E-02  0.1386387E+00
          2   -1    0    0  502    0  0.00000000000E+00  0.00000000000E+00  0.53164499749E+01  0.53164499749E+01  0.00000000000E+00 0. -1.
          2   -1    0    0  501    0 -0.00000000000E+00 -0.00000000000E+00 -0.28234472572E+03  0.28234472572E+03  0.00000000000E+00 0. -1.
          2    1    1    2  501    0  0.29392020891E+02 -0.17455759231E+02 -0.70823052773E+02  0.78641587131E+02  0.00000000000E+00 0. -1.
          2    1    1    2  502    0 -0.29392020891E+02  0.17455759231E+02 -0.20620522297E+03  0.20901958856E+03  0.00000000000E+00 0. -1.
</event>
<event>
 4    1  0.9360795E+003  0.3673012E+02  0.7546771E-02  0.1368792E+00
          2   -1    0    0  501    0  0.00000000000E+00  0.00000000000E+00  0.82665236056E+03  0.82665236056E+03  0.00000000000E+00 0. -1.
          2   -1    0    0  502    0 -0.00000000000E+00 -0.00000000000E+00 -0.25624850773E+03  0.25624850773E+03  0.00000000000E+00 0.  1.
          2    1    1    2  501    0 -0.24990107116E+02  0.26918324031E+02 -0.25452154778E+03  0.25715816127E+03  0.00000000000E+00 0.  1.
          2    1    1    2  502    0  0.24990107116E+02 -0.26918324031E+02  0.82492540061E+03  0.82574270702E+03  0.00000000000E+00 0. -1.
</event>
<event>
 4    1  0.9360795E+003  0.3466338E+02  0.7546771E-02  0.1382945E+00
          2   -1    0    0  502    0  0.00000000000E+00  0.00000000000E+00  0.16188552089E+04  0.16188552089E+04  0.00000000000E+00 0. -1.
          2   -1    0    0  501    0 -0.00000000000E+00 -0.00000000000E+00 -0.43865616118E+01  0.43865616118E+01  0.00000000000E+00 0. -1.
          2    1    1    2  501    0  0.34657292235E+01  0.34489693025E+02  0.15470107853E+04  0.15473990824E+04  0.00000000000E+00 0. -1.
          2    1    1    2  502    0 -0.34657292235E+01 -0.34489693025E+02  0.67457861960E+02  0.75842688139E+02  0.00000000000E+00 0. -1.
</event>
<event>
 4    1  0.9360795E+003  0.2715505E+02  0.7546771E-02  0.1446057E+00
          2   -1    0    0  502    0  0.00000000000E+00  0.00000000000E+00  0.73277615170E+01  0.73277615170E+01  0.00000000000E+00 0.  1.
          2   -1    0    0  501    0 -0.00000000000E+00 -0.00000000000E+00 -0.12158096499E+04  0.12158096499E+04  0.00000000000E+00 0. -1.
          2    1    1    2  501    0 -0.23330837589E+02 -0.13894909689E+02 -0.18528061254E+02  0.32873782133E+02  0.00000000000E+00 0.  1.
          2    1    1    2  502    0  0.23330837589E+02  0.13894909689E+02 -0.11899538271E+04  0.11902636293E+04  0.00000000000E+00 0. -1.
</event>
<event>
 4    1  0.9360795E+003  0.2154305E+02  0.7546771E-02  0.1511651E+00
          2   -1    0    0  502    0  0.00000000000E+00  0.00000000000E+00  0.45252124833E+01  0.45252124833E+01  0.00000000000E+00 0.  1.
          2   -1    0    0  501    0 -0.00000000000E+00 -0.00000000000E+00 -0.12754912779E+03  0.12754912779E+03  0.00000000000E+00 0.  1.
          2    1    1    2  501    0  0.20750156096E+02  0.57908700049E+01 -0.32281856112E+02  0.38810068119E+02  0.00000000000E+00 0.  1.
          2    1    1    2  502    0 -0.20750156096E+02 -0.57908700049E+01 -0.90742059199E+02  0.93264272157E+02  0.00000000000E+00 0.  1.
</event>
<event>
 4    1  0.9360795E+003  0.2046932E+02  0.7546771E-02  0.1526978E+00
          2   -1    0    0  501    0  0.00000000000E+00  0.00000000000E+00  0.15844580440E+04  0.15844580440E+04  0.00000000000E+00 0. -1.
          2   -1    0    0  502    0 -0.00000000000E+00 -0.00000000000E+00 -0.63565197713E+00  0.63565197713E+00  0.00000000000E+00 0.  1.
          2    1    1    2  501    0 -0.12655375126E+02  0.16088331705E+02  0.18625431436E+03  0.18737572562E+03  0.00000000000E+00 0.  1.
          2    1    1    2  502    0  0.12655375126E+02 -0.16088331705E+02  0.13975680777E+04  0.13977179704E+04  0.00000000000E+00 0. -1.
</event>
<event>
 4    1  0.9360795E+003  0.2105782E+02  0.7546771E-02  0.1518441E+00
          2   -1    0    0  501    0  0.00000000000E+00  0.00000000000E+00  0.63499806159E+03  0.63499806159E+03  0.00000000000E+00 0.  1.
          2   -1    0    0  502    0 -0.00000000000E+00 -0.00000000000E+00 -0.18884299536E+01  0.18884299536E+01  0.00000000000E+00 0. -1.
          2    1    1    2  501    0  0.10847031980E+02  0.18049205854E+02  0.63755950672E+02  0.67143526723E+02  0.00000000000E+00 0. -1.
          2    1    1    2  502    0 -0.10847031980E+02 -0.18049205854E+02  0.56935368096E+03  0.56974296482E+03  0.00000000000E+00 0.  1.
</event>
<event>
 4    1  0.1025532E+004  0.2582604E+02  0.7546771E-02  0.1459771E+00
          2   -1    0    0  501    0  0.00000000000E+00  0.00000000000E+00  0.36367812031E+03  0.36367812031E+03  0.00000000000E+00 0.  1.
          2   -1    0    0  502    0 -0.00000000000E+00 -0.00000000000E+00 -0.12484931629E+04  0.12484931629E+04  0.00000000000E+00 0. -1.
          2    1    1    2  501    0  0.12222031417E+01 -0.25797098845E+02 -0.12479008886E+04  0.12481681024E+04  0.00000000000E+00 0. -1.
          2    1    1    2  502    0 -0.12222031417E+01  0.25797098845E+02  0.36308584600E+03  0.36400318083E+03  0.00000000000E+00 0.  1.
</event>
<event>
 4    1  0.9360795E+003  0.4019095E+02  0.7546771E-02  0.1347370E+00
          2   -1    0    0  502    0  0.00000000000E+00  0.00000000000E+00  0.69260765473E+02  0.69260765473E+02  0.00000000000E+00 0.  1.
          2   -1    0    0  501    0 -0.00000000000E+00 -0.00000000000E+00 -0.10308833150E+03  0.10308833150E+03  0.00000000000E+00 0.  1.
          2    1    1    2  501    0 -0.19992731306E+02 -0.34865501821E+02  0.58888722701E+02  0.71296522943E+02  0.00000000000E+00 0.  1.
          2    1    1    2  502    0  0.19992731306E+02  0.34865501821E+02 -0.92716288726E+02  0.10105257403E+03  0.00000000000E+00 0.  1.
</event>
<event>
 4    1  0.9360795E+003  0.3136905E+02  0.7546771E-02  0.1408061E+00
          2   -1    0    0  502    0  0.00000000000E+00  0.00000000000E+00  0.39950175913E+03  0.39950175913E+03  0.00000000000E+00 0. -1.
          2   -1    0    0  501    0 -0.00000000000E+00 -0.00000000000E+00 -0.75112412025E+03  0.75112412025E+03  0.00000000000E+00 0. -1.
          2    1    1    2  501    0  0.31221788209E+02 -0.30360183623E+01  0.39855769168E+03  0.39979025884E+03  0.00000000000E+00 0. -1.
          2    1    1    2  502    0 -0.31221788209E+02  0.30360183623E+01 -0.75018005279E+03  0.75083562054E+03  0.00000000000E+00 0. -1.
</event>
<event>
 4    1  0.9360795E+003  0.2499223E+02  0.7546771E-02  0.1468890E+00
          2   -1    0    0  501    0  0.00000000000E+00  0.00000000000E+00  0.64785793430E+03  0.64785793430E+03  0.00000000000E+00 0. -1.
          2   -1    0    0  502    0 -0.00000000000E+00 -0.00000000000E+00 -0.15465736067E+03  0.15465736067E+03  0.00000000000E+00 0. -1.
          2    1    1    2  501    0  0.18173083234E+02 -0.17156651195E+02 -0.15340470576E+03  0.15542720284E+03  0.00000000000E+00 0. -1.
          2    1    1    2  502    0 -0.18173083234E+02  0.17156651195E+02  0.64660527939E+03  0.64708809212E+03  0.00000000000E+00 0. -1.
</event>
<event>
 4    1  0.9360795E+003  0.2569445E+02  0.7546771E-02  0.1461182E+00
          2   -1    0    0  501    0  0.00000000000E+00  0.00000000000E+00  0.45996447472E+02  0.45996447472E+02  0.00000000000E+00 0.  1.
          2   -1    0    0  502    0 -0.00000000000E+00 -0.00000000000E+00 -0.30166208989E+02  0.30166208989E+02  0.00000000000E+00 0. -1.
          2    1    1    2  501    0  0.83492908019E+01 -0.24300084107E+02 -0.19656129145E+02  0.32350705672E+02  0.00000000000E+00 0. -1.
          2    1    1    2  502    0 -0.83492908019E+01  0.24300084107E+02  0.35486367628E+02  0.43811950789E+02  0.00000000000E+00 0.  1.
</event>
<event>
 4    1  0.9360795E+003  0.2203349E+02  0.7546771E-02  0.1505005E+00
          2   -1    0    0  502    0  0.00000000000E+00  0.00000000000E+00  0.10939442326E+03  0.10939442326E+03  0.00000000000E+00 0.  1.
          2   -1    0    0  501    0 -0.00000000000E+00 -0.00000000000E+00 -0.22086388804E+03  0.22086388804E+03  0.00000000000E+00 0.  1.
          2    1    1    2  501    0  0.48702779102E+01  0.21488489432E+02  0.10772702728E+03  0.10995720618E+03  0.00000000000E+00 0.  1.
          2    1    1    2  502    0 -0.48702779102E+01 -0.21488489432E+02 -0.21919649206E+03  0.22030110512E+03  0.00000000000E+00 0.  1.
</event>
<event>
 4    1  0.9360795E+003  0.4205356E+02  0.7546771E-02  0.1336855E+00
          2   -1    0    0  501    0  0.00000000000E+00  0.00000000000E+00  0.28325889711E+03  0.28325889711E+03  0.00000000000E+00 0.  1.
          2   -1    0    0  502    0 -0.00000000000E+00 -0.00000000000E+00 -0.14631774054E+03  0.14631774054E+03  0.00000000000E+00 0.  1.
          2    1    1    2  501    0  0.39918054862E+02 -0.13230683649E+02 -0.14168525047E+03  0.14779449345E+03  0.00000000000E+00 0.  1.
          2    1    1    2  502    0 -0.39918054862E+02  0.13230683649E+02  0.27862640703E+03  0.28178214420E+03  0.00000000000E+00 0.  1.
</event>
<event>
 4    1  0.9360795E+003  0.3203161E+02  0.7546771E-02  0.1402726E+00
          2   -1    0    0  502    0  0.00000000000E+00  0.00000000000E+00  0.19329711173E+04  0.19329711173E+04  0.00000000000E+00 0.  1.
          2   -1    0    0  501    0 -0.00000000000E+00 -0.00000000000E+00 -0.59024995665E+00  0.59024995665E+00  0.00000000000E+00 0.  1.
          2    1    1    2  501    0  0.16723540728E+02 -0.27319354587E+02  0.12730080635E+04  0.12734109917E+04  0.00000000000E+00 0.  1.
          2    1    1    2  502    0 -0.16723540728E+02  0.27319354587E+02  0.65937280384E+03  0.66015037559E+03  0.00000000000E+00 0.  1.
</event>
<event>
 4    1  0.9360795E+003  0.2841308E+02  0.7546771E-02  0.1433907E+00
          2   -1    0    0  502    0  0.00000000000E+00  0.00000000000E+00  0.18643228848E+03  0.18643228848E+03  0.00000000000E+00 0. -1.
          2   -1    0    0  501    0 -0.00000000000E+00 -0.00000000000E+00 -0.25661708255E+02  0.25661708255E+02  0.00000000000E+00 0. -1.
          2    1    1    2  501    0  0.16271442529E+02  0.23292559034E+02  0.17707173980E+03  0.17933684558E+03  0.00000000000E+00 0. -1.
          2    1    1    2  502    0 -0.16271442529E+02 -0.23292559034E+02 -0.16301159572E+02  0.32757151154E+02  0.00000000000E+00 0. -1.
</event>
<event>
 4    1  0.9360795E+003  0.2382709E+02  0.7546771E-02  0.1482365E+00
          2   -1    0    0  502    0  0.00000000000E+00  0.00000000000E+00  0.14014344783E+02  0.14014344783E+02  0.00000000000E+00 0. -1.
          2   -1    0    0  501    0 -0.00000000000E+00 -0.00000000000E+00 -0.66921198867E+02  0.66921198867E+02  0.00000000000E+00 0.  1.
          2    1    1    2  501    0 -0.22708757733E+02 -0.72140576031E+01 -0.10310533739E+01  0.23849389425E+02  0.00000000000E+00 0. -1.
          2    1    1    2  502    0  0.22708757733E+02  0.72140576031E+01 -0.51875800710E+02  0.57086154225E+02  0.00000000000E+00 0.  1.
</event>
<event>
 4    1  0.9360795E+003  0.2082837E+02  0.7546771E-02  0.1521729E+00
          2   -1    0    0  501    0  0.00000000000E+00  0.00000000000E+00  0.72155980954E+03  0.72155980954E+03  0.00000000000E+00 0.  1.
          2   -1    0    0  502    0 -0.00000000000E+00 -0.00000000000E+00 -0.60294412817E+01  0.60294412817E+01  0.00000000000E+00 0.  1.
          2    1    1    2  501    0  0.73474189101E+01 -0.19489397034E+02  0.12584695172E+02  0.24335071686E+02  0.00000000000E+00 0.  1.
          2    1    1    2  502    0 -0.73474189101E+01  0.19489397034E+02  0.70294567309E+03  0.70325417914E+03  0.00000000000E+00 0.  1.
</event>
<event>
 4    1  0.9360795E+003  0.3768616E+02  0.7546771E-02  0.1362606E+00
          2   -1    0    0  501    0  0.00000000000E+00  0.00000000000E+00  0.51814552537E+02  0.51814552537E+02  0.00000000000E+00 0.  1.
          2   -1    0    0  502    0 -0.00000000000E+00 -0.00000000000E+00 -0.23667451425E+03  0.23667451425E+03  0.00000000000E+00 0. -1.
          2    1    1    2  501    0 -0.35649985099E+02 -0.12219858636E+02 -0.22806480873E+03  0.23115752933E+03  0.00000000000E+00 0. -1.
          2    1    1    2  502    0  0.35649985099E+02  0.12219858636E+02  0.43204847014E+02  0.57331537465E+02  0.00000000000E+00 0.  1.
</event>
<event>
 4    1  0.9360795E+003  0.2045458E+02  0.7546771E-02  0.1527196E+00
          2   -1    0    0  502    0  0.00000000000E+00  0.00000000000E+00  0.84547309433E+01  0.84547309433E+01  0.00000000000E+00 0.  1.
          2   -1    0    0  501    0 -0.00000000000E+00 -0.00000000000E+00 -0.27358498095E+03  0.27358498095E+03  0.00000000000E+00 0. -1.
          2    1    1    2  501    0  0.15877021207E+02 -0.12896126502E+02 -0.49347078992E+01  0.21041416853E+02  0.00000000000E+00 0.  1.
          2    1    1    2  502    0 -0.15877021207E+02  0.12896126502E+02 -0.26019554211E+03  0.26099829504E+03  0.00000000000E+00 0. -1.
</event>
<event>
 4    1  0.9360795E+003  0.2037309E+02  0.7546771E-02  0.1528407E+00
          2   -1    0    0  502    0  0.00000000000E+00  0.00000000000E+00  0.10049472631E+04  0.10049472631E+04  0.00000000000E+00 0. -1.
          2   -1    0    0  501    0 -0.00000000000E+00 -0.00000000000E+00 -0.11441852402E+01  0.11441852402E+01  0.00000000000E+00 0.  1.
          2    1    1    2  501    0 -0.19476095000E+02 -0.59786640394E+01  0.90403225057E+03  0.90426178332E+03  0.00000000000E+00 0. -1.
          2    1    1    2  502    0  0.19476095000E+02  0.59786640394E+01  0.99770827249E+02  0.10182966498E+03  0.00000000000E+00 0.  1.
</event>
<event>
 4    1  0.1595748E+004  0.2082030E+02  0.7546771E-02  0.1521846E+00
          2   -1    0    0  501    0  0.00000000000E+00  0.00000000000E+00  0.76928747961E+03  0.76928747961E+03  0.00000000000E+00 0. -1.
          2   -1    0    0  502    0 -0.00000000000E+00 -0.00000000000E+00 -0.11302231923E+04  0.11302231923E+04  0.00000000000E+00 0.  1.
          2    1    1    2  501    0  0.19693256144E+02  0.67572674341E+01 -0.11299864057E+04  0.11301781992E+04  0.00000000000E+00 0.  1.
          2    1    1    2  502    0 -0.19693256144E+02 -0.67572674341E+01  0.76905069304E+03  0.76933247264E+03  0.00000000000E+00 0. -1.
</event>
<event>
 4    1  0.9360795E+003  0.3106461E+02  0.7546771E-02  0.1410565E+00
          2   -1    0    0  502    0  0.00000000000E+00  0.00000000000E+00  0.17091914169E+03  0.17091914169E+03  0.00000000000E+00 0.  1.
          2   -1    0    0  501    0 -0.00000000000E+00 -0.00000000000E+00 -0.38104472828E+02  0.38104472828E+02  0.00000000000E+00 0.  1.
          2    1    1    2  501    0 -0.29165498789E+02 -0.10695019498E+02  0.16286603541E+03  0.16580215696E+03  0.00000000000E+00 0.  1.
          2    1    1    2  502    0  0.29165498789E+02  0.10695019498E+02 -0.30051366552E+02  0.43221457557E+02  0.00000000000E+00 0.  1.
</event>
<event>
 4    1  0.9360795E+003  0.2284151E+02  0.7546771E-02  0.1494498E+00
          2   -1    0    0  502    0  0.00000000000E+00  0.00000000000E+00  0.15577909725E+04  0.15577909725E+04  0.00000000000E+00 0. -1.
          2   -1    0    0  501    0 -0.00000000000E+00 -0.00000000000E+00 -0.36919754296E+00  0.36919754296E+00  0.00000000000E+00 0.  1.
          2    1    1    2  501    0  0.22305316149E+02  0.49200862470E+01  0.10161003899E+04  0.10163570911E+04  0.00000000000E+00 0. -1.
          2    1    1    2  502    0 -0.22305316149E+02 -0.49200862470E+01  0.54132138509E+03  0.54180307893E+03  0.00000000000E+00 0.  1.
</event>
<event>
 4    1  0.9360795E+003  0.2331325E+02  0.7546771E-02  0.1488602E+00
          2   -1    0    0  502    0  0.00000000000E+00  0.00000000000E+00  0.28311521610E+02  0.28311521610E+02  0.00000000000E+00 0. -1.
          2   -1    0    0  501    0 -0.00000000000E+00 -0.00000000000E+00 -0.15144947197E+04  0.15144947197E+04  0.00000000000E+00 0. -1.
          2    1    1    2  501    0 -0.11968075648E+02  0.20006822946E+02  0.23406860043E+02  0.33036175568E+02  0.00000000000E+00 0. -1.
          2    1    1    2  502    0  0.11968075648E+02 -0.20006822946E+02 -0.15095900582E+04  0.15097700658E+04  0.00000000000E+00 0. -1.
</event>
<event>
 4    1  0.9360795E+003  0.2731229E+02  0.7546771E-02  0.1444496E+00
          2   -1    0    0  502    0  0.00000000000E+00  0.00000000000E+00  0.12410538458E+03  0.12410538458E+03  0.00000000000E+00 0.  1.
          2   -1    0    0  501    0 -0.00000000000E+00 -0.00000000000E+00 -0.14613736665E+03  0.14613736665E+03  0.00000000000E+00 0. -1.
          2    1    1    2  501    0 -0.25187580707E+02 -0.10561582027E+02  0.12129740071E+03  0.12433431006E+03  0.00000000000E+00 0.  1.
          2    1    1    2  502    0  0.25187580707E+02  0.10561582027E+02 -0.14332938278E+03  0.14590844117E+03  0.00000000000E+00 0. -1.
</event>
<event>
 4    1  0.9360795E+003  0.4036710E+02  0.7546771E-02  0.1346348E+00
          2   -1    0    0  502    0  0.00000000000E+00  0.00000000000E+00  0.83429303114E+03  0.83429303114E+03  0.00000000000E+00 0.  1.
          2   -1    0    0  501    0 -0.00000000000E+00 -0.00000000000E+00 -0.14973545478E+02  0.14973545478E+02  0.00000000000E+00 0. -1.
          2    1    1    2  501    0  0.33836926875E+02  0.22012846206E+02  0.80563106159E+03  0.80664174850E+03  0.00000000000E+00 0.  1.
          2    1    1    2  502    0 -0.33836926875E+02 -0.22012846206E+02  0.13688424064E+02  0.42624828114E+02  0.00000000000E+00 0. -1.
</event>
<event>
 4    1  0.9360795E+003  0.2430111E+02  0.7546771E-02  0.1476776E+00
          2   -1    0    0  501    0  0.00000000000E+00  0.00000000000E+00  0.81864682735E+03  0.81864682735E+03  0.00000000000E+00 0. -1.
          2   -1    0    0  502    0 -0.00000000000E+00 -0.00000000000E+00 -0.30890875382E+01  0.30890875382E+01  0.00000000000E+00 0. -1.
          2    1    1    2  501    0 -0.13669049508E+02 -0.20092308327E+02  0.48068877540E+02  0.53862424345E+02  0.00000000000E+00 0. -1.
          2    1    1    2  502    0  0.13669049508E+02  0.20092308327E+02  0.76748886227E+03  0.76787349055E+03  0.00000000000E+00 0. -1.
</event>
<event>
 4    1  0.1084034E+004  0.3240502E+02  0.7546771E-02  0.1399786E+00
          2   -1    0    0  502    0  0.00000000000E+00  0.00000000000E+00  0.59755423878E+03  0.59755423878E+03  0.00000000000E+00 0.  1.
          2   -1    0    0  501    0 -0.00000000000E+00 -0.00000000000E+00 -0.17621747143E+04  0.17621747143E+04  0.00000000000E+00 0.  1.
          2    1    1    2  501    0  0.30871691777E+02 -0.98500657172E+01  0.59696579000E+03  0.59784466175E+03  0.00000000000E+00 0.  1.
          2    1    1    2  502    0 -0.30871691777E+02  0.98500657172E+01 -0.17615862655E+04  0.17618842913E+04  0.00000000000E+00 0.  1.
</event>
<event>
 4    1  0.9360795E+003  0.2163951E+02  0.7546771E-02  0.1510327E+00
          2   -1    0    0  502    0  0.00000000000E+00  0.00000000000E+00  0.12651153482E+02  0.12651153482E+02  0.00000000000E+00 0. -1.
          2   -1    0    0  501    0 -0.00000000000E+00 -0.00000000000E+00 -0.14912849131E+03  0.14912849131E+03  0.00000000000E+00 0.  1.
          2    1    1    2  501    0  0.16394282032E+02  0.14124302754E+02  0.18979227014E+01  0.21722580929E+02  0.00000000000E+00 0. -1.
          2    1    1    2  502    0 -0.16394282032E+02 -0.14124302754E+02 -0.13837526053E+03  0.14005706386E+03  0.00000000000E+00 0.  1.
</event>
<event>
 4    1  0.9360795E+003  0.4113574E+02  0.7546771E-02  0.1341956E+00
          2   -1    0    0  501    0  0.00000000000E+00  0.00000000000E+00  0.19027762135E+03  0.19027762135E+03  0.00000000000E+00 0. -1.
          2   -1    0    0  502    0 -0.00000000000E+00 -0.00000000000E+00 -0.93816588543E+01  0.93816588543E+01  0.00000000000E+00 0. -1.
          2    1    1    2  501    0 -0.11964212802E+02 -0.39357425323E+02  0.67665647207E+02  0.79188314340E+02  0.00000000000E+00 0. -1.
          2    1    1    2  502    0  0.11964212802E+02  0.39357425323E+02  0.11323031529E+03  0.12047096587E+03  0.00000000000E+00 0. -1.
</event>
<event>
 4    1  0.9360795E+003  0.3097130E+02  0.7546771E-02  0.1411339E+00
          2   -1    0    0  501    0  0.00000000000E+00  0.00000000000E+00  0.86032722544E+03  0.86032722544E+03  0.00000000000E+00 0.  1.
          2   -1    0    0  502    0 -0.00000000000E+00 -0.00000000000E+00 -0.22147948838E+02  0.22147948838E+02  0.00000000000E+00 0. -1.
          2    1    1    2  501    0  0.44006628486E+00  0.30968177681E+02 -0.10898372005E+02  0.32832852444E+02  0.00000000000E+00 0. -1.
          2    1    1    2  502    0 -0.44006628486E+00 -0.30968177681E+02  0.84907764860E+03  0.84964232183E+03  0.00000000000E+00 0.  1.
</event>
<event>
 4    1  0.9360795E+003  0.2332631E+02  0.7546771E-02  0.1488441E+00
          2   -1    0    0  501    0  0.00000000000E+00  0.00000000000E+00  0.36971884589E+03  0.36971884589E+03  0.00000000000E+00 0. -1.
          2   -1    0    0  502    0 -0.00000000000E+00 -0.00000000000E+00 -0.17341765197E+01  0.17341765197E+01  0.00000000000E+00 0.  1.
          2    1    1    2  501    0 -0.22922025068E+02  0.43240767329E+01  0.11173718696E+03  0.11414602850E+03  0.00000000000E+00 0.  1.
          2    1    1    2  502    0  0.22922025068E+02 -0.43240767329E+01  0.25624748241E+03  0.25730699391E+03  0.00000000000E+00 0. -1.
</event>
<event>
 4    1  0.9360795E+003  0.2368970E+02  0.7546771E-02  0.1484014E+00
          2   -1    0    0  502    0  0.00000000000E+00  0.00000000000E+00  0.85995211788E+01  0.85995211788E+01  0.00000000000E+00 0. -1.
          2   -1    0    0  501    0 -0.00000000000E+00 -0.00000000000E+00 -0.23262985953E+03  0.23262985953E+03  0.00000000000E+00 0. -1.
          2    1    1    2  501    0 -0.99898255761E+01  0.21480349576E+02 -0.97078951453E+01  0.25601665202E+02  0.00000000000E+00 0. -1.
          2    1    1    2  502    0  0.99898255761E+01 -0.21480349576E+02 -0.21432244321E+03  0.21562771551E+03  0.00000000000E+00 0. -1.
</event>
<event>
 4    1  0.9360795E+003  0.3022236E+02  0.7546771E-02  0.1417674E+00
          2   -1    0    0  502    0  0.00000000000E+00  0.00000000000E+00  0.11128994528E+01  0.11128994528E+01  0.00000000000E+00 0. -1.
          2   -1    0    0  501    0 -0.00000000000E+00 -0.00000000000E+00 -0.18286824503E+04  0.18286824503E+04  0.00000000000E+00 0.  1.
          2    1    1    2  501    0  0.13628476658E+01 -0.30191613023E+02 -0.23454481665E+03  0.23648395690E+03  0.00000000000E+00 0. -1.
          2    1    1    2  502    0 -0.13628476658E+01  0.30191613023E+02 -0.15930247342E+04  0.15933113928E+04  0.00000000000E+00 0.  1.
</event>
<event>
 4    1  0.9360795E+003  0.3196478E+02  0.7546771E-02  0.1403257E+00
          2   -1    0    0  501    0  0.00000000000E+00  0.00000000000E+00  0.74010168477E+01  0.74010168477E+01  0.00000000000E+00 0. -1.
          2   -1    0    0  502    0 -0.00000000000E+00 -0.00000000000E+00 -0.10080856327E+04  0.10080856327E+04  0.00000000000E+00 0. -1.
          2    1    1    2  501    0  0.31308617982E+02 -0.64434389647E+01 -0.97203894390E+03  0.97256437109E+03  0.00000000000E+00 0. -1.
          2    1    1    2  502    0 -0.31308617982E+02  0.64434389647E+01 -0.28645671941E+02  0.42922278441E+02  0.00000000000E+00 0. -1.
</event>
<event>
 4    1  0.9360795E+003  0.2425096E+02  0.7546771E-02  0.1477360E+00
          2   -1    0    0  502    0  0.00000000000E+00  0.00000000000E+00  0.38165190299E+01  0.38165190299E+01  0.00000000000E+00 0.  1.
          2   -1    0    0  501    0 -0.00000000000E+00 -0.00000000000E+00 -0.14397020405E+04  0.14397020405E+04  0.00000000000E+00 0. -1.
          2    1    1    2  501    0 -0.10351092239E+02 -0.21930892361E+02 -0.35902408439E+02  0.43325420737E+02  0.00000000000E+00 0.  1.
          2    1    1    2  502    0  0.10351092239E+02  0.21930892361E+02 -0.13999831130E+04  0.14001931387E+04  0.00000000000E+00 0. -1.
</event>
<event>
 4    1  0.9360795E+003  0.2419835E+02  0.7546771E-02  0.1477975E+00
          2   -1    0    0  501    0  0.00000000000E+00  0.00000000000E+00  0.15354204955E+04  0.15354204955E+04  0.00000000000E+00 0. -1.
          2   -1    0    0  502    0 -0.00000000000E+00 -0.00000000000E+00 -0.18894713944E+01  0.18894713944E+01  0.00000000000E+00 0. -1.
          2    1    1    2  501    0 -0.51325505680E+01 -0.23647769674E+02  0.80049996245E+02  0.83627519303E+02  0.00000000000E+00 0. -1.
          2    1    1    2  502    0  0.51325505680E+01  0.23647769674E+02  0.14534810278E+04  0.14536824475E+04  0.00000000000E+00 0. -1.
</event>
<event>
 4    1  0.9360795E+003  0.7937201E+02  0.7546771E-02  0.1205313E+00
          2   -1    0    0  501    0  0.00000000000E+00  0.00000000000E+00  0.23542137344E+03  0.23542137344E+03  0.00000000000E+00 0. -1.
          2   -1    0    0  502    0 -0.00000000000E+00 -0.00000000000E+00 -0.36622385570E+02  0.36622385570E+02  0.00000000000E+00 0. -1.
          2    1    1    2  501    0 -0.56298016504E+01 -0.79172098801E+02  0.28812821479E+02  0.84439887356E+02  0.00000000000E+00 0. -1.
          2    1    1    2  502    0  0.56298016504E+01  0.79172098801E+02  0.16998616639E+03  0.18760387165E+03  0.00000000000E+00 0. -1.
</event>
<event>
 4    1  0.9360795E+003  0.2263424E+02  0.7546771E-02  0.1497143E+00
          2   -1    0    0  501    0  0.00000000000E+00  0.00000000000E+00  0.17999673615E+02  0.17999673615E+02  0.00000000000E+00 0.  1.
          2   -1    0    0  502    0 -0.00000000000E+00 -0.00000000000E+00 -0.13474128229E+03  0.13474128229E+03  0.00000000000E+00 0.  1.
          2    1    1    2  501    0 -0.13790459323E+02  0.17948039329E+02 -0.12619727672E+03  0.12821100396E+03  0.00000000000E+00 0.  1.
          2    1    1    2  502    0  0.13790459323E+02 -0.17948039329E+02  0.94556680490E+01  0.24529951943E+02  0.00000000000E+00 0.  1.
</event>
<event>
 4    1  0.9360795E+003  0.2253150E+02  0.7546771E-02  0.1498466E+00
          2   -1    0    0  501    0  0.00000000000E+00  0.00000000000E+00  0.20771109523E+04  0.20771109523E+04  0.00000000000E+00 0.  1.
          2   -1    0    0  502    0 -0.00000000000E+00 -0.00000000000E+00 -0.27020664962E+00  0.27020664962E+00  0.00000000000E+00 0. -1.
          2    1    1    2  501    0 -0.21211239996E+02  0.75994592478E+01  0.13593520263E+04  0.13595387453E+04  0.00000000000E+00 0.  1.
          2    1    1    2  502    0  0.21211239996E+02 -0.75994592478E+01  0.71748871927E+03  0.71784241360E+03  0.00000000000E+00 0. -1.
</event>
<event>
 4    1  0.9360795E+003  0.2109809E+02  0.7546771E-02  0.1517869E+00
          2   -1    0    0  502    0  0.00000000000E+00  0.00000000000E+00  0.30841804703E+02  0.30841804703E+02  0.00000000000E+00 0.  1.
          2   -1    0    0  501    0 -0.00000000000E+00 -0.00000000000E+00 -0.26798863920E+02  0.26798863920E+02  0.00000000000E+00 0.  1.
          2    1    1    2  501    0 -0.21053967048E+02 -0.13637155075E+01  0.21599052001E+02  0.30193514134E+02  0.00000000000E+00 0.  1.
          2    1    1    2  502    0  0.21053967048E+02  0.13637155075E+01 -0.17556111218E+02  0.27447154489E+02  0.00000000000E+00 0.  1.
</event>
<event>
 4    1  0.9360795E+003  0.2111603E+02  0.7546771E-02  0.1517615E+00
          2   -1    0    0  501    0  0.00000000000E+00  0.00000000000E+00  0.88160760445E+03  0.88160760445E+03  0.00000000000E+00 0.  1.
          2   -1    0    0  502    0 -0.00000000000E+00 -0.00000000000E+00 -0.18373253710E+01  0.18373253710E+01  0.00000000000E+00 0.  1.
          2    1    1    2  501    0  0.20066785620E+02  0.65735017444E+01  0.63842769042E+02  0.67244226289E+02  0.00000000000E+00 0.  1.
          2    1    1    2  502    0 -0.20066785620E+02 -0.65735017444E+01  0.81592751004E+03  0.81620070353E+03  0.00000000000E+00 0.  1.
</event>
<event>
 4    1  0.9360795E+003  0.2208039E+02  0.7546771E-02  0.1504380E+00
          2   -1    0    0  502    0  0.00000000000E+00  0.00000000000E+00  0.17574976015E+01  0.17574976015E+01  0.00000000000E+00 0.  1.
          2   -1    0    0  501    0 -0.00000000000E+00 -0.00000000000E+00 -0.38305869392E+03  0.38305869392E+03  0.00000000000E+00 0.  1.
          2    1    1    2  501    0  0.19226938710E+02  0.10856726768E+02 -0.89602743385E+02  0.92283234178E+02  0.00000000000E+00 0.  1.
          2    1    1    2  502    0 -0.19226938710E+02 -0.10856726768E+02 -0.29169845294E+03  0.29253295735E+03  0.00000000000E+00 0.  1.
</event>
<event>
 4    1  0.9360795E+003  0.2015596E+02  0.7546771E-02  0.1531665E+00
          2   -1    0    0  501    0  0.00000000000E+00  0.00000000000E+00  0.21085038540E+02  0.21085038540E+02  0.00000000000E+00 0.  1.
          2   -1    0    0  502    0 -0.00000000000E+00 -0.00000000000E+00 -0.11339914328E+03  0.11339914328E+03  0.00000000000E+00 0. -1.
          2    1    1    2  501    0 -0.93600411561E+01 -0.17850839920E+02 -0.10742077611E+03  0.10929540702E+03  0.00000000000E+00 0. -1.
          2    1    1    2  502    0  0.93600411561E+01  0.17850839920E+02  0.15106671365E+02  0.25188774802E+02  0.00000000000E+00 0.  1.
</event>
<event>
 4    1  0.9360795E+003  0.3532289E+02  0.7546771E-02  0.1378307E+00
          2   -1    0    0  502    0  0.00000000000E+00  0.00000000000E+00  0.29630022599E+02  0.29630022599E+02  0.00000000000E+00 0.  1.
          2   -1    0    0  501    0 -0.00000000000E+00 -0.00000000000E+00 -0.67401627402E+02  0.67401627402E+02  0.00000000000E+00 0. -1.
          2    1    1    2  501    0  0.26240771167E+02  0.23645893958E+02  0.10833638759E+02  0.36946909225E+02  0.00000000000E+00 0.  1.
          2    1    1    2  502    0 -0.26240771167E+02 -0.23645893958E+02 -0.48605243561E+02  0.60084740777E+02  0.00000000000E+00 0. -1.
</event>
<event>
 4    1  0.9360795E+003  0.2305286E+02  0.7546771E-02  0.1491835E+00
          2   -1    0    0  501    0  0.00000000000E+00  0.00000000000E+00  0.13808055063E+04  0.13808055063E+04  0.00000000000E+00 0. -1.
          2   -1    0    0  502    0 -0.00000000000E+00 -0.00000000000E+00 -0.10949594640E+01  0.10949594640E+01  0.00000000000E+00 0. -1.
          2    1    1    2  501    0  0.21717626052E+02  0.77316848278E+01  0.13343431469E+03  0.13541104301E+03  0.00000000000E+00 0. -1.
          2    1    1    2  502    0 -0.21717626052E+02 -0.77316848278E+01  0.12462762322E+04  0.12464894228E+04  0.00000000000E+00 0. -1.
</event>
<event>
 4    1  0.9360795E+003  0.2023122E+02  0.7546771E-02  0.1530530E+00
          2   -1    0    0  501    0  0.00000000000E+00  0.00000000000E+00  0.23818548157E+00  0.23818548157E+00  0.00000000000E+00 0. -1.
          2   -1    0    0  502    0 -0.00000000000E+00 -0.00000000000E+00 -0.19740329948E+04  0.19740329948E+04  0.00000000000E+00 0. -1.
          2    1    1    2  501    0 -0.90923569981E+01  0.18072944280E+02 -0.63168135112E+03  0.63200524652E+03  0.00000000000E+00 0. -1.
          2    1    1    2  502    0  0.90923569981E+01 -0.18072944280E+02 -0.13421134582E+04  0.13422659338E+04  0.00000000000E+00 0. -1.
</event>
<event>
 4    1  0.9360795E+003  0.2899929E+02  0.7546771E-02  0.1428496E+00
          2   -1    0    0  502    0  0.00000000000E+00  0.00000000000E+00  0.14477977108E+01  0.14477977108E+01  0.00000000000E+00 0.  1.
          2   -1    0    0  501    0 -0.00000000000E+00 -0.00000000000E+00 -0.10866250406E+04  0.10866250406E+04  0.00000000000E+00 0. -1.
          2    1    1    2  501    0  0.16161161902E+02  0.24078536706E+02 -0.17142525878E+03  0.17386080188E+03  0.00000000000E+00 0.  1.
          2    1    1    2  502    0 -0.16161161902E+02 -0.24078536706E+02 -0.91375198409E+03  0.91421203641E+03  0.00000000000E+00 0. -1.
</event>
<event>
 4    1  0.9360795E+003  0.2383739E+02  0.7546771E-02  0.1482242E+00
          2   -1    0    0  501    0  0.00000000000E+00  0.00000000000E+00  0.15285478490E+03  0.15285478490E+03  0.00000000000E+00 0. -1.
          2   -1    0    0  502    0 -0.00000000000E+00 -0.00000000000E+00 -0.11018297885E+03  0.11018297885E+03  0.00000000000E+00 0. -1.
          2    1    1    2  501    0  0.22882960433E+02 -0.66776701097E+01 -0.10794532815E+03  0.11054598602E+03  0.00000000000E+00 0. -1.
          2    1    1    2  502    0 -0.22882960433E+02  0.66776701097E+01  0.15061713421E+03  0.15249177772E+03  0.00000000000E+00 0. -1.
</event>
<event>
 4    1  0.9360795E+003  0.6986124E+02  0.7546771E-02  0.1229569E+00
          2   -1    0    0  502    0  0.00000000000E+00  0.00000000000E+00  0.94379756097E+03  0.94379756097E+03  0.00000000000E+00 0.  1.
          2   -1    0    0  501    0 -0.00000000000E+00 -0.00000000000E+00 -0.72470926708E+02  0.72470926708E+02  0.00000000000E+00 0. -1.
          2    1    1    2  501    0 -0.67206684095E+02  0.19074961727E+02  0.92533288652E+03  0.92796634822E+03  0.00000000000E+00 0.  1.
          2    1    1    2  502    0  0.67206684095E+02 -0.19074961727E+02 -0.54006252252E+02  0.88302139466E+02  0.00000000000E+00 0. -1.
</event>
<event>
 4    1  0.9360795E+003  0.2091648E+02  0.7546771E-02  0.1520461E+00
          2   -1    0    0  501    0  0.00000000000E+00  0.00000000000E+00  0.64114058597E+00  0.64114058597E+00  0.00000000000E+00 0. -1.
          2   -1    0    0  502    0 -0.00000000000E+00 -0.00000000000E+00 -0.86135594150E+03  0.86135594150E+03  0.00000000000E+00 0. -1.
          2    1    1    2  501    0  0.13649219894E+01 -0.20871893481E+02 -0.62682306071E+03  0.62717194484E+03  0.00000000000E+00 0. -1.
          2    1    1    2  502    0 -0.13649219894E+01  0.20871893481E+02 -0.23389174020E+03  0.23482513725E+03  0.00000000000E+00 0. -1.
</event>
<event>
 4    1  0.9360795E+003  0.2437067E+02  0.7546771E-02  0.1475968E+00
          2   -1    0    0  502    0  0.00000000000E+00  0.00000000000E+00  0.21001805204E+04  0.21001805204E+04  0.00000000000E+00 0.  1.
          2   -1    0    0  501    0 -0.00000000000E+00 -0.00000000000E+00 -0.29440060140E+00  0.29440060140E+00  0.00000000000E+00 0. -1.
          2    1    1    2  501    0 -0.18539429434E+00 -0.24369964293E+02  0.12584266908E+04  0.12586626496E+04  0.00000000000E+00 0.  1.
          2    1    1    2  502    0  0.18539429434E+00  0.24369964293E+02  0.84145942899E+03  0.84181227133E+03  0.00000000000E+00 0. -1.
</event>
<event>
 4    1  0.9360795E+003  0.2216531E+02  0.7546771E-02  0.1503254E+00
          2   -1    0    0  501    0  0.00000000000E+00  0.00000000000E+00  0.11129023637E+03  0.11129023637E+03  0.00000000000E+00 0. -1.
          2   -1    0    0  502    0 -0.00000000000E+00 -0.00000000000E+00 -0.44369619979E+01  0.44369619979E+01  0.00000000000E+00 0.  1.
          2    1    1    2  501    0 -0.11179742336E+02 -0.19139338975E+02  0.49317978160E+02  0.54069990798E+02  0.00000000000E+00 0.  1.
          2    1    1    2  502    0  0.11179742336E+02  0.19139338975E+02  0.57535296209E+02  0.61657207567E+02  0.00000000000E+00 0. -1.
</event>
<event>
 4    1  0.9360795E+003  0.2755631E+02  0.7546771E-02  0.1442099E+00
          2   -1    0    0  501    0  0.00000000000E+00  0.00000000000E+00  0.16504577896E+03  0.16504577896E+03  0.00000000000E+00 0.  1.
          2   -1    0    0  502    0 -0.00000000000E+00 -0.00000000000E+00 -0.76679243713E+02  0.76679243713E+02  0.00000000000E+00 0. -1.
          2    1    1    2  501    0 -0.11415297874E+02 -0.25080691529E+02 -0.72997210931E+02  0.78025271014E+02  0.00000000000E+00 0. -1.
          2    1    1    2  502    0  0.11415297874E+02  0.25080691529E+02  0.16136374618E+03  0.16369975166E+03  0.00000000000E+00 0.  1.
</event>
<event>
 4    1  0.9360795E+003  0.2041805E+02  0.7546771E-02  0.1527738E+00
          2   -1    0    0  502    0  0.00000000000E+00  0.00000000000E+00  0.41520549636E+02  0.41520549636E+02  0.00000000000E+00 0. -1.
          2   -1    0    0  501    0 -0.00000000000E+00 -0.00000000000E+00 -0.29607346076E+02  0.29607346076E+02  0.00000000000E+00 0. -1.
          2    1    1    2  501    0 -0.20116978506E+02  0.34934149032E+01  0.34867930271E+02  0.40406303138E+02  0.00000000000E+00 0. -1.
          2    1    1    2  502    0  0.20116978506E+02 -0.34934149032E+01 -0.22954726712E+02  0.30721592574E+02  0.00000000000E+00 0. -1.
</event>
<event>
 4    1  0.9360795E+003  0.2048624E+02  0.7546771E-02  0.1526728E+00
          2   -1    0    0  501    0  0.00000000000E+00  0.00000000000E+00  0.52881624190E+03  0.52881624190E+03  0.00000000000E+00 0. -1.
          2   -1    0    0  502    0 -0.00000000000E+00 -0.00000000000E+00 -0.33311192167E+01  0.33311192167E+01  0.00000000000E+00 0. -1.
          2    1    1    2  501    0 -0.98699880627E+01  0.17951858986E+02  0.30517709835E+02  0.36756176610E+02  0.00000000000E+00 0. -1.
          2    1    1    2  502    0  0.98699880627E+01 -0.17951858986E+02  0.49496741285E+03  0.49539118450E+03  0.00000000000E+00 0. -1.
</event>
<event>
 4    1  0.9360795E+003  0.2969348E+02  0.7546771E-02  0.1422279E+00
          2   -1    0    0  501    0  0.00000000000E+00  0.00000000000E+00  0.11300048592E+04  0.11300048592E+04  0.00000000000E+00 0. -1.
          2   -1    0    0  502    0 -0.00000000000E+00 -0.00000000000E+00 -0.96220513360E+01  0.96220513360E+01  0.00000000000E+00 0. -1.
          2    1    1    2  501    0  0.37030656129E+01  0.29461668822E+02  0.13969782952E+02  0.32815506403E+02  0.00000000000E+00 0. -1.
          2    1    1    2  502    0 -0.37030656129E+01 -0.29461668822E+02  0.11064130249E+04  0.11068114041E+04  0.00000000000E+00 0. -1.
</event>
<event>
 4    1  0.9360795E+003  0.5684930E+02  0.7546771E-02  0.1270930E+00
          2   -1    0    0  501    0  0.00000000000E+00  0.00000000000E+00  0.89425655629E+03  0.89425655629E+03  0.00000000000E+00 0.  1.
          2   -1    0    0  502    0 -0.00000000000E+00 -0.00000000000E+00 -0.36141179493E+01  0.36141179493E+01  0.00000000000E+00 0. -1.
          2    1    1    2  501    0  0.56747788502E+02 -0.33958065117E+01  0.44275421536E+03  0.44638899877E+03  0.00000000000E+00 0. -1.
          2    1    1    2  502    0 -0.56747788502E+02  0.33958065117E+01  0.44788822298E+03  0.45148167547E+03  0.00000000000E+00 0.  1.
</event>
<event>
 4    1  0.9360795E+003  0.2712078E+02  0.7546771E-02  0.1446399E+00
          2   -1    0    0  502    0  0.00000000000E+00  0.00000000000E+00  0.79862938561E+03  0.79862938561E+03  0.00000000000E+00 0.  1.
          2   -1    0    0  501    0 -0.00000000000E+00 -0.00000000000E+00 -0.19160269170E+01  0.19160269170E+01  0.00000000000E+00 0.  1.
          2    1    1    2  501    0  0.23243673635E+02 -0.13973835935E+02  0.68680825767E+03  0.68734352347E+03  0.00000000000E+00 0.  1.
          2    1    1    2  502    0 -0.23243673635E+02  0.13973835935E+02  0.10990510102E+03  0.11320188905E+03  0.00000000000E+00 0.  1.
</event>
<event>
 4    1  0.9360795E+003  0.4169053E+02  0.7546771E-02  0.1338854E+00
          2   -1    0    0  501    0  0.00000000000E+00  0.00000000000E+00  0.68914881748E+03  0.68914881748E+03  0.00000000000E+00 0. -1.
          2   -1    0    0  502    0 -0.00000000000E+00 -0.00000000000E+00 -0.52054183408E+01  0.52054183408E+01  0.00000000000E+00 0. -1.
          2    1    1    2  501    0  0.10624970281E+02  0.40313892886E+02  0.92707652604E+02  0.10165042452E+03  0.00000000000E+00 0. -1.
          2    1    1    2  502    0 -0.10624970281E+02 -0.40313892886E+02  0.59123574653E+03  0.59270381130E+03  0.00000000000E+00 0. -1.
</event>
<event>
 4    1  0.9360795E+003  0.2112177E+02  0.7546771E-02  0.1517533E+00
          2   -1    0    0  501    0  0.00000000000E+00  0.00000000000E+00  0.71105286628E+02  0.71105286628E+02  0.00000000000E+00 0.  1.
          2   -1    0    0  502    0 -0.00000000000E+00 -0.00000000000E+00 -0.64046684967E+02  0.64046684967E+02  0.00000000000E+00 0.  1.
          2    1    1    2  501    0 -0.12397378297E+02 -0.17100708823E+02 -0.60651415914E+02  0.64224010177E+02  0.00000000000E+00 0.  1.
          2    1    1    2  502    0  0.12397378297E+02  0.17100708823E+02  0.67710017575E+02  0.70927961418E+02  0.00000000000E+00 0.  1.
</event>
<event>
 4    1  0.9360795E+003  0.1708412E+03  0.7546771E-02  0.1077984E+00
          2   -1    0    0  501    0  0.00000000000E+00  0.00000000000E+00  0.34206969027E+03  0.34206969027E+03  0.00000000000E+00 0. -1.
          2   -1    0    0  502    0 -0.00000000000E+00 -0.00000000000E+00 -0.18587320140E+04  0.18587320140E+04  0.00000000000E+00 0. -1.
          2    1    1    2  501    0  0.16831995621E+03  0.29242521040E+02 -0.18331787086E+04  0.18411221878E+04  0.00000000000E+00 0. -1.
          2    1    1    2  502    0 -0.16831995621E+03 -0.29242521040E+02  0.31651638486E+03  0.35967951649E+03  0.00000000000E+00 0. -1.
</event>
<event>
 4    1  0.9360795E+003  0.2472043E+02  0.7546771E-02  0.1471955E+00
          2   -1    0    0  502    0  0.00000000000E+00  0.00000000000E+00  0.10271772105E+04  0.10271772105E+04  0.00000000000E+00 0.  1.
          2   -1    0    0  501    0 -0.00000000000E+00 -0.00000000000E+00 -0.10203328168E+03  0.10203328168E+03  0.00000000000E+00 0.  1.
          2    1    1    2  501    0  0.28786534045E+01  0.24552248063E+02  0.10255287669E+04  0.10258266672E+04  0.00000000000E+00 0.  1.
          2    1    1    2  502    0 -0.28786534045E+01 -0.24552248063E+02 -0.10038483810E+03  0.10338382490E+03  0.00000000000E+00 0.  1.
</event>
<event>
 4    1  0.9360795E+003  0.2421795E+02  0.7546771E-02  0.1477746E+00
          2   -1    0    0  502    0  0.00000000000E+00  0.00000000000E+00  0.44356305380E+02  0.44356305380E+02  0.00000000000E+00 0.  1.
          2   -1    0    0  501    0 -0.00000000000E+00 -0.00000000000E+00 -0.16541323802E+04  0.16541323802E+04  0.00000000000E+00 0.  1.
          2    1    1    2  501    0 -0.17677743088E+02 -0.16553134496E+02  0.40955183947E+02  0.47579785145E+02  0.00000000000E+00 0.  1.
          2    1    1    2  502    0  0.17677743088E+02  0.16553134496E+02 -0.16507312588E+04  0.16509089005E+04  0.00000000000E+00 0.  1.
</event>
<event>
 4    1  0.9360795E+003  0.2746570E+02  0.7546771E-02  0.1442985E+00
          2   -1    0    0  502    0  0.00000000000E+00  0.00000000000E+00  0.46100206727E+03  0.46100206727E+03  0.00000000000E+00 0. -1.
          2   -1    0    0  501    0 -0.00000000000E+00 -0.00000000000E+00 -0.18502204690E+01  0.18502204690E+01  0.00000000000E+00 0. -1.
          2    1    1    2  501    0  0.16543052088E+02  0.21924686264E+02  0.30825657064E+03  0.30947775006E+03  0.00000000000E+00 0. -1.
          2    1    1    2  502    0 -0.16543052088E+02 -0.21924686264E+02  0.15089527616E+03  0.15337453768E+03  0.00000000000E+00 0. -1.
</event>
<event>
 4    1  0.9360795E+003  0.3281552E+02  0.7546771E-02  0.1396607E+00
          2   -1    0    0  502    0  0.00000000000E+00  0.00000000000E+00  0.21006846104E+03  0.21006846104E+03  0.00000000000E+00 0. -1.
          2   -1    0    0  501    0 -0.00000000000E+00 -0.00000000000E+00 -0.20188167354E+04  0.20188167354E+04  0.00000000000E+00 0. -1.
          2    1    1    2  501    0 -0.18688555267E+01  0.32762257441E+02  0.20865265290E+03  0.21121739439E+03  0.00000000000E+00 0. -1.
          2    1    1    2  502    0  0.18688555267E+01 -0.32762257441E+02 -0.20174009273E+04  0.20176678020E+04  0.00000000000E+00 0. -1.
</event>
<event>
 4    1  0.9360795E+003  0.2147296E+02  0.7546771E-02  0.1512618E+00
          2   -1    0    0  501    0  0.00000000000E+00  0.00000000000E+00  0.50205730715E+00  0.50205730715E+00  0.00000000000E+00 0. -1.
          2   -1    0    0  502    0 -0.00000000000E+00 -0.00000000000E+00 -0.99632619275E+03  0.99632619275E+03  0.00000000000E+00 0. -1.
          2    1    1    2  501    0 -0.11316736895E+02 -0.18248815839E+02 -0.63730484589E+03  0.63766649152E+03  0.00000000000E+00 0. -1.
          2    1    1    2  502    0  0.11316736895E+02  0.18248815839E+02 -0.35851928955E+03  0.35916175854E+03  0.00000000000E+00 0. -1.
</event>
<event>
 4    1  0.9360795E+003  0.2279049E+02  0.7546771E-02  0.1495146E+00
          2   -1    0    0  502    0  0.00000000000E+00  0.00000000000E+00  0.20020571496E+04  0.20020571496E+04  0.00000000000E+00 0. -1.
          2   -1    0    0  501    0 -0.00000000000E+00 -0.00000000000E+00 -0.46825978042E+00  0.46825978042E+00  0.00000000000E+00 0.  1.
          2    1    1    2  501    0  0.22474586341E+02  0.37814843415E+01  0.16694371200E+04  0.16695926761E+04  0.00000000000E+00 0. -1.
          2    1    1    2  502    0 -0.22474586341E+02 -0.37814843415E+01  0.33215176986E+03  0.33293273326E+03  0.00000000000E+00 0.  1.
</event>
<event>
 4    1  0.9360795E+003  0.2520225E+02  0.7546771E-02  0.1466553E+00
          2   -1    0    0  502    0  0.00000000000E+00  0.00000000000E+00  0.11241469890E+04  0.11241469890E+04  0.00000000000E+00 0.  1.
          2   -1    0    0  501    0 -0.00000000000E+00 -0.00000000000E+00 -0.82807215574E+00  0.82807215574E+00  0.00000000000E+00 0. -1.
          2    1    1    2  501    0  0.25200836033E+02 -0.26651594458E+00  0.24462328294E+03  0.24591808336E+03  0.00000000000E+00 0. -1.
          2    1    1    2  502    0 -0.25200836033E+02  0.26651594458E+00  0.87869563391E+03  0.87905697780E+03  0.00000000000E+00 0.  1.
</event>
<event>
 4    1  0.9360795E+003  0.3148282E+02  0.7546771E-02  0.1407134E+00
          2   -1    0    0  502    0  0.00000000000E+00  0.00000000000E+00  0.87750833881E+03  0.87750833881E+03  0.00000000000E+00 0. -1.
          2   -1    0    0  501    0 -0.00000000000E+00 -0.00000000000E+00 -0.12803688009E+02  0.12803688009E+02  0.00000000000E+00 0.  1.
          2    1    1    2  501    0  0.29515765227E+02  0.10953879816E+02  0.85741950531E+03  0.85799730534E+03  0.00000000000E+00 0. -1.
          2    1    1    2  502    0 -0.29515765227E+02 -0.10953879816E+02  0.72851454968E+01  0.32314721488E+02  0.00000000000E+00 0.  1.
</event>
<event>
 4    1  0.9360795E+003  0.2304421E+02  0.7546771E-02  0.1491944E+00
          2   -1    0    0  502    0  0.00000000000E+00  0.00000000000E+00  0.22434480072E+03  0.22434480072E+03  0.00000000000E+00 0.  1.
          2   -1    0    0  501    0 -0.00000000000E+00 -0.00000000000E+00 -0.14753868417E+03  0.14753868417E+03  0.00000000000E+00 0. -1.
          2    1    1    2  501    0 -0.21703711742E+02  0.77449640773E+01  0.22284718260E+03  0.22403549354E+03  0.00000000000E+00 0.  1.
          2    1    1    2  502    0  0.21703711742E+02 -0.77449640773E+01 -0.14604106606E+03  0.14784799135E+03  0.00000000000E+00 0. -1.
</event>
<event>
 4    1  0.9360795E+003  0.2233276E+02  0.7546771E-02  0.1501051E+00
          2   -1    0    0  501    0  0.00000000000E+00  0.00000000000E+00  0.86162404471E+01  0.86162404471E+01  0.00000000000E+00 0. -1.
          2   -1    0    0  502    0 -0.00000000000E+00 -0.00000000000E+00 -0.46462685098E+03  0.46462685098E+03  0.00000000000E+00 0.  1.
          2    1    1    2  501    0 -0.34197460956E+01 -0.22069374942E+02 -0.44939709430E+03  0.44995166445E+03  0.00000000000E+00 0.  1.
          2    1    1    2  502    0  0.34197460956E+01  0.22069374942E+02 -0.66135162303E+01  0.23291426977E+02  0.00000000000E+00 0. -1.
</event>
<event>
 4    1  0.9360795E+003  0.2435659E+02  0.7546771E-02  0.1476132E+00
          2   -1    0    0  502    0  0.00000000000E+00  0.00000000000E+00  0.17689643004E+04  0.17689643004E+04  0.00000000000E+00 0.  1.
          2   -1    0    0  501    0 -0.00000000000E+00 -0.00000000000E+00 -0.34463511367E+02  0.34463511367E+02  0.00000000000E+00 0. -1.
          2    1    1    2  501    0  0.23854433983E+02  0.49202866526E+01  0.17645663191E+04  0.17647344100E+04  0.00000000000E+00 0.  1.
          2    1    1    2  502    0 -0.23854433983E+02 -0.49202866526E+01 -0.30065530087E+02  0.38693401773E+02  0.00000000000E+00 0. -1.
</event>
<event>
 4    1  0.9360795E+003  0.3545153E+02  0.7546771E-02  0.1377416E+00
          2   -1    0    0  502    0  0.00000000000E+00  0.00000000000E+00  0.11610349026E+01  0.11610349026E+01  0.00000000000E+00 0.  1.
          2   -1    0    0  501    0 -0.00000000000E+00 -0.00000000000E+00 -0.21636080849E+04  0.21636080849E+04  0.00000000000E+00 0.  1.
          2    1    1    2  501    0  0.31213693963E+02 -0.16808223294E+02 -0.31610548232E+03  0.31808723177E+03  0.00000000000E+00 0.  1.
          2    1    1    2  502    0 -0.31213693963E+02  0.16808223294E+02 -0.18463415677E+04  0.18466818880E+04  0.00000000000E+00 0.  1.
</event>
<event>
 4    1  0.9360795E+003  0.4403246E+02  0.7546771E-02  0.1326349E+00
          2   -1    0    0  502    0  0.00000000000E+00  0.00000000000E+00  0.66742155829E+01  0.66742155829E+01  0.00000000000E+00 0.  1.
          2   -1    0    0  501    0 -0.00000000000E+00 -0.00000000000E+00 -0.18117478287E+04  0.18117478287E+04  0.00000000000E+00 0.  1.
          2    1    1    2  501    0 -0.12641126223E+02  0.42178903174E+02 -0.69400925529E+02  0.82190914397E+02  0.00000000000E+00 0.  1.
          2    1    1    2  502    0  0.12641126223E+02 -0.42178903174E+02 -0.17356726876E+04  0.17362311299E+04  0.00000000000E+00 0.  1.
</event>
<event>
 4    1  0.9360795E+003  0.3521720E+02  0.7546771E-02  0.1379043E+00
          2   -1    0    0  501    0  0.00000000000E+00  0.00000000000E+00  0.72193864705E+03  0.72193864705E+03  0.00000000000E+00 0. -1.
          2   -1    0    0  502    0 -0.00000000000E+00 -0.00000000000E+00 -0.64675014056E+02  0.64675014056E+02  0.00000000000E+00 0.  1.
          2    1    1    2  501    0 -0.95047680002E+01 -0.33910328408E+02 -0.59416204748E+02  0.69069069591E+02  0.00000000000E+00 0.  1.
          2    1    1    2  502    0  0.95047680002E+01  0.33910328408E+02  0.71667983775E+03  0.71754459152E+03  0.00000000000E+00 0. -1.
</event>
<event>
 4    1  0.9360795E+003  0.2072143E+02  0.7546771E-02  0.1523280E+00
          2   -1    0    0  502    0  0.00000000000E+00  0.00000000000E+00  0.28668587273E+03  0.28668587273E+03  0.00000000000E+00 0. -1.
          2   -1    0    0  501    0 -0.00000000000E+00 -0.00000000000E+00 -0.59436277336E+03  0.59436277336E+03  0.00000000000E+00 0.  1.
          2    1    1    2  501    0  0.20568949946E+02 -0.25091862744E+01  0.28613048618E+03  0.28687982299E+03  0.00000000000E+00 0. -1.
          2    1    1    2  502    0 -0.20568949946E+02  0.25091862744E+01 -0.59380738681E+03  0.59416882310E+03  0.00000000000E+00 0.  1.
</event>
<event>
 4    1  0.9360795E+003  0.2238142E+02  0.7546771E-02  0.1500415E+00
          2   -1    0    0  502    0  0.00000000000E+00  0.00000000000E+00  0.38188142714E+03  0.38188142714E+03  0.00000000000E+00 0. -1.
          2   -1    0    0  501    0 -0.00000000000E+00 -0.00000000000E+00 -0.82103744791E+02  0.82103744791E+02  0.00000000000E+00 0.  1.
          2    1    1    2  501    0 -0.21518742012E+02 -0.61540076819E+01  0.38002074111E+03  0.38067925048E+03  0.00000000000E+00 0. -1.
          2    1    1    2  502    0  0.21518742012E+02  0.61540076819E+01 -0.80243058767E+02  0.83305921450E+02  0.00000000000E+00 0.  1.
</event>
<event>
 4    1  0.9360795E+003  0.2868235E+02  0.7546771E-02  0.1431403E+00
          2   -1    0    0  501    0  0.00000000000E+00  0.00000000000E+00  0.28506704846E+01  0.28506704846E+01  0.00000000000E+00 0.  1.
          2   -1    0    0  502    0 -0.00000000000E+00 -0.00000000000E+00 -0.37065531959E+03  0.37065531959E+03  0.00000000000E+00 0.  1.
          2    1    1    2  501    0 -0.19851617617E+02  0.20702428125E+02 -0.27177628377E+03  0.27328561190E+03  0.00000000000E+00 0.  1.
          2    1    1    2  502    0  0.19851617617E+02 -0.20702428125E+02 -0.96028365336E+02  0.10022037817E+03  0.00000000000E+00 0.  1.
</event>
<event>
 4    1  0.9360795E+003  0.4887960E+02  0.7546771E-02  0.1303105E+00
          2   -1    0    0  501    0  0.00000000000E+00  0.00000000000E+00  0.20019195789E+02  0.20019195789E+02  0.00000000000E+00 0.  1.
          2   -1    0    0  502    0 -0.00000000000E+00 -0.00000000000E+00 -0.43455313982E+03  0.43455313982E+03  0.00000000000E+00 0.  1.
          2    1    1    2  501    0 -0.30998130629E+02  0.37793270254E+02 -0.40084204446E+03  0.40381129255E+03  0.00000000000E+00 0.  1.
          2    1    1    2  502    0  0.30998130629E+02 -0.37793270254E+02 -0.13691899567E+02  0.50761043062E+02  0.00000000000E+00 0.  1.
</event>
<event>
 4    1  0.9360795E+003  0.2190328E+02  0.7546771E-02  0.1506749E+00
          2   -1    0    0  502    0  0.00000000000E+00  0.00000000000E+00  0.65334071995E+01  0.65334071995E+01  0.00000000000E+00 0. -1.
          2   -1    0    0  501    0 -0.00000000000E+00 -0.00000000000E+00 -0.13036833609E+04  0.13036833609E+04  0.00000000000E+00 0. -1.
          2    1    1    2  501    0 -0.76779203244E+01 -0.20513488784E+02 -0.12183689445E+02  0.25063837916E+02  0.00000000000E+00 0. -1.
          2    1    1    2  502    0  0.76779203244E+01  0.20513488784E+02 -0.12849662642E+04  0.12851529302E+04  0.00000000000E+00 0. -1.
</event>
<event>
 4    1  0.9360795E+003  0.3829390E+02  0.7546771E-02  0.1358784E+00
          2   -1    0    0  501    0  0.00000000000E+00  0.00000000000E+00  0.20944617323E+04  0.20944617323E+04  0.00000000000E+00 0.  1.
          2   -1    0    0  502    0 -0.00000000000E+00 -0.00000000000E+00 -0.53294995389E+01  0.53294995389E+01  0.00000000000E+00 0. -1.
          2    1    1    2  501    0 -0.51143527020E+01 -0.37950834126E+02  0.66060709744E+02  0.76357316521E+02  0.00000000000E+00 0. -1.
          2    1    1    2  502    0  0.51143527020E+01  0.37950834126E+02  0.20230715230E+04  0.20234339153E+04  0.00000000000E+00 0.  1.
</event>
<event>
 4    1  0.9360795E+003  0.2976566E+02  0.7546771E-02  0.1421644E+00
          2   -1    0    0  502    0  0.00000000000E+00  0.00000000000E+00  0.10862968744E+03  0.10862968744E+03  0.00000000000E+00 0.  1.
          2   -1    0    0  501    0 -0.00000000000E+00 -0.00000000000E+00 -0.25861453514E+02  0.25861453514E+02  0.00000000000E+00 0.  1.
          2    1    1    2  501    0  0.27050765602E+02  0.12419758456E+02  0.97024428032E+02  0.10148760493E+03  0.00000000000E+00 0.  1.
          2    1    1    2  502    0 -0.27050765602E+02 -0.12419758456E+02 -0.14256194104E+02  0.33003536024E+02  0.00000000000E+00 0.  1.
</event>
<event>
 4    1  0.9360795E+003  0.2315917E+02  0.7546771E-02  0.1490509E+00
          2   -1    0    0  501    0  0.00000000000E+00  0.00000000000E+00  0.93349929453E+01  0.93349929453E+01  0.00000000000E+00 0. -1.
          2   -1    0    0  502    0 -0.00000000000E+00 -0.00000000000E+00 -0.73298761980E+03  0.73298761980E+03  0.00000000000E+00 0.  1.
          2    1    1    2  501    0  0.22946312060E+02 -0.31326928785E+01 -0.71814398834E+03  0.71851731712E+03  0.00000000000E+00 0.  1.
          2    1    1    2  502    0 -0.22946312060E+02  0.31326928785E+01 -0.55086385138E+01  0.23805295632E+02  0.00000000000E+00 0. -1.
</event>
<event>
 4    1  0.9360795E+003  0.2238177E+02  0.7546771E-02  0.1500411E+00
          2   -1    0    0  501    0  0.00000000000E+00  0.00000000000E+00  0.22100015931E+03  0.22100015931E+03  0.00000000000E+00 0.  1.
          2   -1    0    0  502    0 -0.00000000000E+00 -0.00000000000E+00 -0.74972818672E+01  0.74972818672E+01  0.00000000000E+00 0. -1.
          2    1    1    2  501    0  0.18458443828E+02  0.12658178589E+02  0.11323851222E+02  0.25083325941E+02  0.00000000000E+00 0. -1.
          2    1    1    2  502    0 -0.18458443828E+02 -0.12658178589E+02  0.20217902622E+03  0.20341411524E+03  0.00000000000E+00 0.  1.
</event>
<event>
 4    1  0.9360795E+003  0.2144104E+02  0.7546771E-02  0.1513060E+00
          2   -1    0    0  502    0  0.00000000000E+00  0.00000000000E+00  0.18205935782E+02  0.18205935782E+02  0.00000000000E+00 0. -1.
          2   -1    0    0  501    0 -0.00000000000E+00 -0.00000000000E+00 -0.44314482996E+03  0.44314482996E+03  0.00000000000E+00 0. -1.
          2    1    1    2  501    0  0.18058228492E+02 -0.11559351570E+02  0.11537445801E+02  0.24348118626E+02  0.00000000000E+00 0. -1.
          2    1    1    2  502    0 -0.18058228492E+02  0.11559351570E+02 -0.43647633998E+03  0.43700264711E+03  0.00000000000E+00 0. -1.
</event>
<event>
 4    1  0.9360795E+003  0.2221513E+02  0.7546771E-02  0.1502596E+00
          2   -1    0    0  502    0  0.00000000000E+00  0.00000000000E+00  0.93418880074E+03  0.93418880074E+03  0.00000000000E+00 0. -1.
          2   -1    0    0  501    0 -0.00000000000E+00 -0.00000000000E+00 -0.21310334019E+01  0.21310334019E+01  0.00000000000E+00 0. -1.
          2    1    1    2  501    0  0.60829261262E+01 -0.21366090429E+02  0.87203508115E+03  0.87231800083E+03  0.00000000000E+00 0. -1.
          2    1    1    2  502    0 -0.60829261262E+01  0.21366090429E+02  0.60022686192E+02  0.64001833318E+02  0.00000000000E+00 0. -1.
</event>
<event>
 4    1  0.9360795E+003  0.2511138E+02  0.7546771E-02  0.1467561E+00
          2   -1    0    0  502    0  0.00000000000E+00  0.00000000000E+00  0.85914569055E+02  0.85914569055E+02  0.00000000000E+00 0.  1.
          2   -1    0    0  501    0 -0.00000000000E+00 -0.00000000000E+00 -0.21517302062E+02  0.21517302062E+02  0.00000000000E+00 0. -1.
          2    1    1    2  501    0  0.16041167508E+02 -0.19320002235E+02  0.75801157429E+02  0.79852345043E+02  0.00000000000E+00 0.  1.
          2    1    1    2  502    0 -0.16041167508E+02  0.19320002235E+02 -0.11403890436E+02  0.27579526074E+02  0.00000000000E+00 0. -1.
</event>
<event>
 4    1  0.9360795E+003  0.2020468E+02  0.7546771E-02  0.1530930E+00
          2   -1    0    0  501    0  0.00000000000E+00  0.00000000000E+00  0.52269201553E+00  0.52269201553E+00  0.00000000000E+00 0.  1.
          2   -1    0    0  502    0 -0.00000000000E+00 -0.00000000000E+00 -0.15917519501E+04  0.15917519501E+04  0.00000000000E+00 0.  1.
          2    1    1    2  501    0 -0.17194569681E+02 -0.10610173118E+02 -0.13638011669E+04  0.13639508245E+04  0.00000000000E+00 0.  1.
          2    1    1    2  502    0  0.17194569681E+02  0.10610173118E+02 -0.22742809125E+03  0.22832381762E+03  0.00000000000E+00 0.  1.
</event>
<event>
 4    1  0.9360795E+003  0.3565241E+02  0.7546771E-02  0.1376034E+00
          2   -1    0    0  501    0  0.00000000000E+00  0.00000000000E+00  0.23887896226E+03  0.23887896226E+03  0.00000000000E+00 0. -1.
          2   -1    0    0  502    0 -0.00000000000E+00 -0.00000000000E+00 -0.31282314023E+02  0.31282314023E+02  0.00000000000E+00 0. -1.
          2    1    1    2  501    0  0.31737195100E+02  0.16243306095E+02 -0.19258674202E+02  0.40521489086E+02  0.00000000000E+00 0. -1.
          2    1    1    2  502    0 -0.31737195100E+02 -0.16243306095E+02  0.22685532243E+03  0.22963978719E+03  0.00000000000E+00 0. -1.
</event>
<event>
 4    1  0.9360795E+003  0.2123839E+02  0.7546771E-02  0.1515888E+00
          2   -1    0    0  501    0  0.00000000000E+00  0.00000000000E+00  0.12026213657E+02  0.12026213657E+02  0.00000000000E+00 0.  1.
          2   -1    0    0  502    0 -0.00000000000E+00 -0.00000000000E+00 -0.47481943540E+02  0.47481943540E+02  0.00000000000E+00 0.  1.
          2    1    1    2  501    0 -0.19126071796E+02  0.92337803416E+01 -0.40904003245E+01  0.21628700759E+02  0.00000000000E+00 0.  1.
          2    1    1    2  502    0  0.19126071796E+02 -0.92337803416E+01 -0.31365329559E+02  0.37879456438E+02  0.00000000000E+00 0.  1.
</event>
<event>
 4    1  0.9360795E+003  0.2283338E+02  0.7546771E-02  0.1494601E+00
          2   -1    0    0  501    0  0.00000000000E+00  0.00000000000E+00  0.25215295638E+03  0.25215295638E+03  0.00000000000E+00 0.  1.
          2   -1    0    0  502    0 -0.00000000000E+00 -0.00000000000E+00 -0.57610844658E+02  0.57610844658E+02  0.00000000000E+00 0. -1.
          2    1    1    2  501    0  0.16856451962E+02 -0.15402061339E+02 -0.54806101004E+02  0.59372318243E+02  0.00000000000E+00 0. -1.
          2    1    1    2  502    0 -0.16856451962E+02  0.15402061339E+02  0.24934821273E+03  0.25039148280E+03  0.00000000000E+00 0.  1.
</event>
<event>
 4    1  0.9360795E+003  0.2028070E+02  0.7546771E-02  0.1529787E+00
          2   -1    0    0  502    0  0.00000000000E+00  0.00000000000E+00  0.29391380988E+01  0.29391380988E+01  0.00000000000E+00 0.  1.
          2   -1    0    0  501    0 -0.00000000000E+00 -0.00000000000E+00 -0.53874451816E+03  0.53874451816E+03  0.00000000000E+00 0. -1.
          2    1    1    2  501    0  0.20132845889E+02  0.24444524033E+01 -0.34877094264E+02  0.40344993932E+02  0.00000000000E+00 0.  1.
          2    1    1    2  502    0 -0.20132845889E+02 -0.24444524033E+01 -0.50092828579E+03  0.50133866232E+03  0.00000000000E+00 0. -1.
</event>
<event>
 4    1  0.9360795E+003  0.2129473E+02  0.7546771E-02  0.1515098E+00
          2   -1    0    0  501    0  0.00000000000E+00  0.00000000000E+00  0.17576350066E+04  0.17576350066E+04  0.00000000000E+00 0.  1.
          2   -1    0    0  502    0 -0.00000000000E+00 -0.00000000000E+00 -0.52869249293E+00  0.52869249293E+00  0.00000000000E+00 0.  1.
          2    1    1    2  501    0 -0.21293728554E+02 -0.20657761187E+00  0.24952830918E+03  0.25043530628E+03  0.00000000000E+00 0.  1.
          2    1    1    2  502    0  0.21293728554E+02  0.20657761187E+00  0.15075780049E+04  0.15077283928E+04  0.00000000000E+00 0.  1.
</event>
<event>
 4    1  0.9360795E+003  0.9006323E+02  0.7546771E-02  0.1182238E+00
          2   -1    0    0  501    0  0.00000000000E+00  0.00000000000E+00  0.42907950215E+02  0.42907950215E+02  0.00000000000E+00 0. -1.
          2   -1    0    0  502    0 -0.00000000000E+00 -0.00000000000E+00 -0.72480387210E+03  0.72480387210E+03  0.00000000000E+00 0. -1.
          2    1    1    2  501    0 -0.86747362280E+02  0.24213228680E+02 -0.67097085289E+03  0.67698838301E+03  0.00000000000E+00 0. -1.
          2    1    1    2  502    0  0.86747362280E+02 -0.24213228680E+02 -0.10925068992E+02  0.90723439299E+02  0.00000000000E+00 0. -1.
</event>
<event>
 4    1  0.9360795E+003  0.2172571E+02  0.7546771E-02  0.1509151E+00
          2   -1    0    0  502    0  0.00000000000E+00  0.00000000000E+00  0.64831943706E+03  0.64831943706E+03  0.00000000000E+00 0. -1.
          2   -1    0    0  501    0 -0.00000000000E+00 -0.00000000000E+00 -0.91498125792E+01  0.91498125792E+01  0.00000000000E+00 0.  1.
          2    1    1    2  501    0 -0.20374283466E+02  0.75428880615E+01  0.63496974548E+03  0.63534131321E+03  0.00000000000E+00 0. -1.
          2    1    1    2  502    0  0.20374283466E+02 -0.75428880615E+01  0.41998789933E+01  0.22127936429E+02  0.00000000000E+00 0.  1.
</event>
<event>
 4    1  0.9360795E+003  0.2087140E+02  0.7546771E-02  0.1521109E+00
          2   -1    0    0  501    0  0.00000000000E+00  0.00000000000E+00  0.91654251472E+03  0.91654251472E+03  0.00000000000E+00 0. -1.
          2   -1    0    0  502    0 -0.00000000000E+00 -0.00000000000E+00 -0.28012066490E+01  0.28012066490E+01  0.00000000000E+00 0.  1.
          2    1    1    2  501    0 -0.10063550849E+02 -0.18284976848E+02  0.38006458062E+02  0.43360192441E+02  0.00000000000E+00 0.  1.
          2    1    1    2  502    0  0.10063550849E+02  0.18284976848E+02  0.87573485001E+03  0.87598352893E+03  0.00000000000E+00 0. -1.
</event>
<event>
 4    1  0.9360795E+003  0.2399085E+02  0.7546771E-02  0.1480417E+00
          2   -1    0    0  502    0  0.00000000000E+00  0.00000000000E+00  0.17093174631E+04  0.17093174631E+04  0.00000000000E+00 0.  1.
          2   -1    0    0  501    0 -0.00000000000E+00 -0.00000000000E+00 -0.22491944066E+03  0.22491944066E+03  0.00000000000E+00 0.  1.
          2    1    1    2  501    0  0.10394692515E+02  0.21622011296E+02  0.17085932707E+04  0.17087616937E+04  0.00000000000E+00 0.  1.
          2    1    1    2  502    0 -0.10394692515E+02 -0.21622011296E+02 -0.22419524829E+03  0.22547521008E+03  0.00000000000E+00 0.  1.
</event>
<event>
 4    1  0.9360795E+003  0.2651493E+02  0.7546771E-02  0.1452543E+00
          2   -1    0    0  502    0  0.00000000000E+00  0.00000000000E+00  0.27054674871E+02  0.27054674871E+02  0.00000000000E+00 0.  1.
          2   -1    0    0  501    0 -0.00000000000E+00 -0.00000000000E+00 -0.11756051446E+04  0.11756051446E+04  0.00000000000E+00 0. -1.
          2    1    1    2  501    0  0.12490460337E+02 -0.23388668894E+02  0.20371543162E+02  0.33437123124E+02  0.00000000000E+00 0.  1.
          2    1    1    2  502    0 -0.12490460337E+02  0.23388668894E+02 -0.11689220128E+04  0.11692226963E+04  0.00000000000E+00 0. -1.
</event>
<event>
 4    1  0.9360795E+003  0.2805864E+02  0.7546771E-02  0.1437254E+00
          2   -1    0    0  502    0  0.00000000000E+00  0.00000000000E+00  0.28800056030E+03  0.28800056030E+03  0.00000000000E+00 0. -1.
          2   -1    0    0  501    0 -0.00000000000E+00 -0.00000000000E+00 -0.28868539707E+01  0.28868539707E+01  0.00000000000E+00 0. -1.
          2    1    1    2  501    0  0.23309640741E+02  0.15618840124E+02  0.10904926309E+03  0.11260119582E+03  0.00000000000E+00 0. -1.
          2    1    1    2  502    0 -0.23309640741E+02 -0.15618840124E+02  0.17606444324E+03  0.17828621845E+03  0.00000000000E+00 0. -1.
</event>
<event>
 4    1  0.9360795E+003  0.5023191E+02  0.7546771E-02  0.1297170E+00
          2   -1    0    0  501    0  0.00000000000E+00  0.00000000000E+00  0.40824772990E+02  0.40824772990E+02  0.00000000000E+00 0. -1.
          2   -1    0    0  502    0 -0.00000000000E+00 -0.00000000000E+00 -0.20459677303E+03  0.20459677303E+03  0.00000000000E+00 0.  1.
          2    1    1    2  501    0  0.39498047295E+02 -0.31034637472E+02 -0.18439979504E+03  0.19111914837E+03  0.00000000000E+00 0.  1.
          2    1    1    2  502    0 -0.39498047295E+02  0.31034637472E+02  0.20627795005E+02  0.54302397644E+02  0.00000000000E+00 0. -1.
</event>
<event>
 4    1  0.9360795E+003  0.5361506E+02  0.7546771E-02  0.1283216E+00
          2   -1    0    0  501    0  0.00000000000E+00  0.00000000000E+00  0.29975232863E+04  0.29975232863E+04  0.00000000000E+00 0.  1.
          2   -1    0    0  502    0 -0.00000000000E+00 -0.00000000000E+00 -0.30743401957E+01  0.30743401957E+01  0.00000000000E+00 0.  1.
          2    1    1    2  501    0 -0.31996562294E+02  0.43020863672E+02  0.25272811068E+03  0.25835261299E+03  0.00000000000E+00 0.  1.
          2    1    1    2  502    0  0.31996562294E+02 -0.43020863672E+02  0.27417208354E+04  0.27422450135E+04  0.00000000000E+00 0.  1.
</event>
<event>
 4    1  0.9360795E+003  0.2060616E+02  0.7546771E-02  0.1524963E+00
          2   -1    0    0  501    0  0.00000000000E+00  0.00000000000E+00  0.12651938197E+02  0.12651938197E+02  0.00000000000E+00 0. -1.
          2   -1    0    0  502    0 -0.00000000000E+00 -0.00000000000E+00 -0.40643470764E+02  0.40643470764E+02  0.00000000000E+00 0.  1.
          2    1    1    2  501    0  0.18580250414E+02  0.89100015100E+01 -0.25119526846E+02  0.32490067118E+02  0.00000000000E+00 0.  1.
          2    1    1    2  502    0 -0.18580250414E+02 -0.89100015100E+01 -0.28720057209E+01  0.20805341843E+02  0.00000000000E+00 0. -1.
</event>
<event>
 4    1  0.9360795E+003  0.4213103E+02  0.7546771E-02  0.1336431E+00
          2   -1    0    0  502    0  0.00000000000E+00  0.00000000000E+00  0.72738292294E+03  0.72738292294E+03  0.00000000000E+00 0.  1.
          2   -1    0    0  501    0 -0.00000000000E+00 -0.00000000000E+00 -0.45817161697E+03  0.45817161697E+03  0.00000000000E+00 0. -1.
          2    1    1    2  501    0  0.24753905753E+02 -0.34092046939E+02  0.72580220708E+03  0.72702397988E+03  0.00000000000E+00 0.  1.
          2    1    1    2  502    0 -0.24753905753E+02  0.34092046939E+02 -0.45659090111E+03  0.45853056004E+03  0.00000000000E+00 0. -1.
</event>
<event>
 4    1  0.9360795E+003  0.2283882E+02  0.7546771E-02  0.1494532E+00
          2   -1    0    0  502    0  0.00000000000E+00  0.00000000000E+00  0.46097625418E+02  0.46097625418E+02  0.00000000000E+00 0. -1.
          2   -1    0    0  501    0 -0.00000000000E+00 -0.00000000000E+00 -0.65733492144E+02  0.65733492144E+02  0.00000000000E+00 0.  1.
          2    1    1    2  501    0  0.20490567934E+02 -0.10087043992E+02  0.41057846549E+02  0.46982534989E+02  0.00000000000E+00 0. -1.
          2    1    1    2  502    0 -0.20490567934E+02  0.10087043992E+02 -0.60693713275E+02  0.64848582574E+02  0.00000000000E+00 0.  1.
</event>
<event>
 4    1  0.9360795E+003  0.2209564E+02  0.7546771E-02  0.1504177E+00
          2   -1    0    0  502    0  0.00000000000E+00  0.00000000000E+00  0.55029429843E+02  0.55029429843E+02  0.00000000000E+00 0. -1.
          2   -1    0    0  501    0 -0.00000000000E+00 -0.00000000000E+00 -0.87188192048E+02  0.87188192048E+02  0.00000000000E+00 0. -1.
          2    1    1    2  501    0  0.22042333069E+02 -0.15339654303E+01  0.51314511809E+02  0.55869460524E+02  0.00000000000E+00 0. -1.
          2    1    1    2  502    0 -0.22042333069E+02  0.15339654303E+01 -0.83473274013E+02  0.86348161367E+02  0.00000000000E+00 0. -1.
</event>
<event>
 4    1  0.9360795E+003  0.3306601E+02  0.7546771E-02  0.1394694E+00
          2   -1    0    0  501    0  0.00000000000E+00  0.00000000000E+00  0.70464749997E+02  0.70464749997E+02  0.00000000000E+00 0.  1.
          2   -1    0    0  502    0 -0.00000000000E+00 -0.00000000000E+00 -0.66863860334E+02  0.66863860334E+02  0.00000000000E+00 0. -1.
          2    1    1    2  501    0  0.32962882184E+02 -0.26094706885E+01 -0.58371588696E+02  0.67086535952E+02  0.00000000000E+00 0. -1.
          2    1    1    2  502    0 -0.32962882184E+02  0.26094706885E+01  0.61972478360E+02  0.70242074380E+02  0.00000000000E+00 0.  1.
</event>
<event>
 4    1  0.9360795E+003  0.2104314E+02  0.7546771E-02  0.1518650E+00
          2   -1    0    0  501    0  0.00000000000E+00  0.00000000000E+00  0.13563887201E+04  0.13563887201E+04  0.00000000000E+00 0.  1.
          2   -1    0    0  502    0 -0.00000000000E+00 -0.00000000000E+00 -0.17806436643E+01  0.17806436643E+01  0.00000000000E+00 0.  1.
          2    1    1    2  501    0 -0.11807609383E+02  0.17418211779E+02  0.63620778990E+02  0.67010575734E+02  0.00000000000E+00 0.  1.
          2    1    1    2  502    0  0.11807609383E+02 -0.17418211779E+02  0.12909872974E+04  0.12911587880E+04  0.00000000000E+00 0.  1.
</event>
<event>
 4    1  0.9360795E+003  0.2081855E+02  0.7546771E-02  0.1521871E+00
          2   -1    0    0  502    0  0.00000000000E+00  0.00000000000E+00  0.37993378138E+00  0.37993378138E+00  0.00000000000E+00 0. -1.
          2   -1    0    0  501    0 -0.00000000000E+00 -0.00000000000E+00 -0.12114771845E+04  0.12114771845E+04  0.00000000000E+00 0. -1.
          2    1    1    2  501    0 -0.20813335784E+02 -0.46602588573E+00 -0.45915052304E+03  0.45962225243E+03  0.00000000000E+00 0. -1.
          2    1    1    2  502    0  0.20813335784E+02  0.46602588573E+00 -0.75194672766E+03  0.75223486583E+03  0.00000000000E+00 0. -1.
</event>
<event>
 4    1  0.9360795E+003  0.6924280E+02  0.7546771E-02  0.1231297E+00
          2   -1    0    0  502    0  0.00000000000E+00  0.00000000000E+00  0.67286942385E+03  0.67286942385E+03  0.00000000000E+00 0.  1.
          2   -1    0    0  501    0 -0.00000000000E+00 -0.00000000000E+00 -0.13363730650E+04  0.13363730650E+04  0.00000000000E+00 0. -1.
          2    1    1    2  501    0 -0.58705468504E+02  0.36718291784E+02  0.67018752039E+03  0.67375505747E+03  0.00000000000E+00 0.  1.
          2    1    1    2  502    0  0.58705468504E+02 -0.36718291784E+02 -0.13336911615E+04  0.13354874314E+04  0.00000000000E+00 0. -1.
</event>
<event>
 4    1  0.9360795E+003  0.2560269E+02  0.7546771E-02  0.1462173E+00
          2   -1    0    0  501    0  0.00000000000E+00  0.00000000000E+00  0.16022714489E+01  0.16022714489E+01  0.00000000000E+00 0.  1.
          2   -1    0    0  502    0 -0.00000000000E+00 -0.00000000000E+00 -0.42647830350E+03  0.42647830350E+03  0.00000000000E+00 0. -1.
          2    1    1    2  501    0  0.21620141764E+02  0.13713765057E+02 -0.25563798301E+03  0.25691686639E+03  0.00000000000E+00 0. -1.
          2    1    1    2  502    0 -0.21620141764E+02 -0.13713765057E+02 -0.16923804905E+03  0.17116370856E+03  0.00000000000E+00 0.  1.
</event>
<event>
 4    1  0.9360795E+003  0.4410692E+02  0.7546771E-02  0.1325966E+00
          2   -1    0    0  502    0  0.00000000000E+00  0.00000000000E+00  0.25978814581E+02  0.25978814581E+02  0.00000000000E+00 0.  1.
          2   -1    0    0  501    0 -0.00000000000E+00 -0.00000000000E+00 -0.16672461212E+03  0.16672461212E+03  0.00000000000E+00 0.  1.
          2    1    1    2  501    0 -0.82128202074E+01  0.43335553702E+02  0.11384333576E+01  0.44121612175E+02  0.00000000000E+00 0.  1.
          2    1    1    2  502    0  0.82128202074E+01 -0.43335553702E+02 -0.14188423090E+03  0.14858181453E+03  0.00000000000E+00 0.  1.
</event>
<event>
 4    1  0.9360795E+003  0.2044635E+02  0.7546771E-02  0.1527318E+00
          2   -1    0    0  501    0  0.00000000000E+00  0.00000000000E+00  0.67512111311E+03  0.67512111311E+03  0.00000000000E+00 0. -1.
          2   -1    0    0  502    0 -0.00000000000E+00 -0.00000000000E+00 -0.65144296602E+00  0.65144296602E+00  0.00000000000E+00 0. -1.
          2    1    1    2  501    0 -0.41911096745E+01  0.20012191277E+02  0.26209536130E+03  0.26289167278E+03  0.00000000000E+00 0. -1.
          2    1    1    2  502    0  0.41911096745E+01 -0.20012191277E+02  0.41237430884E+03  0.41288088329E+03  0.00000000000E+00 0. -1.
</event>
<event>
 4    1  0.9360795E+003  0.2855023E+02  0.7546771E-02  0.1432628E+00
          2   -1    0    0  502    0  0.00000000000E+00  0.00000000000E+00  0.41901242901E+02  0.41901242901E+02  0.00000000000E+00 0.  1.
          2   -1    0    0  501    0 -0.00000000000E+00 -0.00000000000E+00 -0.90054810513E+03  0.90054810513E+03  0.00000000000E+00 0. -1.
          2    1    1    2  501    0 -0.68071276859E+01  0.27726860411E+02  0.36783857865E+02  0.46563590658E+02  0.00000000000E+00 0.  1.
          2    1    1    2  502    0  0.68071276859E+01 -0.27726860411E+02 -0.89543072010E+03  0.89588575737E+03  0.00000000000E+00 0. -1.
</event>
<event>
 4    1  0.1314318E+004  0.2676004E+02  0.7546771E-02  0.1450034E+00
          2   -1    0    0  501    0  0.00000000000E+00  0.00000000000E+00  0.11853776545E+04  0.11853776545E+04  0.00000000000E+00 0.  1.
          2   -1    0    0  502    0 -0.00000000000E+00 -0.00000000000E+00 -0.70997998837E+03  0.70997998837E+03  0.00000000000E+00 0.  1.
          2    1    1    2  501    0 -0.25878266920E+02  0.68128650915E+01 -0.70957671985E+03  0.71008113704E+03  0.00000000000E+00 0.  1.
          2    1    1    2  502    0  0.25878266920E+02 -0.68128650915E+01  0.11849743860E+04  0.11852765058E+04  0.00000000000E+00 0.  1.
</event>
<event>
 4    1  0.9360795E+003  0.2792087E+02  0.7546771E-02  0.1438571E+00
          2   -1    0    0  501    0  0.00000000000E+00  0.00000000000E+00  0.60027413445E+01  0.60027413445E+01  0.00000000000E+00 0. -1.
          2   -1    0    0  502    0 -0.00000000000E+00 -0.00000000000E+00 -0.62030268743E+03  0.62030268743E+03  0.00000000000E+00 0. -1.
          2    1    1    2  501    0  0.70955629783E+01  0.27004218517E+02 -0.58559799737E+03  0.58626324238E+03  0.00000000000E+00 0. -1.
          2    1    1    2  502    0 -0.70955629783E+01 -0.27004218517E+02 -0.28701948706E+02  0.40042186394E+02  0.00000000000E+00 0. -1.
</event>
<event>
 4    1  0.9360795E+003  0.2203329E+02  0.7546771E-02  0.1505008E+00
          2   -1    0    0  501    0  0.00000000000E+00  0.00000000000E+00  0.81487108649E+00  0.81487108649E+00  0.00000000000E+00 0. -1.
          2   -1    0    0  502    0 -0.00000000000E+00 -0.00000000000E+00 -0.79699549426E+03  0.79699549426E+03  0.00000000000E+00 0.  1.
          2    1    1    2  501    0 -0.13257253947E+02 -0.17598604447E+02 -0.59853594697E+03  0.59894135396E+03  0.00000000000E+00 0.  1.
          2    1    1    2  502    0  0.13257253947E+02  0.17598604447E+02 -0.19764467620E+03  0.19886901139E+03  0.00000000000E+00 0. -1.
</event>
<event>
 4    1  0.9360795E+003  0.4199132E+02  0.7546771E-02  0.1337196E+00
          2   -1    0    0  502    0  0.00000000000E+00  0.00000000000E+00  0.28114365279E+03  0.28114365279E+03  0.00000000000E+00 0. -1.
          2   -1    0    0  501    0 -0.00000000000E+00 -0.00000000000E+00 -0.12054287856E+02  0.12054287856E+02  0.00000000000E+00 0. -1.
          2    1    1    2  501    0  0.32251375770E+02  0.26890891048E+02  0.23608025927E+03  0.23978565445E+03  0.00000000000E+00 0. -1.
          2    1    1    2  502    0 -0.32251375770E+02 -0.26890891048E+02  0.33009105661E+02  0.53412286199E+02  0.00000000000E+00 0. -1.
</event>
<event>
 4    1  0.9360795E+003  0.2958353E+02  0.7546771E-02  0.1423251E+00
          2   -1    0    0  502    0  0.00000000000E+00  0.00000000000E+00  0.80050873382E+03  0.80050873382E+03  0.00000000000E+00 0.  1.
          2   -1    0    0  501    0 -0.00000000000E+00 -0.00000000000E+00 -0.46505419653E+01  0.46505419653E+01  0.00000000000E+00 0. -1.
          2    1    1    2  501    0  0.11114433239E+02  0.27416323530E+02  0.75002222198E+03  0.75060543489E+03  0.00000000000E+00 0.  1.
          2    1    1    2  502    0 -0.11114433239E+02 -0.27416323530E+02  0.45835969876E+02  0.54553840897E+02  0.00000000000E+00 0. -1.
</event>
<event>
 4    1  0.9360795E+003  0.2287641E+02  0.7546771E-02  0.1494056E+00
          2   -1    0    0  502    0  0.00000000000E+00  0.00000000000E+00  0.14408844530E+01  0.14408844530E+01  0.00000000000E+00 0. -1.
          2   -1    0    0  501    0 -0.00000000000E+00 -0.00000000000E+00 -0.13713620070E+04  0.13713620070E+04  0.00000000000E+00 0. -1.
          2    1    1    2  501    0 -0.22851062050E+02 -0.10766771780E+01 -0.96432545748E+02  0.99108860099E+02  0.00000000000E+00 0. -1.
          2    1    1    2  502    0  0.22851062050E+02  0.10766771780E+01 -0.12734885768E+04  0.12736940313E+04  0.00000000000E+00 0. -1.
</event>
<event>
 4    1  0.9360795E+003  0.4529047E+02  0.7546771E-02  0.1319993E+00
          2   -1    0    0  502    0  0.00000000000E+00  0.00000000000E+00  0.10367729861E+04  0.10367729861E+04  0.00000000000E+00 0.  1.
          2   -1    0    0  501    0 -0.00000000000E+00 -0.00000000000E+00 -0.45314946437E+01  0.45314946437E+01  0.00000000000E+00 0.  1.
          2    1    1    2  501    0 -0.29073973903E+02  0.34726512829E+02  0.90692052738E+03  0.90805069773E+03  0.00000000000E+00 0.  1.
          2    1    1    2  502    0  0.29073973903E+02 -0.34726512829E+02  0.12532096404E+03  0.13325378299E+03  0.00000000000E+00 0.  1.
</event>
<event>
 4    1  0.9360795E+003  0.4429394E+02  0.7546771E-02  0.1325008E+00
          2   -1    0    0  502    0  0.00000000000E+00  0.00000000000E+00  0.19144118667E+03  0.19144118667E+03  0.00000000000E+00 0.  1.
          2   -1    0    0  501    0 -0.00000000000E+00 -0.00000000000E+00 -0.12998996236E+03  0.12998996236E+03  0.00000000000E+00 0. -1.
          2    1    1    2  501    0  0.22724193926E+02  0.38020573726E+02  0.18497577741E+03  0.19020512938E+03  0.00000000000E+00 0.  1.
          2    1    1    2  502    0 -0.22724193926E+02 -0.38020573726E+02 -0.12352455310E+03  0.13122601965E+03  0.00000000000E+00 0. -1.
</event>
<event>
 4    1  0.9360795E+003  0.2837890E+02  0.7546771E-02  0.1434228E+00
          2   -1    0    0  502    0  0.00000000000E+00  0.00000000000E+00  0.52667285544E+02  0.52667285544E+02  0.00000000000E+00 0. -1.
          2   -1    0    0  501    0 -0.00000000000E+00 -0.00000000000E+00 -0.58661927635E+02  0.58661927635E+02  0.00000000000E+00 0. -1.
          2    1    1    2  501    0 -0.10322588964E+02 -0.26434936983E+02  0.44865449813E+02  0.53087383841E+02  0.00000000000E+00 0. -1.
          2    1    1    2  502    0  0.10322588964E+02  0.26434936983E+02 -0.50860091903E+02  0.58241829338E+02  0.00000000000E+00 0. -1.
</event>
<event>
 4    1  0.9360795E+003  0.3415041E+02  0.7546771E-02  0.1386636E+00
          2   -1    0    0  502    0  0.00000000000E+00  0.00000000000E+00  0.33941864675E+03  0.33941864675E+03  0.00000000000E+00 0.  1.
          2   -1    0    0  501    0 -0.00000000000E+00 -0.00000000000E+00 -0.13427906375E+02  0.13427906375E+02  0.00000000000E+00 0.  1.
          2    1    1    2  501    0  0.34100282717E+02  0.18497415134E+01  0.31518160569E+03  0.31702633233E+03  0.00000000000E+00 0.  1.
          2    1    1    2  502    0 -0.34100282717E+02 -0.18497415134E+01  0.10809134683E+02  0.35820220793E+02  0.00000000000E+00 0.  1.
</event>
<event>
 4    1  0.9360795E+003  0.1525534E+03  0.7546771E-02  0.1095028E+00
          2   -1    0    0  501    0  0.00000000000E+00  0.00000000000E+00  0.28193490666E+04  0.28193490666E+04  0.00000000000E+00 0. -1.
          2   -1    0    0  502    0 -0.00000000000E+00 -0.00000000000E+00 -0.47704982636E+03  0.47704982636E+03  0.00000000000E+00 0. -1.
          2    1    1    2  501    0  0.13909039978E+03 -0.62660976759E+02 -0.46272788431E+03  0.48722646914E+03  0.00000000000E+00 0. -1.
          2    1    1    2  502    0 -0.13909039978E+03  0.62660976759E+02  0.28050271246E+04  0.28091724238E+04  0.00000000000E+00 0. -1.
</event>
<event>
 4    1  0.9360795E+003  0.2343138E+02  0.7546771E-02  0.1487151E+00
          2   -1    0    0  502    0  0.00000000000E+00  0.00000000000E+00  0.37149964817E+01  0.37149964817E+01  0.00000000000E+00 0. -1.
          2   -1    0    0  501    0 -0.00000000000E+00 -0.00000000000E+00 -0.83743801570E+03  0.83743801570E+03  0.00000000000E+00 0. -1.
          2    1    1    2  501    0  0.15637441700E+02 -0.17449928401E+02 -0.35195710857E+02  0.42282001453E+02  0.00000000000E+00 0. -1.
          2    1    1    2  502    0 -0.15637441700E+02  0.17449928401E+02 -0.79852730836E+03  0.79887101073E+03  0.00000000000E+00 0. -1.
</event>
<event>
 4    1  0.9360795E+003  0.2072392E+02  0.7546771E-02  0.1523243E+00
          2   -1    0    0  502    0  0.00000000000E+00  0.00000000000E+00  0.85499128906E+03  0.85499128906E+03  0.00000000000E+00 0.  1.
          2   -1    0    0  501    0 -0.00000000000E+00 -0.00000000000E+00 -0.33724690799E+02  0.33724690799E+02  0.00000000000E+00 0.  1.
          2    1    1    2  501    0 -0.24720905310E+01 -0.20575945528E+02  0.85166956664E+03  0.85192166981E+03  0.00000000000E+00 0.  1.
          2    1    1    2  502    0  0.24720905310E+01  0.20575945528E+02 -0.30402968372E+02  0.36794310047E+02  0.00000000000E+00 0.  1.
</event>
<event>
 4    1  0.9360795E+003  0.2446643E+02  0.7546771E-02  0.1474862E+00
          2   -1    0    0  502    0  0.00000000000E+00  0.00000000000E+00  0.28195437809E+01  0.28195437809E+01  0.00000000000E+00 0.  1.
          2   -1    0    0  501    0 -0.00000000000E+00 -0.00000000000E+00 -0.17336565433E+04  0.17336565433E+04  0.00000000000E+00 0.  1.
          2    1    1    2  501    0 -0.68715487986E+01 -0.23481655918E+02 -0.52078909998E+02  0.57539718579E+02  0.00000000000E+00 0.  1.
          2    1    1    2  502    0  0.68715487986E+01  0.23481655918E+02 -0.16787580896E+04  0.16789363685E+04  0.00000000000E+00 0.  1.
</event>
<event>
 4    1  0.9360795E+003  0.2127965E+02  0.7546771E-02  0.1515309E+00
          2   -1    0    0  502    0  0.00000000000E+00  0.00000000000E+00  0.14620450618E+04  0.14620450618E+04  0.00000000000E+00 0.  1.
          2   -1    0    0  501    0 -0.00000000000E+00 -0.00000000000E+00 -0.49012764335E+00  0.49012764335E+00  0.00000000000E+00 0. -1.
          2    1    1    2  501    0 -0.13365005847E+02  0.16558991954E+02  0.11744372071E+04  0.11746299745E+04  0.00000000000E+00 0.  1.
          2    1    1    2  502    0  0.13365005847E+02 -0.16558991954E+02  0.28711772707E+03  0.28790521495E+03  0.00000000000E+00 0. -1.
</event>
<event>
 4    1  0.9360795E+003  0.2917530E+02  0.7546771E-02  0.1426901E+00
          2   -1    0    0  502    0  0.00000000000E+00  0.00000000000E+00  0.11282249070E+04  0.11282249070E+04  0.00000000000E+00 0.  1.
          2   -1    0    0  501    0 -0.00000000000E+00 -0.00000000000E+00 -0.12681938916E+03  0.12681938916E+03  0.00000000000E+00 0. -1.
          2    1    1    2  501    0  0.95517861238E+01 -0.27567394181E+02  0.11263555356E+04  0.11267333271E+04  0.00000000000E+00 0.  1.
          2    1    1    2  502    0 -0.95517861238E+01  0.27567394181E+02 -0.12495001776E+03  0.12831096905E+03  0.00000000000E+00 0. -1.
</event>
<event>
 4    1  0.9360795E+003  0.2741680E+02  0.7546771E-02  0.1443466E+00
          2   -1    0    0  502    0  0.00000000000E+00  0.00000000000E+00  0.24094846087E+02  0.24094846087E+02  0.00000000000E+00 0.  1.
          2   -1    0    0  501    0 -0.00000000000E+00 -0.00000000000E+00 -0.17071667813E+03  0.17071667813E+03  0.00000000000E+00 0.  1.
          2    1    1    2  501    0  0.17992347200E+02  0.20687103051E+02  0.14746269661E+02  0.31130905212E+02  0.00000000000E+00 0.  1.
          2    1    1    2  502    0 -0.17992347200E+02 -0.20687103051E+02 -0.16136810170E+03  0.16368061900E+03  0.00000000000E+00 0.  1.
</event>
<event>
 4    1  0.9360795E+003  0.2247051E+02  0.7546771E-02  0.1499256E+00
          2   -1    0    0  502    0  0.00000000000E+00  0.00000000000E+00  0.76974621551E+02  0.76974621551E+02  0.00000000000E+00 0.  1.
          2   -1    0    0  501    0 -0.00000000000E+00 -0.00000000000E+00 -0.18048195354E+02  0.18048195354E+02  0.00000000000E+00 0.  1.
          2    1    1    2  501    0 -0.19121976212E+02 -0.11801427009E+02  0.67369762488E+02  0.71018367704E+02  0.00000000000E+00 0.  1.
          2    1    1    2  502    0  0.19121976212E+02  0.11801427009E+02 -0.84433362901E+01  0.24004449201E+02  0.00000000000E+00 0.  1.
</event>
<event>
 4    1  0.9360795E+003  0.3240338E+02  0.7546771E-02  0.1399799E+00
          2   -1    0    0  502    0  0.00000000000E+00  0.00000000000E+00  0.90761003597E+03  0.90761003597E+03  0.00000000000E+00 0.  1.
          2   -1    0    0  501    0 -0.00000000000E+00 -0.00000000000E+00 -0.18595257054E+03  0.18595257054E+03  0.00000000000E+00 0.  1.
          2    1    1    2  501    0  0.32394263032E+02 -0.76842615114E+00  0.90590654536E+03  0.90648587837E+03  0.00000000000E+00 0.  1.
          2    1    1    2  502    0 -0.32394263032E+02  0.76842615114E+00 -0.18424907994E+03  0.18707672814E+03  0.00000000000E+00 0.  1.
</event>
<event>
 4    1  0.9360795E+003  0.2070926E+02  0.7546771E-02  0.1523457E+00
          2   -1    0    0  502    0  0.00000000000E+00  0.00000000000E+00  0.62283186026E+02  0.62283186026E+02  0.00000000000E+00 0. -1.
          2   -1    0    0  501    0 -0.00000000000E+00 -0.00000000000E+00 -0.13267553986E+02  0.13267553986E+02  0.00000000000E+00 0. -1.
          2    1    1    2  501    0 -0.63710697245E+01 -0.19704890902E+02  0.50706610440E+02  0.54772562449E+02  0.00000000000E+00 0. -1.
          2    1    1    2  502    0  0.63710697245E+01  0.19704890902E+02 -0.16909783999E+01  0.20778177563E+02  0.00000000000E+00 0. -1.
</event>
<event>
 4    1  0.9360795E+003  0.2717871E+02  0.7546771E-02  0.1445821E+00
          2   -1    0    0  501    0  0.00000000000E+00  0.00000000000E+00  0.70375561323E+03  0.70375561323E+03  0.00000000000E+00 0. -1.
          2   -1    0    0  502    0 -0.00000000000E+00 -0.00000000000E+00 -0.10511123042E+02  0.10511123042E+02  0.00000000000E+00 0.  1.
          2    1    1    2  501    0  0.63748856613E+01  0.26420504175E+02  0.77892202851E+01  0.28272852009E+02  0.00000000000E+00 0.  1.
          2    1    1    2  502    0 -0.63748856613E+01 -0.26420504175E+02  0.68545526990E+03  0.68599388426E+03  0.00000000000E+00 0. -1.
</event>
<event>
 4    1  0.9360795E+003  0.2001233E+02  0.7546771E-02  0.1533847E+00
          2   -1    0    0  502    0  0.00000000000E+00  0.00000000000E+00  0.20046398845E+02  0.20046398845E+02  0.00000000000E+00 0.  1.
          2   -1    0    0  501    0 -0.00000000000E+00 -0.00000000000E+00 -0.12230336535E+04  0.12230336535E+04  0.00000000000E+00 0. -1.
          2    1    1    2  501    0 -0.19872296526E+02  0.23633075505E+01  0.14949051762E+02  0.24979342273E+02  0.00000000000E+00 0.  1.
          2    1    1    2  502    0  0.19872296526E+02 -0.23633075505E+01 -0.12179363065E+04  0.12181007101E+04  0.00000000000E+00 0. -1.
</event>
<event>
 4    1  0.9360795E+003  0.2880776E+02  0.7546771E-02  0.1430248E+00
          2   -1    0    0  502    0  0.00000000000E+00  0.00000000000E+00  0.47504120545E+01  0.47504120545E+01  0.00000000000E+00 0. -1.
          2   -1    0    0  501    0 -0.00000000000E+00 -0.00000000000E+00 -0.56655109900E+03  0.56655109900E+03  0.00000000000E+00 0. -1.
          2    1    1    2  501    0  0.28424414736E+02  0.46839771686E+01 -0.43338036570E+02  0.52039143046E+02  0.00000000000E+00 0. -1.
          2    1    1    2  502    0 -0.28424414736E+02 -0.46839771686E+01 -0.51846265037E+03  0.51926236800E+03  0.00000000000E+00 0. -1.
</event>
<event>
 4    1  0.9360795E+003  0.2410295E+02  0.7546771E-02  0.1479094E+00
          2   -1    0    0  501    0  0.00000000000E+00  0.00000000000E+00  0.12927646092E+03  0.12927646092E+03  0.00000000000E+00 0.  1.
          2   -1    0    0  502    0 -0.00000000000E+00 -0.00000000000E+00 -0.78347741367E+02  0.78347741367E+02  0.00000000000E+00 0. -1.
          2    1    1    2  501    0  0.26628269261E+01  0.23955402882E+02 -0.75326549974E+02  0.79088817828E+02  0.00000000000E+00 0. -1.
          2    1    1    2  502    0 -0.26628269261E+01 -0.23955402882E+02  0.12625526952E+03  0.12853538445E+03  0.00000000000E+00 0.  1.
</event>
<event>
 4    1  0.9360795E+003  0.2366119E+02  0.7546771E-02  0.1484358E+00
          2   -1    0    0  501    0  0.00000000000E+00  0.00000000000E+00  0.21623862128E+01  0.21623862128E+01  0.00000000000E+00 0. -1.
          2   -1    0    0  502    0 -0.00000000000E+00 -0.00000000000E+00 -0.52604981117E+03  0.52604981117E+03  0.00000000000E+00 0. -1.
          2    1    1    2  501    0  0.43777904797E+01  0.23252677080E+02 -0.45015192850E+03  0.45077334745E+03  0.00000000000E+00 0. -1.
          2    1    1    2  502    0 -0.43777904797E+01 -0.23252677080E+02 -0.73735496463E+02  0.77438849936E+02  0.00000000000E+00 0. -1.
</event>
<event>
 4    1  0.9360795E+003  0.2138372E+02  0.7546771E-02  0.1513856E+00
          2   -1    0    0  501    0  0.00000000000E+00  0.00000000000E+00  0.17481099601E+04  0.17481099601E+04  0.00000000000E+00 0.  1.
          2   -1    0    0  502    0 -0.00000000000E+00 -0.00000000000E+00 -0.36817271663E+00  0.36817271663E+00  0.00000000000E+00 0. -1.
          2    1    1    2  501    0 -0.37263940719E+01  0.21056525271E+02  0.40346070395E+03  0.40402698289E+03  0.00000000000E+00 0. -1.
          2    1    1    2  502    0  0.37263940719E+01 -0.21056525271E+02  0.13442810834E+04  0.13444511499E+04  0.00000000000E+00 0.  1.
</event>
<event>
 4    1  0.1799406E+004  0.2610470E+02  0.7546771E-02  0.1456815E+00
          2   -1    0    0  501    0  0.00000000000E+00  0.00000000000E+00  0.64856628822E+03  0.64856628822E+03  0.00000000000E+00 0.  1.
          2   -1    0    0  502    0 -0.00000000000E+00 -0.00000000000E+00 -0.11067711592E+04  0.11067711592E+04  0.00000000000E+00 0.  1.
          2    1    1    2  501    0  0.25122951865E+02  0.70917336458E+01 -0.11063544540E+04  0.11066623845E+04  0.00000000000E+00 0.  1.
          2    1    1    2  502    0 -0.25122951865E+02 -0.70917336458E+01  0.64814958297E+03  0.64867506296E+03  0.00000000000E+00 0.  1.
</event>
<event>
 4    1  0.9360795E+003  0.2911495E+02  0.7546771E-02  0.1427446E+00
          2   -1    0    0  501    0  0.00000000000E+00  0.00000000000E+00  0.33889961443E+03  0.33889961443E+03  0.00000000000E+00 0.  1.
          2   -1    0    0  502    0 -0.00000000000E+00 -0.00000000000E+00 -0.13082586555E+02  0.13082586555E+02  0.00000000000E+00 0.  1.
          2    1    1    2  501    0 -0.89618249436E+01  0.27701374766E+02  0.46330155563E+01  0.29481270383E+02  0.00000000000E+00 0.  1.
          2    1    1    2  502    0  0.89618249436E+01 -0.27701374766E+02  0.32118401232E+03  0.32250093060E+03  0.00000000000E+00 0.  1.
</event>
<event>
 4    1  0.9360795E+003  0.4999705E+02  0.7546771E-02  0.1298185E+00
          2   -1    0    0  501    0  0.00000000000E+00  0.00000000000E+00  0.33046216852E+03  0.33046216852E+03  0.00000000000E+00 0. -1.
          2   -1    0    0  502    0 -0.00000000000E+00 -0.00000000000E+00 -0.23901782042E+02  0.23901782042E+02  0.00000000000E+00 0.  1.
          2    1    1    2  501    0  0.42587303611E+02 -0.26192101215E+02  0.67937691471E+01  0.50456514884E+02  0.00000000000E+00 0.  1.
          2    1    1    2  502    0 -0.42587303611E+02  0.26192101215E+02  0.29976661733E+03  0.30390743567E+03  0.00000000000E+00 0. -1.
</event>
<event>
 4    1  0.9360795E+003  0.2246539E+02  0.7546771E-02  0.1499323E+00
          2   -1    0    0  502    0  0.00000000000E+00  0.00000000000E+00  0.26478650430E+03  0.26478650430E+03  0.00000000000E+00 0. -1.
          2   -1    0    0  501    0 -0.00000000000E+00 -0.00000000000E+00 -0.60650939915E+01  0.60650939915E+01  0.00000000000E+00 0.  1.
          2    1    1    2  501    0 -0.42046131751E+01 -0.22068411887E+02  0.24150571071E+03  0.24254834958E+03  0.00000000000E+00 0. -1.
          2    1    1    2  502    0  0.42046131751E+01  0.22068411887E+02  0.17215699591E+02  0.28303248710E+02  0.00000000000E+00 0.  1.
</event>
<event>
 4    1  0.9360795E+003  0.2015299E+02  0.7546771E-02  0.1531710E+00
          2   -1    0    0  501    0  0.00000000000E+00  0.00000000000E+00  0.40726300270E+02  0.40726300270E+02  0.00000000000E+00 0. -1.
          2   -1    0    0  502    0 -0.00000000000E+00 -0.00000000000E+00 -0.12486140975E+03  0.12486140975E+03  0.00000000000E+00 0. -1.
          2    1    1    2  501    0  0.15416667895E+02 -0.12979577714E+02 -0.12148630321E+03  0.12314651824E+03  0.00000000000E+00 0. -1.
          2    1    1    2  502    0 -0.15416667895E+02  0.12979577714E+02  0.37351193731E+02  0.42441191780E+02  0.00000000000E+00 0. -1.
</event>
<event>
 4    1  0.9360795E+003  0.2022762E+02  0.7546771E-02  0.1530584E+00
          2   -1    0    0  501    0  0.00000000000E+00  0.00000000000E+00  0.18555307991E+04  0.18555307991E+04  0.00000000000E+00 0.  1.
          2   -1    0    0  502    0 -0.00000000000E+00 -0.00000000000E+00 -0.30012729277E+00  0.30012729277E+00  0.00000000000E+00 0. -1.
          2    1    1    2  501    0  0.18739923967E+02  0.76139195270E+01  0.44968011681E+03  0.45013482866E+03  0.00000000000E+00 0. -1.
          2    1    1    2  502    0 -0.18739923967E+02 -0.76139195270E+01  0.14055505550E+04  0.14056960978E+04  0.00000000000E+00 0.  1.
</event>
<event>
 4    1  0.9360795E+003  0.2008835E+02  0.7546771E-02  0.1532689E+00
          2   -1    0    0  502    0  0.00000000000E+00  0.00000000000E+00  0.48380217746E+03  0.48380217746E+03  0.00000000000E+00 0. -1.
          2   -1    0    0  501    0 -0.00000000000E+00 -0.00000000000E+00 -0.12101598832E+03  0.12101598832E+03  0.00000000000E+00 0. -1.
          2    1    1    2  501    0  0.18653812097E+02  0.74549941920E+01  0.48275819570E+03  0.48317596914E+03  0.00000000000E+00 0. -1.
          2    1    1    2  502    0 -0.18653812097E+02 -0.74549941920E+01 -0.11997200656E+03  0.12164219663E+03  0.00000000000E+00 0. -1.
</event>
<event>
 4    1  0.9360795E+003  0.2138002E+02  0.7546771E-02  0.1513908E+00
          2   -1    0    0  502    0  0.00000000000E+00  0.00000000000E+00  0.59868695314E+02  0.59868695314E+02  0.00000000000E+00 0.  1.
          2   -1    0    0  501    0 -0.00000000000E+00 -0.00000000000E+00 -0.85721825739E+01  0.85721825739E+01  0.00000000000E+00 0.  1.
          2    1    1    2  501    0  0.21032627676E+02  0.38384587407E+01  0.36962412184E+02  0.42700411086E+02  0.00000000000E+00 0.  1.
          2    1    1    2  502    0 -0.21032627676E+02 -0.38384587407E+01  0.14334100557E+02  0.25740466803E+02  0.00000000000E+00 0.  1.
</event>
<event>
 4    1  0.9360795E+003  0.2114800E+02  0.7546771E-02  0.1517162E+00
          2   -1    0    0  502    0  0.00000000000E+00  0.00000000000E+00  0.18309530777E+03  0.18309530777E+03  0.00000000000E+00 0. -1.
          2   -1    0    0  501    0 -0.00000000000E+00 -0.00000000000E+00 -0.10862271258E+04  0.10862271258E+04  0.00000000000E+00 0.  1.
          2    1    1    2  501    0  0.20515370150E+02  0.51339599804E+01  0.18238130956E+03  0.18360332251E+03  0.00000000000E+00 0. -1.
          2    1    1    2  502    0 -0.20515370150E+02 -0.51339599804E+01 -0.10855131276E+04  0.10857191110E+04  0.00000000000E+00 0.  1.
</event>
<event>
 4    1  0.9360795E+003  0.2725202E+02  0.7546771E-02  0.1445093E+00
          2   -1    0    0  502    0  0.00000000000E+00  0.00000000000E+00  0.41176533205E+03  0.41176533205E+03  0.00000000000E+00 0.  1.
          2   -1    0    0  501    0 -0.00000000000E+00 -0.00000000000E+00 -0.36490674074E+03  0.36490674074E+03  0.00000000000E+00 0. -1.
          2    1    1    2  501    0 -0.15553659904E+02 -0.22377577958E+02  0.41080442601E+03  0.41170735816E+03  0.00000000000E+00 0.  1.
          2    1    1    2  502    0  0.15553659904E+02  0.22377577958E+02 -0.36394583470E+03  0.36496471464E+03  0.00000000000E+00 0. -1.
</event>
<event>
 4    1  0.9360795E+003  0.2563693E+02  0.7546771E-02  0.1461803E+00
          2   -1    0    0  501    0  0.00000000000E+00  0.00000000000E+00  0.41166470882E+03  0.41166470882E+03  0.00000000000E+00 0. -1.
          2   -1    0    0  502    0 -0.00000000000E+00 -0.00000000000E+00 -0.10566390004E+03  0.10566390004E+03  0.00000000000E+00 0.  1.
          2    1    1    2  501    0  0.24660810474E+02  0.70068950582E+01 -0.10370226523E+03  0.10682421058E+03  0.00000000000E+00 0.  1.
          2    1    1    2  502    0 -0.24660810474E+02 -0.70068950582E+01  0.40970307401E+03  0.41050439828E+03  0.00000000000E+00 0. -1.
</event>
<event>
 4    1  0.9360795E+003  0.3000233E+02  0.7546771E-02  0.1419576E+00
          2   -1    0    0  501    0  0.00000000000E+00  0.00000000000E+00  0.96178391269E+02  0.96178391269E+02  0.00000000000E+00 0. -1.
          2   -1    0    0  502    0 -0.00000000000E+00 -0.00000000000E+00 -0.35356314994E+03  0.35356314994E+03  0.00000000000E+00 0.  1.
          2    1    1    2  501    0 -0.85967711738E+01  0.28744312489E+02 -0.35056694486E+03  0.35184843727E+03  0.00000000000E+00 0.  1.
          2    1    1    2  502    0  0.85967711738E+01 -0.28744312489E+02  0.93182186195E+02  0.97893103941E+02  0.00000000000E+00 0. -1.
</event>
<event>
 4    1  0.9360795E+003  0.3267962E+02  0.7546771E-02  0.1397654E+00
          2   -1    0    0  501    0  0.00000000000E+00  0.00000000000E+00  0.31277034587E+00  0.31277034587E+00  0.00000000000E+00 0. -1.
          2   -1    0    0  502    0 -0.00000000000E+00 -0.00000000000E+00 -0.35599904858E+04  0.35599904858E+04  0.00000000000E+00 0. -1.
          2    1    1    2  501    0 -0.31860667629E+02  0.72701829954E+01 -0.14199786253E+04  0.14203546227E+04  0.00000000000E+00 0. -1.
          2    1    1    2  502    0  0.31860667629E+02 -0.72701829954E+01 -0.21396990901E+04  0.21399486335E+04  0.00000000000E+00 0. -1.
</event>
<event>
 4    1  0.9360795E+003  0.2529630E+02  0.7546771E-02  0.1465516E+00
          2   -1    0    0  501    0  0.00000000000E+00  0.00000000000E+00  0.27911501607E+02  0.27911501607E+02  0.00000000000E+00 0. -1.
          2   -1    0    0  502    0 -0.00000000000E+00 -0.00000000000E+00 -0.23449782514E+02  0.23449782514E+02  0.00000000000E+00 0. -1.
          2    1    1    2  501    0 -0.24925060586E+02  0.43178630108E+01 -0.16067427768E+01  0.25347272211E+02  0.00000000000E+00 0. -1.
          2    1    1    2  502    0  0.24925060586E+02 -0.43178630108E+01  0.60684618700E+01  0.26014011910E+02  0.00000000000E+00 0. -1.
</event>
<event>
 4    1  0.9360795E+003  0.1025929E+03  0.7546771E-02  0.1159389E+00
          2   -1    0    0  502    0  0.00000000000E+00  0.00000000000E+00  0.17830686205E+03  0.17830686205E+03  0.00000000000E+00 0. -1.
          2   -1    0    0  501    0 -0.00000000000E+00 -0.00000000000E+00 -0.60696382377E+02  0.60696382377E+02  0.00000000000E+00 0.  1.
          2    1    1    2  501    0  0.48656296553E+02 -0.90320908026E+02  0.78610981582E+02  0.12924777772E+03  0.00000000000E+00 0.  1.
          2    1    1    2  502    0 -0.48656296553E+02  0.90320908026E+02  0.38999498095E+02  0.10975546671E+03  0.00000000000E+00 0. -1.
</event>
<event>
 4    1  0.9360795E+003  0.4632738E+02  0.7546771E-02  0.1314932E+00
          2   -1    0    0  502    0  0.00000000000E+00  0.00000000000E+00  0.46939392276E+03  0.46939392276E+03  0.00000000000E+00 0. -1.
          2   -1    0    0  501    0 -0.00000000000E+00 -0.00000000000E+00 -0.74572558470E+03  0.74572558470E+03  0.00000000000E+00 0.  1.
          2    1    1    2  501    0  0.17215982970E+02  0.43009724182E+02  0.46752846559E+03  0.46981814842E+03  0.00000000000E+00 0. -1.
          2    1    1    2  502    0 -0.17215982970E+02 -0.43009724182E+02 -0.74386012754E+03  0.74530135904E+03  0.00000000000E+00 0.  1.
</event>
<event>
 4    1  0.9360795E+003  0.1123967E+03  0.7546771E-02  0.1143904E+00
          2   -1    0    0  501    0  0.00000000000E+00  0.00000000000E+00  0.13009862483E+04  0.13009862483E+04  0.00000000000E+00 0. -1.
          2   -1    0    0  502    0 -0.00000000000E+00 -0.00000000000E+00 -0.71158515078E+03  0.71158515078E+03  0.00000000000E+00 0. -1.
          2    1    1    2  501    0 -0.19127675203E+02  0.11075716609E+03 -0.70469564492E+03  0.71360280953E+03  0.00000000000E+00 0. -1.
          2    1    1    2  502    0  0.19127675203E+02 -0.11075716609E+03  0.12940967425E+04  0.12989685896E+04  0.00000000000E+00 0. -1.
</event>
<event>
 4    1  0.9360795E+003  0.2203171E+02  0.7546771E-02  0.1505029E+00
          2   -1    0    0  502    0  0.00000000000E+00  0.00000000000E+00  0.72302861250E+03  0.72302861250E+03  0.00000000000E+00 0. -1.
          2   -1    0    0  501    0 -0.00000000000E+00 -0.00000000000E+00 -0.20187196110E+01  0.20187196110E+01  0.00000000000E+00 0.  1.
          2    1    1    2  501    0 -0.21968217971E+02 -0.16714293907E+01  0.65667676923E+03  0.65704625067E+03  0.00000000000E+00 0. -1.
          2    1    1    2  502    0  0.21968217971E+02  0.16714293907E+01  0.64333123657E+02  0.68001081436E+02  0.00000000000E+00 0.  1.
</event>
<event>
 4    1  0.9360795E+003  0.2666043E+02  0.7546771E-02  0.1451049E+00
          2   -1    0    0  502    0  0.00000000000E+00  0.00000000000E+00  0.80627845931E+03  0.80627845931E+03  0.00000000000E+00 0.  1.
          2   -1    0    0  501    0 -0.00000000000E+00 -0.00000000000E+00 -0.64283405444E+01  0.64283405444E+01  0.00000000000E+00 0. -1.
          2    1    1    2  501    0 -0.20502862186E+02  0.17041458827E+02  0.77738872565E+03  0.77784574913E+03  0.00000000000E+00 0.  1.
          2    1    1    2  502    0  0.20502862186E+02 -0.17041458827E+02  0.22461393117E+02  0.34861050723E+02  0.00000000000E+00 0. -1.
</event>
<event>
 4    1  0.9360795E+003  0.2398235E+02  0.7546771E-02  0.1480518E+00
          2   -1    0    0  501    0  0.00000000000E+00  0.00000000000E+00  0.57235271063E+01  0.57235271063E+01  0.00000000000E+00 0.  1.
          2   -1    0    0  502    0 -0.00000000000E+00 -0.00000000000E+00 -0.16888405068E+03  0.16888405068E+03  0.00000000000E+00 0.  1.
          2    1    1    2  501    0 -0.23973260738E+02  0.66007980572E+00 -0.13713873768E+03  0.13921992066E+03  0.00000000000E+00 0.  1.
          2    1    1    2  502    0  0.23973260738E+02 -0.66007980572E+00 -0.26021785888E+02  0.35387657122E+02  0.00000000000E+00 0.  1.
</event>
<event>
 4    1  0.9360795E+003  0.2534473E+02  0.7546771E-02  0.1464984E+00
          2   -1    0    0  501    0  0.00000000000E+00  0.00000000000E+00  0.97668915330E+01  0.97668915330E+01  0.00000000000E+00 0.  1.
          2   -1    0    0  502    0 -0.00000000000E+00 -0.00000000000E+00 -0.14770188040E+04  0.14770188040E+04  0.00000000000E+00 0. -1.
          2    1    1    2  501    0 -0.10852336464E+02 -0.22903754218E+02 -0.14602794551E+04  0.14604993811E+04  0.00000000000E+00 0. -1.
          2    1    1    2  502    0  0.10852336464E+02  0.22903754218E+02 -0.69724573281E+01  0.26286314409E+02  0.00000000000E+00 0.  1.
</event>
<event>
 4    1  0.9360795E+003  0.4014424E+02  0.7546771E-02  0.1347643E+00
          2   -1    0    0  502    0  0.00000000000E+00  0.00000000000E+00  0.14640594720E+04  0.14640594720E+04  0.00000000000E+00 0.  1.
          2   -1    0    0  501    0 -0.00000000000E+00 -0.00000000000E+00 -0.30934232301E+02  0.30934232301E+02  0.00000000000E+00 0.  1.
          2    1    1    2  501    0 -0.37282128722E+02  0.14886325000E+02  0.14506397426E+04  0.14511951015E+04  0.00000000000E+00 0.  1.
          2    1    1    2  502    0  0.37282128722E+02 -0.14886325000E+02 -0.17514502916E+02  0.43798602791E+02  0.00000000000E+00 0.  1.
</event>
<event>
 4    1  0.9360795E+003  0.2273574E+02  0.7546771E-02  0.1495843E+00
          2   -1    0    0  502    0  0.00000000000E+00  0.00000000000E+00  0.31524457537E+03  0.31524457537E+03  0.00000000000E+00 0.  1.
          2   -1    0    0  501    0 -0.00000000000E+00 -0.00000000000E+00 -0.82217064239E+02  0.82217064239E+02  0.00000000000E+00 0. -1.
          2    1    1    2  501    0 -0.27731360006E+01  0.22565983881E+02  0.31325286762E+03  0.31407685840E+03  0.00000000000E+00 0.  1.
          2    1    1    2  502    0  0.27731360006E+01 -0.22565983881E+02 -0.80225356493E+02  0.83384781202E+02  0.00000000000E+00 0. -1.
</event>
<event>
 4    1  0.9360795E+003  0.4043517E+02  0.7546771E-02  0.1345954E+00
          2   -1    0    0  501    0  0.00000000000E+00  0.00000000000E+00  0.17876413632E+03  0.17876413632E+03  0.00000000000E+00 0.  1.
          2   -1    0    0  502    0 -0.00000000000E+00 -0.00000000000E+00 -0.14150438305E+03  0.14150438305E+03  0.00000000000E+00 0.  1.
          2    1    1    2  501    0  0.40243469676E+02  0.39326650163E+01 -0.13624279809E+03  0.14211651114E+03  0.00000000000E+00 0.  1.
          2    1    1    2  502    0 -0.40243469676E+02 -0.39326650163E+01  0.17350255137E+03  0.17815200823E+03  0.00000000000E+00 0.  1.
</event>
<event>
 4    1  0.9360795E+003  0.4119380E+02  0.7546771E-02  0.1341629E+00
          2   -1    0    0  501    0  0.00000000000E+00  0.00000000000E+00  0.14833780916E+04  0.14833780916E+04  0.00000000000E+00 0.  1.
          2   -1    0    0  502    0 -0.00000000000E+00 -0.00000000000E+00 -0.99852238834E+01  0.99852238834E+01  0.00000000000E+00 0.  1.
          2    1    1    2  501    0  0.40652945052E+02 -0.66533672955E+01  0.34087465011E+02  0.53468537558E+02  0.00000000000E+00 0.  1.
          2    1    1    2  502    0 -0.40652945052E+02  0.66533672955E+01  0.14393054027E+04  0.14398947779E+04  0.00000000000E+00 0.  1.
</event>
<event>
 4    1  0.9360795E+003  0.5980099E+02  0.7546771E-02  0.1260510E+00
          2   -1    0    0  502    0  0.00000000000E+00  0.00000000000E+00  0.18105345788E+04  0.18105345788E+04  0.00000000000E+00 0. -1.
          2   -1    0    0  501    0 -0.00000000000E+00 -0.00000000000E+00 -0.76443023236E+03  0.76443023236E+03  0.00000000000E+00 0.  1.
          2    1    1    2  501    0  0.25544669925E+02  0.54070588967E+02  0.18088701538E+04  0.18098583900E+04  0.00000000000E+00 0. -1.
          2    1    1    2  502    0 -0.25544669925E+02 -0.54070588967E+02 -0.76276580735E+03  0.76510642110E+03  0.00000000000E+00 0.  1.
</event>
<event>
 4    1  0.9360795E+003  0.2044808E+02  0.7546771E-02  0.1527293E+00
          2   -1    0    0  501    0  0.00000000000E+00  0.00000000000E+00  0.27577907878E+02  0.27577907878E+02  0.00000000000E+00 0.  1.
          2   -1    0    0  502    0 -0.00000000000E+00 -0.00000000000E+00 -0.37542448871E+03  0.37542448871E+03  0.00000000000E+00 0. -1.
          2    1    1    2  501    0 -0.98101379198E+01  0.17941159021E+02 -0.37131373456E+03  0.37187634163E+03  0.00000000000E+00 0. -1.
          2    1    1    2  502    0  0.98101379198E+01 -0.17941159021E+02  0.23467153728E+02  0.31126054956E+02  0.00000000000E+00 0.  1.
</event>
<event>
 4    1  0.9360795E+003  0.4432374E+02  0.7546771E-02  0.1324856E+00
          2   -1    0    0  502    0  0.00000000000E+00  0.00000000000E+00  0.13121002729E+04  0.13121002729E+04  0.00000000000E+00 0.  1.
          2   -1    0    0  501    0 -0.00000000000E+00 -0.00000000000E+00 -0.33572294651E+03  0.33572294651E+03  0.00000000000E+00 0.  1.
          2    1    1    2  501    0 -0.37591912126E+02  0.23482805247E+02  0.13102609396E+04  0.13110104210E+04  0.00000000000E+00 0.  1.
          2    1    1    2  502    0  0.37591912126E+02 -0.23482805247E+02 -0.33388361323E+03  0.33681279843E+03  0.00000000000E+00 0.  1.
</event>
<event>
 4    1  0.9360795E+003  0.4725082E+02  0.7546771E-02  0.1310553E+00
          2   -1    0    0  501    0  0.00000000000E+00  0.00000000000E+00  0.15616446599E+04  0.15616446599E+04  0.00000000000E+00 0. -1.
          2   -1    0    0  502    0 -0.00000000000E+00 -0.00000000000E+00 -0.89011975141E+01  0.89011975141E+01  0.00000000000E+00 0. -1.
          2    1    1    2  501    0 -0.45726479724E+01  0.47029038335E+02  0.56921012889E+02  0.73977302360E+02  0.00000000000E+00 0. -1.
          2    1    1    2  502    0  0.45726479724E+01 -0.47029038335E+02  0.14958224495E+04  0.14965685550E+04  0.00000000000E+00 0. -1.
</event>
<event>
 4    1  0.9360795E+003  0.2126842E+02  0.7546771E-02  0.1515467E+00
          2   -1    0    0  501    0  0.00000000000E+00  0.00000000000E+00  0.28864881827E+01  0.28864881827E+01  0.00000000000E+00 0.  1.
          2   -1    0    0  502    0 -0.00000000000E+00 -0.00000000000E+00 -0.15299977837E+04  0.15299977837E+04  0.00000000000E+00 0. -1.
          2    1    1    2  501    0  0.17114760270E+02 -0.12626588829E+02 -0.14896858817E+04  0.14898376998E+04  0.00000000000E+00 0. -1.
          2    1    1    2  502    0 -0.17114760270E+02  0.12626588829E+02 -0.37425413852E+02  0.43046572065E+02  0.00000000000E+00 0.  1.
</event>
<event>
 4    1  0.9360795E+003  0.2467724E+02  0.7546771E-02  0.1472447E+00
          2   -1    0    0  501    0  0.00000000000E+00  0.00000000000E+00  0.11052478809E+03  0.11052478809E+03  0.00000000000E+00 0.  1.
          2   -1    0    0  502    0 -0.00000000000E+00 -0.00000000000E+00 -0.25044938538E+02  0.25044938538E+02  0.00000000000E+00 0. -1.
          2    1    1    2  501    0 -0.19975883588E+02  0.14488970531E+02 -0.17126223591E+02  0.30037871541E+02  0.00000000000E+00 0. -1.
          2    1    1    2  502    0  0.19975883588E+02 -0.14488970531E+02  0.10260607314E+03  0.10553185508E+03  0.00000000000E+00 0.  1.
</event>
<event>
 4    1  0.9360795E+003  0.2140999E+02  0.7546771E-02  0.1513491E+00
          2   -1    0    0  502    0  0.00000000000E+00  0.00000000000E+00  0.72131698280E+03  0.72131698280E+03  0.00000000000E+00 0. -1.
          2   -1    0    0  501    0 -0.00000000000E+00 -0.00000000000E+00 -0.36404216306E+03  0.36404216306E+03  0.00000000000E+00 0. -1.
          2    1    1    2  501    0  0.20602619793E+02  0.58240737289E+01  0.72084311378E+03  0.72116099622E+03  0.00000000000E+00 0. -1.
          2    1    1    2  502    0 -0.20602619793E+02 -0.58240737289E+01 -0.36356829404E+03  0.36419814965E+03  0.00000000000E+00 0. -1.
</event>
<event>
 4    1  0.9360795E+003  0.9872655E+02  0.7546771E-02  0.1166033E+00
          2   -1    0    0  502    0  0.00000000000E+00  0.00000000000E+00  0.76824851122E+03  0.76824851122E+03  0.00000000000E+00 0. -1.
          2   -1    0    0  501    0 -0.00000000000E+00 -0.00000000000E+00 -0.26655650664E+03  0.26655650664E+03  0.00000000000E+00 0.  1.
          2    1    1    2  501    0 -0.48386944004E+01 -0.98607899129E+02  0.75578507197E+03  0.76220601267E+03  0.00000000000E+00 0. -1.
          2    1    1    2  502    0  0.48386944004E+01  0.98607899129E+02 -0.25409306740E+03  0.27259900519E+03  0.00000000000E+00 0.  1.
</event>
<event>
 4    1  0.9360795E+003  0.2618639E+02  0.7546771E-02  0.1455957E+00
          2   -1    0    0  501    0  0.00000000000E+00  0.00000000000E+00  0.32614695951E+02  0.32614695951E+02  0.00000000000E+00 0. -1.
          2   -1    0    0  502    0 -0.00000000000E+00 -0.00000000000E+00 -0.14869151291E+03  0.14869151291E+03  0.00000000000E+00 0.  1.
          2    1    1    2  501    0 -0.70307539138E+00 -0.26176945694E+02 -0.14203814853E+03  0.14443186089E+03  0.00000000000E+00 0.  1.
          2    1    1    2  502    0  0.70307539138E+00  0.26176945694E+02  0.25961331578E+02  0.36874347969E+02  0.00000000000E+00 0. -1.
</event>
<event>
 4    1  0.9360795E+003  0.2009234E+02  0.7546771E-02  0.1532629E+00
          2   -1    0    0  502    0  0.00000000000E+00  0.00000000000E+00  0.10160888506E+04  0.10160888506E+04  0.00000000000E+00 0.  1.
          2   -1    0    0  501    0 -0.00000000000E+00 -0.00000000000E+00 -0.54012843287E+01  0.54012843287E+01  0.00000000000E+00 0.  1.
          2    1    1    2  501    0 -0.19594756901E+02  0.44438501231E+01  0.99694527942E+03  0.99714772850E+03  0.00000000000E+00 0.  1.
          2    1    1    2  502    0  0.19594756901E+02 -0.44438501231E+01  0.13742286817E+02  0.24342406391E+02  0.00000000000E+00 0.  1.
</event>
<event>
 4    1  0.9360795E+003  0.2322740E+02  0.7546771E-02  0.1489662E+00
          2   -1    0    0  502    0  0.00000000000E+00  0.00000000000E+00  0.99527090680E+02  0.99527090680E+02  0.00000000000E+00 0. -1.
          2   -1    0    0  501    0 -0.00000000000E+00 -0.00000000000E+00 -0.13230674365E+02  0.13230674365E+02  0.00000000000E+00 0. -1.
          2    1    1    2  501    0  0.19397487058E+02 -0.12776914455E+02  0.86464246339E+02  0.89529760092E+02  0.00000000000E+00 0. -1.
          2    1    1    2  502    0 -0.19397487058E+02  0.12776914455E+02 -0.16783002533E+00  0.23228004953E+02  0.00000000000E+00 0. -1.
</event>
<event>
 4    1  0.9360795E+003  0.3831277E+02  0.7546771E-02  0.1358667E+00
          2   -1    0    0  501    0  0.00000000000E+00  0.00000000000E+00  0.17034325625E+03  0.17034325625E+03  0.00000000000E+00 0.  1.
          2   -1    0    0  502    0 -0.00000000000E+00 -0.00000000000E+00 -0.15874243911E+02  0.15874243911E+02  0.00000000000E+00 0.  1.
          2    1    1    2  501    0 -0.29291646869E+02  0.24695506241E+02  0.14280092378E+02  0.40887524297E+02  0.00000000000E+00 0.  1.
          2    1    1    2  502    0  0.29291646869E+02 -0.24695506241E+02  0.14018891996E+03  0.14532997586E+03  0.00000000000E+00 0.  1.
</event>
<event>
 4    1  0.9360796E+003  0.2937803E+02  0.7546771E-02  0.1425079E+00
          2   -1    0    0  501    0  0.00000000000E+00  0.00000000000E+00  0.38575321282E+03  0.38575321282E+03  0.00000000000E+00 0.  1.
          2   -1    0    0  502    0 -0.00000000000E+00 -0.00000000000E+00 -0.88016719654E+03  0.88016719654E+03  0.00000000000E+00 0. -1.
          2    1    1    2  501    0  0.26237881863E+02 -0.13215232505E+02 -0.87936220122E+03  0.87985280004E+03  0.00000000000E+00 0. -1.
          2    1    1    2  502    0 -0.26237881863E+02  0.13215232505E+02  0.38494821750E+03  0.38606760932E+03  0.00000000000E+00 0.  1.
</event>
<event>
 4    1  0.9360795E+003  0.5434553E+02  0.7546771E-02  0.1280357E+00
          2   -1    0    0  501    0  0.00000000000E+00  0.00000000000E+00  0.11407034787E+04  0.11407034787E+04  0.00000000000E+00 0.  1.
          2   -1    0    0  502    0 -0.00000000000E+00 -0.00000000000E+00 -0.59786378599E+02  0.59786378599E+02  0.00000000000E+00 0. -1.
          2    1    1    2  501    0 -0.19630328843E+02  0.50676298489E+02 -0.46645288394E+02  0.71618572790E+02  0.00000000000E+00 0. -1.
          2    1    1    2  502    0  0.19630328843E+02 -0.50676298489E+02  0.11275623885E+04  0.11288712845E+04  0.00000000000E+00 0.  1.
</event>
<event>
 4    1  0.9360795E+003  0.2594929E+02  0.7546771E-02  0.1458458E+00
          2   -1    0    0  502    0  0.00000000000E+00  0.00000000000E+00  0.27838206580E+02  0.27838206580E+02  0.00000000000E+00 0. -1.
          2   -1    0    0  501    0 -0.00000000000E+00 -0.00000000000E+00 -0.10998259274E+03  0.10998259274E+03  0.00000000000E+00 0.  1.
          2    1    1    2  501    0  0.25800066861E+02  0.27788914553E+01  0.19790529146E+02  0.32634808589E+02  0.00000000000E+00 0. -1.
          2    1    1    2  502    0 -0.25800066861E+02 -0.27788914553E+01 -0.10193491531E+03  0.10518599074E+03  0.00000000000E+00 0.  1.
</event>
<event>
 4    1  0.9360795E+003  0.5052613E+02  0.7546771E-02  0.1295907E+00
          2   -1    0    0  501    0  0.00000000000E+00  0.00000000000E+00  0.27733738267E+01  0.27733738267E+01  0.00000000000E+00 0. -1.
          2   -1    0    0  502    0 -0.00000000000E+00 -0.00000000000E+00 -0.15876130462E+04  0.15876130462E+04  0.00000000000E+00 0. -1.
          2    1    1    2  501    0 -0.44764855378E+02 -0.23430707184E+02 -0.13078859074E+04  0.13088615042E+04  0.00000000000E+00 0. -1.
          2    1    1    2  502    0  0.44764855378E+02  0.23430707184E+02 -0.27695376493E+03  0.28152491582E+03  0.00000000000E+00 0. -1.
</event>
<event>
 4    1  0.9360795E+003  0.2695322E+02  0.7546771E-02  0.1448079E+00
          2   -1    0    0  501    0  0.00000000000E+00  0.00000000000E+00  0.63036864640E+01  0.63036864640E+01  0.00000000000E+00 0. -1.
          2   -1    0    0  502    0 -0.00000000000E+00 -0.00000000000E+00 -0.69506704612E+03  0.69506704612E+03  0.00000000000E+00 0. -1.
          2    1    1    2  501    0  0.21447057395E+01 -0.26867753600E+02 -0.66467745110E+03  0.66522371421E+03  0.00000000000E+00 0. -1.
          2    1    1    2  502    0 -0.21447057395E+01  0.26867753600E+02 -0.24085908550E+02  0.36147018368E+02  0.00000000000E+00 0. -1.
</event>
<event>
 4    1  0.9360795E+003  0.3171551E+02  0.7546771E-02  0.1405252E+00
          2   -1    0    0  502    0  0.00000000000E+00  0.00000000000E+00  0.95814436990E+01  0.95814436990E+01  0.00000000000E+00 0. -1.
          2   -1    0    0  501    0 -0.00000000000E+00 -0.00000000000E+00 -0.11581866188E+03  0.11581866188E+03  0.00000000000E+00 0. -1.
          2    1    1    2  501    0 -0.10002772465E+02 -0.30096816814E+02 -0.33939101859E+02  0.46451442112E+02  0.00000000000E+00 0. -1.
          2    1    1    2  502    0  0.10002772465E+02  0.30096816814E+02 -0.72298116319E+02  0.78948663464E+02  0.00000000000E+00 0. -1.
</event>
<event>
 4    1  0.9360795E+003  0.1088593E+03  0.7546771E-02  0.1149282E+00
          2   -1    0    0  501    0  0.00000000000E+00  0.00000000000E+00  0.93866966128E+03  0.93866966128E+03  0.00000000000E+00 0.  1.
          2   -1    0    0  502    0 -0.00000000000E+00 -0.00000000000E+00 -0.19929618179E+03  0.19929618179E+03  0.00000000000E+00 0. -1.
          2    1    1    2  501    0 -0.14826834863E+02  0.10784480608E+03 -0.18097998657E+03  0.21119681051E+03  0.00000000000E+00 0. -1.
          2    1    1    2  502    0  0.14826834863E+02 -0.10784480608E+03  0.92035346606E+03  0.92676903256E+03  0.00000000000E+00 0.  1.
</event>
<event>
 4    1  0.9360795E+003  0.2331336E+02  0.7546771E-02  0.1488600E+00
          2   -1    0    0  501    0  0.00000000000E+00  0.00000000000E+00  0.44765488338E+03  0.44765488338E+03  0.00000000000E+00 0. -1.
          2   -1    0    0  502    0 -0.00000000000E+00 -0.00000000000E+00 -0.16488052647E+01  0.16488052647E+01  0.00000000000E+00 0.  1.
          2    1    1    2  501    0  0.96924486618E+01 -0.21203050051E+02  0.10765614447E+03  0.11015152443E+03  0.00000000000E+00 0.  1.
          2    1    1    2  502    0 -0.96924486618E+01  0.21203050051E+02  0.33834993365E+03  0.33915216421E+03  0.00000000000E+00 0. -1.
</event>
<event>
 4    1  0.9360795E+003  0.5613933E+02  0.7546771E-02  0.1273546E+00
          2   -1    0    0  502    0  0.00000000000E+00  0.00000000000E+00  0.89532452373E+03  0.89532452373E+03  0.00000000000E+00 0. -1.
          2   -1    0    0  501    0 -0.00000000000E+00 -0.00000000000E+00 -0.13845427927E+02  0.13845427927E+02  0.00000000000E+00 0. -1.
          2    1    1    2  501    0  0.20020679058E+00 -0.56138975123E+02  0.83330672352E+03  0.83519561785E+03  0.00000000000E+00 0. -1.
          2    1    1    2  502    0 -0.20020679058E+00  0.56138975123E+02  0.48172372280E+02  0.73974333804E+02  0.00000000000E+00 0. -1.
</event>
<event>
 4    1  0.9360795E+003  0.2214651E+02  0.7546771E-02  0.1503503E+00
          2   -1    0    0  502    0  0.00000000000E+00  0.00000000000E+00  0.38934590955E+02  0.38934590955E+02  0.00000000000E+00 0.  1.
          2   -1    0    0  501    0 -0.00000000000E+00 -0.00000000000E+00 -0.31723292595E+02  0.31723292595E+02  0.00000000000E+00 0.  1.
          2    1    1    2  501    0 -0.21048640996E+02 -0.68864148549E+01  0.31037447989E+02  0.38128613599E+02  0.00000000000E+00 0.  1.
          2    1    1    2  502    0  0.21048640996E+02  0.68864148549E+01 -0.23826149629E+02  0.32529269950E+02  0.00000000000E+00 0.  1.
</event>
<event>
 4    1  0.9360795E+003  0.2025991E+02  0.7546771E-02  0.1530099E+00
          2   -1    0    0  502    0  0.00000000000E+00  0.00000000000E+00  0.30430461621E+01  0.30430461621E+01  0.00000000000E+00 0.  1.
          2   -1    0    0  501    0 -0.00000000000E+00 -0.00000000000E+00 -0.15212943560E+03  0.15212943560E+03  0.00000000000E+00 0.  1.
          2    1    1    2  501    0  0.18481709634E+02  0.83000165620E+01 -0.48422069490E+02  0.52489624495E+02  0.00000000000E+00 0.  1.
          2    1    1    2  502    0 -0.18481709634E+02 -0.83000165620E+01 -0.10066431994E+03  0.10268285726E+03  0.00000000000E+00 0.  1.
</event>
<event>
 4    1  0.9360795E+003  0.2295172E+02  0.7546771E-02  0.1493105E+00
          2   -1    0    0  501    0  0.00000000000E+00  0.00000000000E+00  0.24908297111E+03  0.24908297111E+03  0.00000000000E+00 0. -1.
          2   -1    0    0  502    0 -0.00000000000E+00 -0.00000000000E+00 -0.14288695132E+04  0.14288695132E+04  0.00000000000E+00 0.  1.
          2    1    1    2  501    0 -0.26296602733E+01 -0.22800573825E+02 -0.14282483951E+04  0.14284327983E+04  0.00000000000E+00 0.  1.
          2    1    1    2  502    0  0.26296602733E+01  0.22800573825E+02  0.24846185301E+03  0.24951968596E+03  0.00000000000E+00 0. -1.
</event>
<event>
 4    1  0.9360795E+003  0.2128183E+02  0.7546771E-02  0.1515279E+00
          2   -1    0    0  501    0  0.00000000000E+00  0.00000000000E+00  0.15576491418E+04  0.15576491418E+04  0.00000000000E+00 0. -1.
          2   -1    0    0  502    0 -0.00000000000E+00 -0.00000000000E+00 -0.31485251337E+00  0.31485251337E+00  0.00000000000E+00 0. -1.
          2    1    1    2  501    0 -0.97429112507E+01 -0.18920670642E+02  0.56322350359E+03  0.56362543510E+03  0.00000000000E+00 0. -1.
          2    1    1    2  502    0  0.97429112507E+01  0.18920670642E+02  0.99411078573E+03  0.99433855925E+03  0.00000000000E+00 0. -1.
</event>
<event>
 4    1  0.1406405E+004  0.2845252E+02  0.7546771E-02  0.1433539E+00
          2   -1    0    0  501    0  0.00000000000E+00  0.00000000000E+00  0.65963578747E+03  0.65963578747E+03  0.00000000000E+00 0. -1.
          2   -1    0    0  502    0 -0.00000000000E+00 -0.00000000000E+00 -0.79194877968E+03  0.79194877968E+03  0.00000000000E+00 0. -1.
          2    1    1    2  501    0  0.20894598373E+02 -0.19312221491E+02 -0.79138619098E+03  0.79189749931E+03  0.00000000000E+00 0. -1.
          2    1    1    2  502    0 -0.20894598373E+02  0.19312221491E+02  0.65907319877E+03  0.65968706784E+03  0.00000000000E+00 0. -1.
</event>
<event>
 4    1  0.9360795E+003  0.5391869E+02  0.7546771E-02  0.1282021E+00
          2   -1    0    0  502    0  0.00000000000E+00  0.00000000000E+00  0.59991808427E+03  0.59991808427E+03  0.00000000000E+00 0.  1.
          2   -1    0    0  501    0 -0.00000000000E+00 -0.00000000000E+00 -0.17678650606E+02  0.17678650606E+02  0.00000000000E+00 0. -1.
          2    1    1    2  501    0 -0.23609569012E+02 -0.48474871087E+02  0.55421193843E+03  0.55682860700E+03  0.00000000000E+00 0.  1.
          2    1    1    2  502    0  0.23609569012E+02  0.48474871087E+02  0.28027495226E+02  0.60768127867E+02  0.00000000000E+00 0. -1.
</event>
<event>
 4    1  0.9360795E+003  0.1104485E+03  0.7546771E-02  0.1146838E+00
          2   -1    0    0  502    0  0.00000000000E+00  0.00000000000E+00  0.77328945336E+01  0.77328945336E+01  0.00000000000E+00 0.  1.
          2   -1    0    0  501    0 -0.00000000000E+00 -0.00000000000E+00 -0.36296106568E+04  0.36296106568E+04  0.00000000000E+00 0.  1.
          2    1    1    2  501    0 -0.56376985575E+02 -0.94976402056E+02 -0.44345755169E+03  0.45700490326E+03  0.00000000000E+00 0.  1.
          2    1    1    2  502    0  0.56376985575E+02  0.94976402056E+02 -0.31784202106E+04  0.31803386481E+04  0.00000000000E+00 0.  1.
</event>
<event>
 4    1  0.9360795E+003  0.2413163E+02  0.7546771E-02  0.1478757E+00
          2   -1    0    0  501    0  0.00000000000E+00  0.00000000000E+00  0.97926828347E+03  0.97926828347E+03  0.00000000000E+00 0. -1.
          2   -1    0    0  502    0 -0.00000000000E+00 -0.00000000000E+00 -0.78268848567E+02  0.78268848567E+02  0.00000000000E+00 0. -1.
          2    1    1    2  501    0 -0.21466127528E+02  0.11024566044E+02 -0.76256303208E+02  0.79983494963E+02  0.00000000000E+00 0. -1.
          2    1    1    2  502    0  0.21466127528E+02 -0.11024566044E+02  0.97725573811E+03  0.97755363707E+03  0.00000000000E+00 0. -1.
</event>
<event>
 4    1  0.9360795E+003  0.3343658E+02  0.7546771E-02  0.1391901E+00
          2   -1    0    0  502    0  0.00000000000E+00  0.00000000000E+00  0.12879727020E+04  0.12879727020E+04  0.00000000000E+00 0. -1.
          2   -1    0    0  501    0 -0.00000000000E+00 -0.00000000000E+00 -0.33172667751E+01  0.33172667751E+01  0.00000000000E+00 0.  1.
          2    1    1    2  501    0 -0.21187848234E+02  0.25866577687E+02  0.11971048713E+04  0.11975717422E+04  0.00000000000E+00 0. -1.
          2    1    1    2  502    0  0.21187848234E+02 -0.25866577687E+02  0.87550563893E+02  0.93718226573E+02  0.00000000000E+00 0.  1.
</event>
<event>
 4    1  0.9360795E+003  0.2014372E+02  0.7546771E-02  0.1531850E+00
          2   -1    0    0  501    0  0.00000000000E+00  0.00000000000E+00  0.21626620514E+03  0.21626620514E+03  0.00000000000E+00 0.  1.
          2   -1    0    0  502    0 -0.00000000000E+00 -0.00000000000E+00 -0.10489519883E+04  0.10489519883E+04  0.00000000000E+00 0. -1.
          2    1    1    2  501    0  0.13617528323E+02  0.14843597767E+02 -0.10483859643E+04  0.10485794675E+04  0.00000000000E+00 0. -1.
          2    1    1    2  502    0 -0.13617528323E+02 -0.14843597767E+02  0.21570018110E+03  0.21663872599E+03  0.00000000000E+00 0.  1.
</event>
<event>
 4    1  0.9360795E+003  0.2414030E+02  0.7546771E-02  0.1478655E+00
          2   -1    0    0  501    0  0.00000000000E+00  0.00000000000E+00  0.21224321210E+01  0.21224321210E+01  0.00000000000E+00 0.  1.
          2   -1    0    0  502    0 -0.00000000000E+00 -0.00000000000E+00 -0.50467221286E+03  0.50467221286E+03  0.00000000000E+00 0.  1.
          2    1    1    2  501    0  0.13675741050E+02  0.19892918147E+02 -0.42237829732E+03  0.42306758341E+03  0.00000000000E+00 0.  1.
          2    1    1    2  502    0 -0.13675741050E+02 -0.19892918147E+02 -0.80171483419E+02  0.83727061570E+02  0.00000000000E+00 0.  1.
</event>
<event>
 4    1  0.9360795E+003  0.2039000E+02  0.7546771E-02  0.1528155E+00
          2   -1    0    0  501    0  0.00000000000E+00  0.00000000000E+00  0.57926909987E+03  0.57926909987E+03  0.00000000000E+00 0. -1.
          2   -1    0    0  502    0 -0.00000000000E+00 -0.00000000000E+00 -0.22523909804E+02  0.22523909804E+02  0.00000000000E+00 0.  1.
          2    1    1    2  501    0 -0.20343934403E+02 -0.13698045480E+01 -0.17691106245E+02  0.26994949003E+02  0.00000000000E+00 0.  1.
          2    1    1    2  502    0  0.20343934403E+02  0.13698045480E+01  0.57443629632E+03  0.57479806068E+03  0.00000000000E+00 0. -1.
</event>
<event>
 4    1  0.9360795E+003  0.3205593E+02  0.7546771E-02  0.1402533E+00
          2   -1    0    0  501    0  0.00000000000E+00  0.00000000000E+00  0.31266973245E+01  0.31266973245E+01  0.00000000000E+00 0. -1.
          2   -1    0    0  502    0 -0.00000000000E+00 -0.00000000000E+00 -0.98449968506E+03  0.98449968506E+03  0.00000000000E+00 0. -1.
          2    1    1    2  501    0  0.31028220359E+02  0.80518397456E+01 -0.89373539465E+03  0.89431009064E+03  0.00000000000E+00 0. -1.
          2    1    1    2  502    0 -0.31028220359E+02 -0.80518397456E+01 -0.87637593091E+02  0.93316291743E+02  0.00000000000E+00 0. -1.
</event>
<event>
 4    1  0.9360795E+003  0.2291843E+02  0.7546771E-02  0.1493525E+00
          2   -1    0    0  501    0  0.00000000000E+00  0.00000000000E+00  0.46084299304E+03  0.46084299304E+03  0.00000000000E+00 0.  1.
          2   -1    0    0  502    0 -0.00000000000E+00 -0.00000000000E+00 -0.14790861619E+01  0.14790861619E+01  0.00000000000E+00 0. -1.
          2    1    1    2  501    0 -0.19821729243E+02  0.11504502250E+02  0.11896328254E+03  0.12115080320E+03  0.00000000000E+00 0. -1.
          2    1    1    2  502    0  0.19821729243E+02 -0.11504502250E+02  0.34040062434E+03  0.34117127600E+03  0.00000000000E+00 0.  1.
</event>
<event>
 4    1  0.9360795E+003  0.2060134E+02  0.7546771E-02  0.1525033E+00
          2   -1    0    0  501    0  0.00000000000E+00  0.00000000000E+00  0.97183402005E+02  0.97183402005E+02  0.00000000000E+00 0.  1.
          2   -1    0    0  502    0 -0.00000000000E+00 -0.00000000000E+00 -0.14274286755E+04  0.14274286755E+04  0.00000000000E+00 0. -1.
          2    1    1    2  501    0 -0.19425142351E+02  0.68614201330E+01 -0.14262616607E+04  0.14264104388E+04  0.00000000000E+00 0. -1.
          2    1    1    2  502    0  0.19425142351E+02 -0.68614201330E+01  0.96016387163E+02  0.98201638710E+02  0.00000000000E+00 0.  1.
</event>
<event>
 4    1  0.9360795E+003  0.2271269E+02  0.7546771E-02  0.1496138E+00
          2   -1    0    0  502    0  0.00000000000E+00  0.00000000000E+00  0.55278799995E+03  0.55278799995E+03  0.00000000000E+00 0.  1.
          2   -1    0    0  501    0 -0.00000000000E+00 -0.00000000000E+00 -0.45085901790E+01  0.45085901790E+01  0.00000000000E+00 0.  1.
          2    1    1    2  501    0 -0.19340434241E+02  0.11908555768E+02  0.52227997742E+03  0.52277360388E+03  0.00000000000E+00 0.  1.
          2    1    1    2  502    0  0.19340434241E+02 -0.11908555768E+02  0.25999432350E+02  0.34522986250E+02  0.00000000000E+00 0.  1.
</event>
<event>
 4    1  0.9360795E+003  0.3060495E+02  0.7546771E-02  0.1414411E+00
          2   -1    0    0  502    0  0.00000000000E+00  0.00000000000E+00  0.26504522795E+03  0.26504522795E+03  0.00000000000E+00 0. -1.
          2   -1    0    0  501    0 -0.00000000000E+00 -0.00000000000E+00 -0.58179038578E+01  0.58179038578E+01  0.00000000000E+00 0. -1.
          2    1    1    2  501    0  0.18145247115E+02  0.24645743874E+02  0.21446879227E+03  0.21664146774E+03  0.00000000000E+00 0. -1.
          2    1    1    2  502    0 -0.18145247115E+02 -0.24645743874E+02  0.44758531815E+02  0.54221664067E+02  0.00000000000E+00 0. -1.
</event>
<event>
 4    1  0.9360795E+003  0.2388674E+02  0.7546771E-02  0.1481654E+00
          2   -1    0    0  501    0  0.00000000000E+00  0.00000000000E+00  0.82723844034E+00  0.82723844034E+00  0.00000000000E+00 0.  1.
          2   -1    0    0  502    0 -0.00000000000E+00 -0.00000000000E+00 -0.86420609286E+03  0.86420609286E+03  0.00000000000E+00 0.  1.
          2    1    1    2  501    0 -0.17430507773E+02 -0.16332603092E+02 -0.62602579911E+03  0.62648134663E+03  0.00000000000E+00 0.  1.
          2    1    1    2  502    0  0.17430507773E+02  0.16332603092E+02 -0.23735305530E+03  0.23855198466E+03  0.00000000000E+00 0.  1.
</event>
<event>
 4    1  0.9360795E+003  0.2121585E+02  0.7546771E-02  0.1516205E+00
          2   -1    0    0  501    0  0.00000000000E+00  0.00000000000E+00  0.62872289180E+00  0.62872289180E+00  0.00000000000E+00 0. -1.
          2   -1    0    0  502    0 -0.00000000000E+00 -0.00000000000E+00 -0.13809249251E+04  0.13809249251E+04  0.00000000000E+00 0.  1.
          2    1    1    2  501    0 -0.89933568189E+01 -0.19215408660E+02 -0.11695134734E+04  0.11697058933E+04  0.00000000000E+00 0.  1.
          2    1    1    2  502    0  0.89933568189E+01  0.19215408660E+02 -0.21078272881E+03  0.21184775467E+03  0.00000000000E+00 0. -1.
</event>
<event>
 4    1  0.9360795E+003  0.3570520E+02  0.7546771E-02  0.1375672E+00
          2   -1    0    0  501    0  0.00000000000E+00  0.00000000000E+00  0.10467788306E+02  0.10467788306E+02  0.00000000000E+00 0.  1.
          2   -1    0    0  502    0 -0.00000000000E+00 -0.00000000000E+00 -0.62767911154E+03  0.62767911154E+03  0.00000000000E+00 0.  1.
          2    1    1    2  501    0 -0.19295718115E+02  0.30042243160E+02 -0.59505639599E+03  0.59612664386E+03  0.00000000000E+00 0.  1.
          2    1    1    2  502    0  0.19295718115E+02 -0.30042243160E+02 -0.22154927238E+02  0.42020255980E+02  0.00000000000E+00 0.  1.
</event>
<event>
 4    1  0.9360795E+003  0.2744359E+02  0.7546771E-02  0.1443202E+00
          2   -1    0    0  501    0  0.00000000000E+00  0.00000000000E+00  0.12848880641E+02  0.12848880641E+02  0.00000000000E+00 0. -1.
          2   -1    0    0  502    0 -0.00000000000E+00 -0.00000000000E+00 -0.35105254223E+03  0.35105254223E+03  0.00000000000E+00 0.  1.
          2    1    1    2  501    0 -0.25341518656E+02 -0.10533656143E+02 -0.33516888749E+03  0.33629054941E+03  0.00000000000E+00 0.  1.
          2    1    1    2  502    0  0.25341518656E+02  0.10533656143E+02 -0.30347740986E+01  0.27610873462E+02  0.00000000000E+00 0. -1.
</event>
<event>
 4    1  0.9360795E+003  0.3178691E+02  0.7546771E-02  0.1404678E+00
          2   -1    0    0  501    0  0.00000000000E+00  0.00000000000E+00  0.45495909872E+03  0.45495909872E+03  0.00000000000E+00 0. -1.
          2   -1    0    0  502    0 -0.00000000000E+00 -0.00000000000E+00 -0.19209193854E+02  0.19209193854E+02  0.00000000000E+00 0.  1.
          2    1    1    2  501    0  0.28822846934E+02 -0.13403410298E+02 -0.50830827390E+01  0.32190769533E+02  0.00000000000E+00 0.  1.
          2    1    1    2  502    0 -0.28822846934E+02  0.13403410298E+02  0.44083298761E+03  0.44197752304E+03  0.00000000000E+00 0. -1.
</event>
<event>
 4    1  0.9360795E+003  0.2535896E+02  0.7546771E-02  0.1464827E+00
          2   -1    0    0  501    0  0.00000000000E+00  0.00000000000E+00  0.40692778244E+02  0.40692778244E+02  0.00000000000E+00 0.  1.
          2   -1    0    0  502    0 -0.00000000000E+00 -0.00000000000E+00 -0.26602161526E+03  0.26602161526E+03  0.00000000000E+00 0.  1.
          2    1    1    2  501    0  0.21269442816E+02 -0.13808976094E+02 -0.26139672524E+03  0.26262392310E+03  0.00000000000E+00 0.  1.
          2    1    1    2  502    0 -0.21269442816E+02  0.13808976094E+02  0.36067888230E+02  0.44090470397E+02  0.00000000000E+00 0.  1.
</event>
<event>
 4    1  0.9360795E+003  0.2572622E+02  0.7546771E-02  0.1460841E+00
          2   -1    0    0  501    0  0.00000000000E+00  0.00000000000E+00  0.41479589927E+03  0.41479589927E+03  0.00000000000E+00 0. -1.
          2   -1    0    0  502    0 -0.00000000000E+00 -0.00000000000E+00 -0.17531615922E+01  0.17531615922E+01  0.00000000000E+00 0. -1.
          2    1    1    2  501    0 -0.21746986437E+01 -0.25634136814E+02  0.14407836772E+03  0.14635714649E+03  0.00000000000E+00 0. -1.
          2    1    1    2  502    0  0.21746986437E+01  0.25634136814E+02  0.26896436996E+03  0.27019191437E+03  0.00000000000E+00 0. -1.
</event>
<event>
 4    1  0.9360795E+003  0.2648814E+02  0.7546771E-02  0.1452819E+00
          2   -1    0    0  501    0  0.00000000000E+00  0.00000000000E+00  0.54113286673E+02  0.54113286673E+02  0.00000000000E+00 0. -1.
          2   -1    0    0  502    0 -0.00000000000E+00 -0.00000000000E+00 -0.17194210311E+04  0.17194210311E+04  0.00000000000E+00 0.  1.
          2    1    1    2  501    0  0.24653578800E+02 -0.96861985072E+01 -0.17160712430E+04  0.17162756575E+04  0.00000000000E+00 0.  1.
          2    1    1    2  502    0 -0.24653578800E+02  0.96861985072E+01  0.50763498585E+02  0.57258660286E+02  0.00000000000E+00 0. -1.
</event>
<event>
 4    1  0.9360795E+003  0.7551180E+02  0.7546771E-02  0.1214669E+00
          2   -1    0    0  502    0  0.00000000000E+00  0.00000000000E+00  0.34533272144E+02  0.34533272144E+02  0.00000000000E+00 0.  1.
          2   -1    0    0  501    0 -0.00000000000E+00 -0.00000000000E+00 -0.17938120255E+03  0.17938120255E+03  0.00000000000E+00 0.  1.
          2    1    1    2  501    0  0.27053001458E+01  0.75463323402E+02 -0.42263031308E+02  0.86534361054E+02  0.00000000000E+00 0.  1.
          2    1    1    2  502    0 -0.27053001458E+01 -0.75463323402E+02 -0.10258489910E+03  0.12738011364E+03  0.00000000000E+00 0.  1.
</event>
<event>
 4    1  0.9360795E+003  0.2769823E+02  0.7546771E-02  0.1440718E+00
          2   -1    0    0  501    0  0.00000000000E+00  0.00000000000E+00  0.95915604881E+01  0.95915604881E+01  0.00000000000E+00 0.  1.
          2   -1    0    0  502    0 -0.00000000000E+00 -0.00000000000E+00 -0.85270169075E+03  0.85270169075E+03  0.00000000000E+00 0.  1.
          2    1    1    2  501    0 -0.26823290575E+02  0.69067246019E+01 -0.83198238311E+03  0.83244331793E+03  0.00000000000E+00 0.  1.
          2    1    1    2  502    0  0.26823290575E+02 -0.69067246019E+01 -0.11127747158E+02  0.29849933314E+02  0.00000000000E+00 0.  1.
</event>
<event>
 4    1  0.9360795E+003  0.3128197E+02  0.7546771E-02  0.1408774E+00
          2   -1    0    0  502    0  0.00000000000E+00  0.00000000000E+00  0.34377769758E+01  0.34377769758E+01  0.00000000000E+00 0.  1.
          2   -1    0    0  501    0 -0.00000000000E+00 -0.00000000000E+00 -0.17778497197E+04  0.17778497197E+04  0.00000000000E+00 0.  1.
          2    1    1    2  501    0  0.12104999523E+02 -0.28844937537E+02 -0.70970385095E+02  0.77558732555E+02  0.00000000000E+00 0.  1.
          2    1    1    2  502    0 -0.12104999523E+02  0.28844937537E+02 -0.17034415577E+04  0.17037287642E+04  0.00000000000E+00 0.  1.
</event>
<event>
 4    1  0.9360795E+003  0.4038318E+02  0.7546771E-02  0.1346255E+00
          2   -1    0    0  501    0  0.00000000000E+00  0.00000000000E+00  0.81181913808E+01  0.81181913808E+01  0.00000000000E+00 0.  1.
          2   -1    0    0  502    0 -0.00000000000E+00 -0.00000000000E+00 -0.67578004270E+03  0.67578004270E+03  0.00000000000E+00 0.  1.
          2    1    1    2  501    0 -0.39047269663E+02  0.10301050293E+02 -0.62048548992E+03  0.62179823424E+03  0.00000000000E+00 0.  1.
          2    1    1    2  502    0  0.39047269663E+02 -0.10301050293E+02 -0.47176361404E+02  0.62099999844E+02  0.00000000000E+00 0.  1.
</event>
<event>
 4    1  0.9360795E+003  0.2088045E+02  0.7546771E-02  0.1520979E+00
          2   -1    0    0  501    0  0.00000000000E+00  0.00000000000E+00  0.51782781901E+03  0.51782781901E+03  0.00000000000E+00 0. -1.
          2   -1    0    0  502    0 -0.00000000000E+00 -0.00000000000E+00 -0.33415901519E+02  0.33415901519E+02  0.00000000000E+00 0. -1.
          2    1    1    2  501    0  0.21335471625E+01  0.20771166370E+02 -0.29921386646E+02  0.36486747658E+02  0.00000000000E+00 0. -1.
          2    1    1    2  502    0 -0.21335471625E+01 -0.20771166370E+02  0.51433330413E+03  0.51475697287E+03  0.00000000000E+00 0. -1.
</event>
<event>
 4    1  0.9360795E+003  0.2260091E+02  0.7546771E-02  0.1497571E+00
          2   -1    0    0  501    0  0.00000000000E+00  0.00000000000E+00  0.11540265296E+02  0.11540265296E+02  0.00000000000E+00 0.  1.
          2   -1    0    0  502    0 -0.00000000000E+00 -0.00000000000E+00 -0.13550648133E+04  0.13550648133E+04  0.00000000000E+00 0. -1.
          2    1    1    2  501    0 -0.22035314043E+02 -0.50245467278E+01 -0.13438122936E+04  0.13440023369E+04  0.00000000000E+00 0. -1.
          2    1    1    2  502    0  0.22035314043E+02  0.50245467278E+01  0.28774560221E+00  0.22602741699E+02  0.00000000000E+00 0.  1.
</event>
<event>
 4    1  0.9360795E+003  0.2637549E+02  0.7546771E-02  0.1453984E+00
          2   -1    0    0  501    0  0.00000000000E+00  0.00000000000E+00  0.10086049667E+04  0.10086049667E+04  0.00000000000E+00 0. -1.
          2   -1    0    0  502    0 -0.00000000000E+00 -0.00000000000E+00 -0.11884705037E+02  0.11884705037E+02  0.00000000000E+00 0. -1.
          2    1    1    2  501    0  0.79959330272E+01 -0.25134274600E+02  0.31426710155E+01  0.26562061022E+02  0.00000000000E+00 0. -1.
          2    1    1    2  502    0 -0.79959330272E+01  0.25134274600E+02  0.99357759061E+03  0.99392761068E+03  0.00000000000E+00 0. -1.
</event>
<event>
 4    1  0.9360795E+003  0.4578998E+02  0.7546771E-02  0.1317536E+00
          2   -1    0    0  502    0  0.00000000000E+00  0.00000000000E+00  0.25077688456E+02  0.25077688456E+02  0.00000000000E+00 0.  1.
          2   -1    0    0  501    0 -0.00000000000E+00 -0.00000000000E+00 -0.31280753774E+03  0.31280753774E+03  0.00000000000E+00 0. -1.
          2    1    1    2  501    0 -0.32506542428E+02  0.32249762049E+02  0.74777984686E+00  0.45796087469E+02  0.00000000000E+00 0.  1.
          2    1    1    2  502    0  0.32506542428E+02 -0.32249762049E+02 -0.28847762913E+03  0.29208913873E+03  0.00000000000E+00 0. -1.
</event>
<event>
 4    1  0.9360795E+003  0.5076785E+02  0.7546771E-02  0.1294877E+00
          2   -1    0    0  502    0  0.00000000000E+00  0.00000000000E+00  0.48783186662E+03  0.48783186662E+03  0.00000000000E+00 0. -1.
          2   -1    0    0  501    0 -0.00000000000E+00 -0.00000000000E+00 -0.73901455537E+03  0.73901455537E+03  0.00000000000E+00 0.  1.
          2    1    1    2  501    0  0.47503939413E+01 -0.50545111679E+02  0.48563520639E+03  0.48828160752E+03  0.00000000000E+00 0. -1.
          2    1    1    2  502    0 -0.47503939413E+01  0.50545111679E+02 -0.73681789514E+03  0.73856481446E+03  0.00000000000E+00 0.  1.
</event>
<event>
 4    1  0.9360795E+003  0.4201410E+02  0.7546771E-02  0.1337071E+00
          2   -1    0    0  502    0  0.00000000000E+00  0.00000000000E+00  0.14811137699E+03  0.14811137699E+03  0.00000000000E+00 0.  1.
          2   -1    0    0  501    0 -0.00000000000E+00 -0.00000000000E+00 -0.15978796569E+02  0.15978796569E+02  0.00000000000E+00 0.  1.
          2    1    1    2  501    0  0.34431064087E+02 -0.24076683293E+02  0.10742705134E+03  0.11535057959E+03  0.00000000000E+00 0.  1.
          2    1    1    2  502    0 -0.34431064087E+02  0.24076683293E+02  0.24705529075E+02  0.48739593961E+02  0.00000000000E+00 0.  1.
</event>
<event>
 4    1  0.9360795E+003  0.2096897E+02  0.7546771E-02  0.1519708E+00
          2   -1    0    0  501    0  0.00000000000E+00  0.00000000000E+00  0.48298784089E+03  0.48298784089E+03  0.00000000000E+00 0. -1.
          2   -1    0    0  502    0 -0.00000000000E+00 -0.00000000000E+00 -0.14366638650E+03  0.14366638650E+03  0.00000000000E+00 0.  1.
          2    1    1    2  501    0  0.55402737559E+01  0.20223821676E+02 -0.14267207984E+03  0.14420478481E+03  0.00000000000E+00 0.  1.
          2    1    1    2  502    0 -0.55402737559E+01 -0.20223821676E+02  0.48199353423E+03  0.48244944257E+03  0.00000000000E+00 0. -1.
</event>
<event>
 4    1  0.9360795E+003  0.2123464E+02  0.7546771E-02  0.1515941E+00
          2   -1    0    0  501    0  0.00000000000E+00  0.00000000000E+00  0.17485822442E+03  0.17485822442E+03  0.00000000000E+00 0.  1.
          2   -1    0    0  502    0 -0.00000000000E+00 -0.00000000000E+00 -0.15992405640E+02  0.15992405640E+02  0.00000000000E+00 0. -1.
          2    1    1    2  501    0  0.63579540001E+00  0.21225116440E+02 -0.79609304016E+01  0.22677879454E+02  0.00000000000E+00 0. -1.
          2    1    1    2  502    0 -0.63579540001E+00 -0.21225116440E+02  0.16682674918E+03  0.16817275060E+03  0.00000000000E+00 0.  1.
</event>
<event>
 4    1  0.9360795E+003  0.2138429E+02  0.7546771E-02  0.1513848E+00
          2   -1    0    0  501    0  0.00000000000E+00  0.00000000000E+00  0.48893339575E+03  0.48893339575E+03  0.00000000000E+00 0.  1.
          2   -1    0    0  502    0 -0.00000000000E+00 -0.00000000000E+00 -0.40885602737E+03  0.40885602737E+03  0.00000000000E+00 0. -1.
          2    1    1    2  501    0 -0.74946165374E+01  0.20027947747E+02 -0.40834229996E+03  0.40890184874E+03  0.00000000000E+00 0. -1.
          2    1    1    2  502    0  0.74946165374E+01 -0.20027947747E+02  0.48841966834E+03  0.48888757438E+03  0.00000000000E+00 0.  1.
</event>
<event>
 4    1  0.9360795E+003  0.2546272E+02  0.7546771E-02  0.1463693E+00
          2   -1    0    0  502    0  0.00000000000E+00  0.00000000000E+00  0.14375180857E+01  0.14375180857E+01  0.00000000000E+00 0. -1.
          2   -1    0    0  501    0 -0.00000000000E+00 -0.00000000000E+00 -0.50733086656E+03  0.50733086656E+03  0.00000000000E+00 0. -1.
          2    1    1    2  501    0 -0.25197454172E+02  0.36658661647E+01 -0.16819695587E+03  0.17011339229E+03  0.00000000000E+00 0. -1.
          2    1    1    2  502    0  0.25197454172E+02 -0.36658661647E+01 -0.33769639260E+03  0.33865499236E+03  0.00000000000E+00 0. -1.
</event>
<event>
 4    1  0.9360795E+003  0.2587036E+02  0.7546771E-02  0.1459298E+00
          2   -1    0    0  502    0  0.00000000000E+00  0.00000000000E+00  0.19715332736E+02  0.19715332736E+02  0.00000000000E+00 0. -1.
          2   -1    0    0  501    0 -0.00000000000E+00 -0.00000000000E+00 -0.16514266619E+04  0.16514266619E+04  0.00000000000E+00 0. -1.
          2    1    1    2  501    0  0.11672593347E+02  0.23087361797E+02  0.11082679806E+02  0.28144297857E+02  0.00000000000E+00 0. -1.
          2    1    1    2  502    0 -0.11672593347E+02 -0.23087361797E+02 -0.16427940090E+04  0.16429976968E+04  0.00000000000E+00 0. -1.
</event>
<event>
 4    1  0.9360795E+003  0.9644141E+02  0.7546771E-02  0.1170121E+00
          2   -1    0    0  501    0  0.00000000000E+00  0.00000000000E+00  0.26574444384E+04  0.26574444384E+04  0.00000000000E+00 0.  1.
          2   -1    0    0  502    0 -0.00000000000E+00 -0.00000000000E+00 -0.47372125019E+03  0.47372125019E+03  0.00000000000E+00 0. -1.
          2    1    1    2  501    0  0.43950254445E+02  0.85844743397E+02 -0.46792709045E+03  0.47776218646E+03  0.00000000000E+00 0. -1.
          2    1    1    2  502    0 -0.43950254445E+02 -0.85844743397E+02  0.26516502787E+04  0.26534035022E+04  0.00000000000E+00 0.  1.
</event>
<event>
 4    1  0.9360795E+003  0.2173668E+02  0.7546771E-02  0.1509002E+00
          2   -1    0    0  502    0  0.00000000000E+00  0.00000000000E+00  0.17909479058E+04  0.17909479058E+04  0.00000000000E+00 0. -1.
          2   -1    0    0  501    0 -0.00000000000E+00 -0.00000000000E+00 -0.26405181428E+00  0.26405181428E+00  0.00000000000E+00 0.  1.
          2    1    1    2  501    0  0.12499065845E+02  0.17783600860E+02  0.86865349055E+03  0.86892541093E+03  0.00000000000E+00 0. -1.
          2    1    1    2  502    0 -0.12499065845E+02 -0.17783600860E+02  0.92203036340E+03  0.92228654665E+03  0.00000000000E+00 0.  1.
</event>
<event>
 4    1  0.9360795E+003  0.2309816E+02  0.7546771E-02  0.1491269E+00
          2   -1    0    0  501    0  0.00000000000E+00  0.00000000000E+00  0.14942398152E+03  0.14942398152E+03  0.00000000000E+00 0. -1.
          2   -1    0    0  502    0 -0.00000000000E+00 -0.00000000000E+00 -0.12524590758E+03  0.12524590758E+03  0.00000000000E+00 0. -1.
          2    1    1    2  501    0  0.21544610107E+02 -0.83279434355E+01 -0.12327416258E+03  0.12541947228E+03  0.00000000000E+00 0. -1.
          2    1    1    2  502    0 -0.21544610107E+02  0.83279434355E+01  0.14745223652E+03  0.14925041682E+03  0.00000000000E+00 0. -1.
</event>
<event>
 4    1  0.9360795E+003  0.3498078E+02  0.7546771E-02  0.1380698E+00
          2   -1    0    0  501    0  0.00000000000E+00  0.00000000000E+00  0.43820088742E+02  0.43820088742E+02  0.00000000000E+00 0.  1.
          2   -1    0    0  502    0 -0.00000000000E+00 -0.00000000000E+00 -0.40519067710E+02  0.40519067710E+02  0.00000000000E+00 0. -1.
          2    1    1    2  501    0  0.17386495248E+02 -0.30353985392E+02 -0.21859939414E+02  0.41249382994E+02  0.00000000000E+00 0. -1.
          2    1    1    2  502    0 -0.17386495248E+02  0.30353985392E+02  0.25160960445E+02  0.43089773459E+02  0.00000000000E+00 0.  1.
</event>
<event>
 4    1  0.9360795E+003  0.2260400E+02  0.7546771E-02  0.1497532E+00
          2   -1    0    0  502    0  0.00000000000E+00  0.00000000000E+00  0.21365946398E+03  0.21365946398E+03  0.00000000000E+00 0. -1.
          2   -1    0    0  501    0 -0.00000000000E+00 -0.00000000000E+00 -0.33801914427E+02  0.33801914427E+02  0.00000000000E+00 0.  1.
          2    1    1    2  501    0 -0.15120752150E+02  0.16801891782E+02  0.20920240953E+03  0.21042002962E+03  0.00000000000E+00 0. -1.
          2    1    1    2  502    0  0.15120752150E+02 -0.16801891782E+02 -0.29344859974E+02  0.37041348787E+02  0.00000000000E+00 0.  1.
</event>
<event>
 4    1  0.9360795E+003  0.2268559E+02  0.7546771E-02  0.1496484E+00
          2   -1    0    0  502    0  0.00000000000E+00  0.00000000000E+00  0.23988608072E+02  0.23988608072E+02  0.00000000000E+00 0. -1.
          2   -1    0    0  501    0 -0.00000000000E+00 -0.00000000000E+00 -0.10202791436E+04  0.10202791436E+04  0.00000000000E+00 0.  1.
          2    1    1    2  501    0  0.13870341199E+02  0.17951309779E+02  0.18470006112E+02  0.29253666668E+02  0.00000000000E+00 0. -1.
          2    1    1    2  502    0 -0.13870341199E+02 -0.17951309779E+02 -0.10147605417E+04  0.10150140850E+04  0.00000000000E+00 0.  1.
</event>
<event>
 4    1  0.9360795E+003  0.2699992E+02  0.7546771E-02  0.1447609E+00
          2   -1    0    0  501    0  0.00000000000E+00  0.00000000000E+00  0.66070449904E+02  0.66070449904E+02  0.00000000000E+00 0.  1.
          2   -1    0    0  502    0 -0.00000000000E+00 -0.00000000000E+00 -0.93591179751E+02  0.93591179751E+02  0.00000000000E+00 0. -1.
          2    1    1    2  501    0  0.25129661512E+02  0.98739841415E+01 -0.88737968651E+02  0.92754636169E+02  0.00000000000E+00 0. -1.
          2    1    1    2  502    0 -0.25129661512E+02 -0.98739841415E+01  0.61217238804E+02  0.66906993486E+02  0.00000000000E+00 0.  1.
</event>
<event>
 4    1  0.9360795E+003  0.2242115E+02  0.7546771E-02  0.1499898E+00
          2   -1    0    0  502    0  0.00000000000E+00  0.00000000000E+00  0.50707858897E+02  0.50707858897E+02  0.00000000000E+00 0.  1.
          2   -1    0    0  501    0 -0.00000000000E+00 -0.00000000000E+00 -0.27914010506E+03  0.27914010506E+03  0.00000000000E+00 0.  1.
          2    1    1    2  501    0  0.17254065065E+02  0.14317998510E+02  0.47752702922E+02  0.52754416677E+02  0.00000000000E+00 0.  1.
          2    1    1    2  502    0 -0.17254065065E+02 -0.14317998510E+02 -0.27618494909E+03  0.27709354728E+03  0.00000000000E+00 0.  1.
</event>
<event>
 4    1  0.9360795E+003  0.3036191E+02  0.7546771E-02  0.1416477E+00
          2   -1    0    0  502    0  0.00000000000E+00  0.00000000000E+00  0.43581017075E+02  0.43581017075E+02  0.00000000000E+00 0.  1.
          2   -1    0    0  501    0 -0.00000000000E+00 -0.00000000000E+00 -0.85692722480E+02  0.85692722480E+02  0.00000000000E+00 0.  1.
          2    1    1    2  501    0  0.15584144327E+02  0.26057245371E+02  0.35039091409E+02  0.46363601213E+02  0.00000000000E+00 0.  1.
          2    1    1    2  502    0 -0.15584144327E+02 -0.26057245371E+02 -0.77150796814E+02  0.82910138341E+02  0.00000000000E+00 0.  1.
</event>
<event>
 4    1  0.9360795E+003  0.2006204E+02  0.7546771E-02  0.1533089E+00
          2   -1    0    0  502    0  0.00000000000E+00  0.00000000000E+00  0.11290563395E+01  0.11290563395E+01  0.00000000000E+00 0. -1.
          2   -1    0    0  501    0 -0.00000000000E+00 -0.00000000000E+00 -0.77045684100E+03  0.77045684100E+03  0.00000000000E+00 0.  1.
          2    1    1    2  501    0  0.20044420560E+02 -0.84073061116E+00 -0.10187110566E+03  0.10382777948E+03  0.00000000000E+00 0. -1.
          2    1    1    2  502    0 -0.20044420560E+02  0.84073061116E+00 -0.66745667900E+03  0.66775811786E+03  0.00000000000E+00 0.  1.
</event>
<event>
 4    1  0.9360795E+003  0.2442057E+02  0.7546771E-02  0.1475391E+00
          2   -1    0    0  502    0  0.00000000000E+00  0.00000000000E+00  0.21984634830E+02  0.21984634830E+02  0.00000000000E+00 0. -1.
          2   -1    0    0  501    0 -0.00000000000E+00 -0.00000000000E+00 -0.20195945297E+03  0.20195945297E+03  0.00000000000E+00 0.  1.
          2    1    1    2  501    0  0.14155725421E+02  0.19899232008E+02  0.14193773700E+02  0.28245835242E+02  0.00000000000E+00 0. -1.
          2    1    1    2  502    0 -0.14155725421E+02 -0.19899232008E+02 -0.19416859184E+03  0.19569825256E+03  0.00000000000E+00 0.  1.
</event>
<event>
 4    1  0.9360795E+003  0.2091430E+02  0.7546771E-02  0.1520492E+00
          2   -1    0    0  501    0  0.00000000000E+00  0.00000000000E+00  0.33414259000E+00  0.33414259000E+00  0.00000000000E+00 0. -1.
          2   -1    0    0  502    0 -0.00000000000E+00 -0.00000000000E+00 -0.18747481145E+04  0.18747481145E+04  0.00000000000E+00 0. -1.
          2    1    1    2  501    0  0.20500587699E+02 -0.41393103644E+01 -0.14522136002E+04  0.14523641928E+04  0.00000000000E+00 0. -1.
          2    1    1    2  502    0 -0.20500587699E+02  0.41393103644E+01 -0.42220037174E+03  0.42271806430E+03  0.00000000000E+00 0. -1.
</event>
<event>
 4    1  0.9360795E+003  0.2166574E+02  0.7546771E-02  0.1509968E+00
          2   -1    0    0  502    0  0.00000000000E+00  0.00000000000E+00  0.73201844422E+02  0.73201844422E+02  0.00000000000E+00 0.  1.
          2   -1    0    0  501    0 -0.00000000000E+00 -0.00000000000E+00 -0.57326480473E+02  0.57326480473E+02  0.00000000000E+00 0.  1.
          2    1    1    2  501    0  0.26973155250E+01  0.21497185572E+02  0.69443442196E+02  0.72744732885E+02  0.00000000000E+00 0.  1.
          2    1    1    2  502    0 -0.26973155250E+01 -0.21497185572E+02 -0.53568078247E+02  0.57783592010E+02  0.00000000000E+00 0.  1.
</event>
<event>
 4    1  0.9360795E+003  0.3429234E+02  0.7546771E-02  0.1385608E+00
          2   -1    0    0  502    0  0.00000000000E+00  0.00000000000E+00  0.11170660673E+02  0.11170660673E+02  0.00000000000E+00 0.  1.
          2   -1    0    0  501    0 -0.00000000000E+00 -0.00000000000E+00 -0.20630059860E+03  0.20630059860E+03  0.00000000000E+00 0. -1.
          2    1    1    2  501    0 -0.30634031503E+02  0.15411701196E+02 -0.21472352383E+02  0.40460182114E+02  0.00000000000E+00 0.  1.
          2    1    1    2  502    0  0.30634031503E+02 -0.15411701196E+02 -0.17365758554E+03  0.17701107715E+03  0.00000000000E+00 0. -1.
</event>
<event>
 4    1  0.1378081E+004  0.3748555E+02  0.7546771E-02  0.1363886E+00
          2   -1    0    0  501    0  0.00000000000E+00  0.00000000000E+00  0.10206680832E+04  0.10206680832E+04  0.00000000000E+00 0. -1.
          2   -1    0    0  502    0 -0.00000000000E+00 -0.00000000000E+00 -0.16549543286E+04  0.16549543286E+04  0.00000000000E+00 0.  1.
          2    1    1    2  501    0 -0.37394898695E+02  0.26053848814E+01 -0.16543977680E+04  0.16548223897E+04  0.00000000000E+00 0.  1.
          2    1    1    2  502    0  0.37394898695E+02 -0.26053848814E+01  0.10201115226E+04  0.10208000221E+04  0.00000000000E+00 0. -1.
</event>
<event>
 4    1  0.9360795E+003  0.2025980E+02  0.7546771E-02  0.1530101E+00
          2   -1    0    0  502    0  0.00000000000E+00  0.00000000000E+00  0.35300414954E+01  0.35300414954E+01  0.00000000000E+00 0. -1.
          2   -1    0    0  501    0 -0.00000000000E+00 -0.00000000000E+00 -0.12804064473E+04  0.12804064473E+04  0.00000000000E+00 0. -1.
          2    1    1    2  501    0  0.18634308834E+02  0.79512220421E+01 -0.26312764250E+02  0.33208748248E+02  0.00000000000E+00 0. -1.
          2    1    1    2  502    0 -0.18634308834E+02 -0.79512220421E+01 -0.12505636416E+04  0.12507277406E+04  0.00000000000E+00 0. -1.
</event>
<event>
 4    1  0.9360795E+003  0.2087008E+02  0.7546771E-02  0.1521128E+00
          2   -1    0    0  502    0  0.00000000000E+00  0.00000000000E+00  0.89081111142E+03  0.89081111142E+03  0.00000000000E+00 0. -1.
          2   -1    0    0  501    0 -0.00000000000E+00 -0.00000000000E+00 -0.69907557735E+01  0.69907557735E+01  0.00000000000E+00 0. -1.
          2    1    1    2  501    0 -0.17755847318E+02  0.10967684302E+02  0.87482804482E+03  0.87507694988E+03  0.00000000000E+00 0. -1.
          2    1    1    2  502    0  0.17755847318E+02 -0.10967684302E+02  0.89923108316E+01  0.22724917316E+02  0.00000000000E+00 0. -1.
</event>
<event>
 4    1  0.9360795E+003  0.4376798E+02  0.7546771E-02  0.1327716E+00
          2   -1    0    0  502    0  0.00000000000E+00  0.00000000000E+00  0.59964907877E+01  0.59964907877E+01  0.00000000000E+00 0.  1.
          2   -1    0    0  501    0 -0.00000000000E+00 -0.00000000000E+00 -0.33675172924E+03  0.33675172924E+03  0.00000000000E+00 0. -1.
          2    1    1    2  501    0 -0.19903258835E+02 -0.38980720910E+02 -0.20421187803E+03  0.20884953302E+03  0.00000000000E+00 0. -1.
          2    1    1    2  502    0  0.19903258835E+02  0.38980720910E+02 -0.12654336042E+03  0.13389868700E+03  0.00000000000E+00 0.  1.
</event>
<event>
 4    1  0.9360795E+003  0.2603554E+02  0.7546771E-02  0.1457544E+00
          2   -1    0    0  501    0  0.00000000000E+00  0.00000000000E+00  0.99660853197E+01  0.99660853197E+01  0.00000000000E+00 0. -1.
          2   -1    0    0  502    0 -0.00000000000E+00 -0.00000000000E+00 -0.25616131685E+03  0.25616131685E+03  0.00000000000E+00 0. -1.
          2    1    1    2  501    0 -0.41606620435E+01 -0.25700936071E+02 -0.23713572263E+03  0.23856068447E+03  0.00000000000E+00 0. -1.
          2    1    1    2  502    0  0.41606620435E+01  0.25700936071E+02 -0.90595088975E+01  0.27566717705E+02  0.00000000000E+00 0. -1.
</event>
<event>
 4    1  0.9360795E+003  0.2169525E+02  0.7546771E-02  0.1509566E+00
          2   -1    0    0  502    0  0.00000000000E+00  0.00000000000E+00  0.12949094935E+02  0.12949094935E+02  0.00000000000E+00 0. -1.
          2   -1    0    0  501    0 -0.00000000000E+00 -0.00000000000E+00 -0.84789029460E+03  0.84789029460E+03  0.00000000000E+00 0. -1.
          2    1    1    2  501    0  0.30444628290E+01  0.21480573960E+02  0.36220622564E+01  0.21995525603E+02  0.00000000000E+00 0. -1.
          2    1    1    2  502    0 -0.30444628290E+01 -0.21480573960E+02 -0.83856326193E+03  0.83884386394E+03  0.00000000000E+00 0. -1.
</event>
<event>
 4    1  0.9360795E+003  0.2106502E+02  0.7546771E-02  0.1518338E+00
          2   -1    0    0  501    0  0.00000000000E+00  0.00000000000E+00  0.60002823166E+02  0.60002823166E+02  0.00000000000E+00 0.  1.
          2   -1    0    0  502    0 -0.00000000000E+00 -0.00000000000E+00 -0.53555778378E+03  0.53555778378E+03  0.00000000000E+00 0.  1.
          2    1    1    2  501    0 -0.20317323569E+02 -0.55625181172E+01 -0.53349469016E+03  0.53391040416E+03  0.00000000000E+00 0.  1.
          2    1    1    2  502    0  0.20317323569E+02  0.55625181172E+01  0.57939729539E+02  0.61650202789E+02  0.00000000000E+00 0.  1.
</event>
<event>
 4    1  0.9360795E+003  0.2343538E+02  0.7546771E-02  0.1487102E+00
          2   -1    0    0  501    0  0.00000000000E+00  0.00000000000E+00  0.14708213322E+02  0.14708213322E+02  0.00000000000E+00 0.  1.
          2   -1    0    0  502    0 -0.00000000000E+00 -0.00000000000E+00 -0.62607794242E+02  0.62607794242E+02  0.00000000000E+00 0.  1.
          2    1    1    2  501    0  0.13087421661E+02 -0.19440592547E+02 -0.48508274241E+02  0.53872719572E+02  0.00000000000E+00 0.  1.
          2    1    1    2  502    0 -0.13087421661E+02  0.19440592547E+02  0.60869332119E+00  0.23443287992E+02  0.00000000000E+00 0.  1.
</event>
<event>
 4    1  0.9360795E+003  0.3406283E+02  0.7546771E-02  0.1387274E+00
          2   -1    0    0  501    0  0.00000000000E+00  0.00000000000E+00  0.44866295800E+01  0.44866295800E+01  0.00000000000E+00 0.  1.
          2   -1    0    0  502    0 -0.00000000000E+00 -0.00000000000E+00 -0.22174549908E+04  0.22174549908E+04  0.00000000000E+00 0. -1.
          2    1    1    2  501    0 -0.25463194406E+02  0.22625257385E+02 -0.21506645929E+04  0.21509343244E+04  0.00000000000E+00 0. -1.
          2    1    1    2  502    0  0.25463194406E+02 -0.22625257385E+02 -0.62303768284E+02  0.71007295988E+02  0.00000000000E+00 0.  1.
</event>
<event>
 4    1  0.9360795E+003  0.3203066E+02  0.7546771E-02  0.1402734E+00
          2   -1    0    0  501    0  0.00000000000E+00  0.00000000000E+00  0.25910432942E+03  0.25910432942E+03  0.00000000000E+00 0.  1.
          2   -1    0    0  502    0 -0.00000000000E+00 -0.00000000000E+00 -0.59557141442E+03  0.59557141442E+03  0.00000000000E+00 0. -1.
          2    1    1    2  501    0 -0.15187080617E+02  0.28201347167E+02 -0.59414846849E+03  0.59501123183E+03  0.00000000000E+00 0. -1.
          2    1    1    2  502    0  0.15187080617E+02 -0.28201347167E+02  0.25768138349E+03  0.25966451201E+03  0.00000000000E+00 0.  1.
</event>
<event>
 4    1  0.9360795E+003  0.2235216E+02  0.7546771E-02  0.1500797E+00
          2   -1    0    0  502    0  0.00000000000E+00  0.00000000000E+00  0.55824094249E+01  0.55824094249E+01  0.00000000000E+00 0. -1.
          2   -1    0    0  501    0 -0.00000000000E+00 -0.00000000000E+00 -0.91194412480E+03  0.91194412480E+03  0.00000000000E+00 0. -1.
          2    1    1    2  501    0 -0.18041975400E+02  0.13194934300E+02 -0.17510482565E+02  0.28394298145E+02  0.00000000000E+00 0. -1.
          2    1    1    2  502    0  0.18041975400E+02 -0.13194934300E+02 -0.88885123281E+03  0.88913223608E+03  0.00000000000E+00 0. -1.
</event>
<event>
 4    1  0.9360795E+003  0.2622848E+02  0.7546771E-02  0.1455516E+00
          2   -1    0    0  501    0  0.00000000000E+00  0.00000000000E+00  0.11538176813E+03  0.11538176813E+03  0.00000000000E+00 0. -1.
          2   -1    0    0  502    0 -0.00000000000E+00 -0.00000000000E+00 -0.11365080149E+03  0.11365080149E+03  0.00000000000E+00 0.  1.
          2    1    1    2  501    0  0.23260156403E+02  0.12120170384E+02 -0.11060651668E+03  0.11367380938E+03  0.00000000000E+00 0.  1.
          2    1    1    2  502    0 -0.23260156403E+02 -0.12120170384E+02  0.11233748332E+03  0.11535876024E+03  0.00000000000E+00 0. -1.
</event>
<event>
 4    1  0.9360795E+003  0.2999916E+02  0.7546771E-02  0.1419604E+00
          2   -1    0    0  501    0  0.00000000000E+00  0.00000000000E+00  0.85659036871E+02  0.85659036871E+02  0.00000000000E+00 0.  1.
          2   -1    0    0  502    0 -0.00000000000E+00 -0.00000000000E+00 -0.16087974764E+04  0.16087974764E+04  0.00000000000E+00 0. -1.
          2    1    1    2  501    0  0.29274364405E+02  0.65544699535E+01 -0.16060265514E+04  0.16063067058E+04  0.00000000000E+00 0. -1.
          2    1    1    2  502    0 -0.29274364405E+02 -0.65544699535E+01  0.82888111782E+02  0.88149807501E+02  0.00000000000E+00 0.  1.
</event>
<event>
 4    1  0.9360795E+003  0.2268703E+02  0.7546771E-02  0.1496466E+00
          2   -1    0    0  502    0  0.00000000000E+00  0.00000000000E+00  0.69121418070E+01  0.69121418070E+01  0.00000000000E+00 0.  1.
          2   -1    0    0  501    0 -0.00000000000E+00 -0.00000000000E+00 -0.40873800761E+03  0.40873800761E+03  0.00000000000E+00 0.  1.
          2    1    1    2  501    0  0.12420308431E+02 -0.18985179945E+02 -0.12969493331E+02  0.26132525257E+02  0.00000000000E+00 0.  1.
          2    1    1    2  502    0 -0.12420308431E+02  0.18985179945E+02 -0.38885637247E+03  0.38951762416E+03  0.00000000000E+00 0.  1.
</event>
<event>
 4    1  0.9360795E+003  0.3817976E+02  0.7546771E-02  0.1359496E+00
          2   -1    0    0  501    0  0.00000000000E+00  0.00000000000E+00  0.61933290932E+03  0.61933290932E+03  0.00000000000E+00 0. -1.
          2   -1    0    0  502    0 -0.00000000000E+00 -0.00000000000E+00 -0.20727304328E+04  0.20727304328E+04  0.00000000000E+00 0.  1.
          2    1    1    2  501    0  0.16162690427E+02 -0.34589905019E+02 -0.20719659846E+04  0.20723177207E+04  0.00000000000E+00 0.  1.
          2    1    1    2  502    0 -0.16162690427E+02  0.34589905019E+02  0.61856846117E+03  0.61974562140E+03  0.00000000000E+00 0. -1.
</event>
<event>
 4    1  0.9360795E+003  0.2861205E+02  0.7546771E-02  0.1432054E+00
          2   -1    0    0  502    0  0.00000000000E+00  0.00000000000E+00  0.62249082508E+00  0.62249082508E+00  0.00000000000E+00 0.  1.
          2   -1    0    0  501    0 -0.00000000000E+00 -0.00000000000E+00 -0.20978778653E+04  0.20978778653E+04  0.00000000000E+00 0.  1.
          2    1    1    2  501    0 -0.15874068867E+02 -0.23804696004E+02 -0.40770904664E+03  0.40871177659E+03  0.00000000000E+00 0.  1.
          2    1    1    2  502    0  0.15874068867E+02  0.23804696004E+02 -0.16895463279E+04  0.16897885796E+04  0.00000000000E+00 0.  1.
</event>
<event>
 4    1  0.9360795E+003  0.4457499E+02  0.7546771E-02  0.1323578E+00
          2   -1    0    0  501    0  0.00000000000E+00  0.00000000000E+00  0.96960431741E+03  0.96960431741E+03  0.00000000000E+00 0.  1.
          2   -1    0    0  502    0 -0.00000000000E+00 -0.00000000000E+00 -0.28747785180E+01  0.28747785180E+01  0.00000000000E+00 0.  1.
          2    1    1    2  501    0 -0.42002538127E+02  0.14923702680E+02  0.22279580971E+03  0.22721114175E+03  0.00000000000E+00 0.  1.
          2    1    1    2  502    0  0.42002538127E+02 -0.14923702680E+02  0.74393372918E+03  0.74526795418E+03  0.00000000000E+00 0.  1.
</event>
<event>
 4    1  0.9360795E+003  0.3182128E+02  0.7546771E-02  0.1404403E+00
          2   -1    0    0  501    0  0.00000000000E+00  0.00000000000E+00  0.48221492431E+03  0.48221492431E+03  0.00000000000E+00 0. -1.
          2   -1    0    0  502    0 -0.00000000000E+00 -0.00000000000E+00 -0.52439340640E+02  0.52439340640E+02  0.00000000000E+00 0. -1.
          2    1    1    2  501    0  0.28838874943E+02  0.13450385069E+02 -0.47032235208E+02  0.56785779163E+02  0.00000000000E+00 0. -1.
          2    1    1    2  502    0 -0.28838874943E+02 -0.13450385069E+02  0.47680781888E+03  0.47786848579E+03  0.00000000000E+00 0. -1.
</event>
<event>
 4    1  0.9360795E+003  0.2458105E+02  0.7546771E-02  0.1473545E+00
          2   -1    0    0  501    0  0.00000000000E+00  0.00000000000E+00  0.29945643051E+03  0.29945643051E+03  0.00000000000E+00 0. -1.
          2   -1    0    0  502    0 -0.00000000000E+00 -0.00000000000E+00 -0.21297874044E+01  0.21297874044E+01  0.00000000000E+00 0. -1.
          2    1    1    2  501    0 -0.18232849797E+02 -0.16486087528E+02  0.11407759113E+03  0.11669586407E+03  0.00000000000E+00 0. -1.
          2    1    1    2  502    0  0.18232849797E+02  0.16486087528E+02  0.18324905198E+03  0.18489035384E+03  0.00000000000E+00 0. -1.
</event>
<event>
 4    1  0.9360795E+003  0.2155406E+02  0.7546771E-02  0.1511499E+00
          2   -1    0    0  502    0  0.00000000000E+00  0.00000000000E+00  0.50588427439E+02  0.50588427439E+02  0.00000000000E+00 0.  1.
          2   -1    0    0  501    0 -0.00000000000E+00 -0.00000000000E+00 -0.92130072233E+01  0.92130072233E+01  0.00000000000E+00 0. -1.
          2    1    1    2  501    0  0.13388652595E+02  0.16891458114E+02  0.18994715433E+02  0.28729368073E+02  0.00000000000E+00 0. -1.
          2    1    1    2  502    0 -0.13388652595E+02 -0.16891458114E+02  0.22380704783E+02  0.31072066589E+02  0.00000000000E+00 0.  1.
</event>
<event>
 4    1  0.9360795E+003  0.2024976E+02  0.7546771E-02  0.1530251E+00
          2   -1    0    0  501    0  0.00000000000E+00  0.00000000000E+00  0.78027952753E+00  0.78027952753E+00  0.00000000000E+00 0.  1.
          2   -1    0    0  502    0 -0.00000000000E+00 -0.00000000000E+00 -0.75401615495E+03  0.75401615495E+03  0.00000000000E+00 0.  1.
          2    1    1    2  501    0  0.11398263030E+02 -0.16737158828E+02 -0.58437150705E+03  0.58472225127E+03  0.00000000000E+00 0.  1.
          2    1    1    2  502    0 -0.11398263030E+02  0.16737158828E+02 -0.16886436837E+03  0.17007418320E+03  0.00000000000E+00 0.  1.
</event>
<event>
 4    1  0.9360795E+003  0.2204295E+02  0.7546771E-02  0.1504879E+00
          2   -1    0    0  501    0  0.00000000000E+00  0.00000000000E+00  0.30369326195E+00  0.30369326195E+00  0.00000000000E+00 0. -1.
          2   -1    0    0  502    0 -0.00000000000E+00 -0.00000000000E+00 -0.16866538804E+04  0.16866538804E+04  0.00000000000E+00 0. -1.
          2    1    1    2  501    0  0.20468114445E+02 -0.81821641021E+01 -0.10344249844E+04  0.10346598185E+04  0.00000000000E+00 0. -1.
          2    1    1    2  502    0 -0.20468114445E+02  0.81821641021E+01 -0.65192520272E+03  0.65229775522E+03  0.00000000000E+00 0. -1.
</event>
<event>
 4    1  0.9360795E+003  0.8522566E+02  0.7546771E-02  0.1192209E+00
          2   -1    0    0  501    0  0.00000000000E+00  0.00000000000E+00  0.90419818552E+01  0.90419818552E+01  0.00000000000E+00 0.  1.
          2   -1    0    0  502    0 -0.00000000000E+00 -0.00000000000E+00 -0.93600894033E+03  0.93600894033E+03  0.00000000000E+00 0.  1.
          2    1    1    2  501    0 -0.82433800024E+02 -0.21635201255E+02 -0.64140858961E+03  0.64704589648E+03  0.00000000000E+00 0.  1.
          2    1    1    2  502    0  0.82433800024E+02  0.21635201255E+02 -0.28555836886E+03  0.29800502571E+03  0.00000000000E+00 0.  1.
</event>
<event>
 4    1  0.9360795E+003  0.2469598E+02  0.7546771E-02  0.1472233E+00
          2   -1    0    0  502    0  0.00000000000E+00  0.00000000000E+00  0.88405057939E+03  0.88405057939E+03  0.00000000000E+00 0.  1.
          2   -1    0    0  501    0 -0.00000000000E+00 -0.00000000000E+00 -0.39823731529E+02  0.39823731529E+02  0.00000000000E+00 0. -1.
          2    1    1    2  501    0  0.24689137188E+02  0.58139685525E+00  0.88003193449E+03  0.88037838300E+03  0.00000000000E+00 0.  1.
          2    1    1    2  502    0 -0.24689137188E+02 -0.58139685525E+00 -0.35805086631E+02  0.43495927925E+02  0.00000000000E+00 0. -1.
</event>
<event>
 4    1  0.9360795E+003  0.2430563E+02  0.7546771E-02  0.1476723E+00
          2   -1    0    0  502    0  0.00000000000E+00  0.00000000000E+00  0.71175317122E+03  0.71175317122E+03  0.00000000000E+00 0.  1.
          2   -1    0    0  501    0 -0.00000000000E+00 -0.00000000000E+00 -0.25088726820E+02  0.25088726820E+02  0.00000000000E+00 0.  1.
          2    1    1    2  501    0 -0.10547435596E+02 -0.21897837391E+02  0.70560766839E+03  0.70602616479E+03  0.00000000000E+00 0.  1.
          2    1    1    2  502    0  0.10547435596E+02  0.21897837391E+02 -0.18943223994E+02  0.30815733244E+02  0.00000000000E+00 0.  1.
</event>
<event>
 4    1  0.9360795E+003  0.2774708E+02  0.7546771E-02  0.1440245E+00
          2   -1    0    0  502    0  0.00000000000E+00  0.00000000000E+00  0.17186472376E+03  0.17186472376E+03  0.00000000000E+00 0. -1.
          2   -1    0    0  501    0 -0.00000000000E+00 -0.00000000000E+00 -0.17750175995E+02  0.17750175995E+02  0.00000000000E+00 0. -1.
          2    1    1    2  501    0 -0.19209196522E+02  0.20022668648E+02  0.15903286666E+03  0.16143529097E+03  0.00000000000E+00 0. -1.
          2    1    1    2  502    0  0.19209196522E+02 -0.20022668648E+02 -0.49183188949E+01  0.28179608791E+02  0.00000000000E+00 0. -1.
</event>
<event>
 4    1  0.9360795E+003  0.2056235E+02  0.7546771E-02  0.1525606E+00
          2   -1    0    0  501    0  0.00000000000E+00  0.00000000000E+00  0.45695119815E+02  0.45695119815E+02  0.00000000000E+00 0. -1.
          2   -1    0    0  502    0 -0.00000000000E+00 -0.00000000000E+00 -0.20478126573E+02  0.20478126573E+02  0.00000000000E+00 0.  1.
          2    1    1    2  501    0 -0.20356988396E+02  0.28988595447E+01 -0.11888099567E+02  0.23751574148E+02  0.00000000000E+00 0.  1.
          2    1    1    2  502    0  0.20356988396E+02 -0.28988595447E+01  0.37105092809E+02  0.42421672239E+02  0.00000000000E+00 0. -1.
</event>
<event>
 4    1  0.9360795E+003  0.2056887E+02  0.7546771E-02  0.1525510E+00
          2   -1    0    0  501    0  0.00000000000E+00  0.00000000000E+00  0.52591911713E+01  0.52591911713E+01  0.00000000000E+00 0. -1.
          2   -1    0    0  502    0 -0.00000000000E+00 -0.00000000000E+00 -0.80520956811E+02  0.80520956811E+02  0.00000000000E+00 0.  1.
          2    1    1    2  501    0 -0.17794550514E+02 -0.10316606946E+02 -0.38943605594E+02  0.44041830384E+02  0.00000000000E+00 0.  1.
          2    1    1    2  502    0  0.17794550514E+02  0.10316606946E+02 -0.36318160046E+02  0.41738317599E+02  0.00000000000E+00 0. -1.
</event>
<event>
 4    1  0.9360795E+003  0.2020394E+02  0.7546771E-02  0.1530941E+00
          2   -1    0    0  502    0  0.00000000000E+00  0.00000000000E+00  0.99316097009E+02  0.99316097009E+02  0.00000000000E+00 0.  1.
          2   -1    0    0  501    0 -0.00000000000E+00 -0.00000000000E+00 -0.10503439751E+04  0.10503439751E+04  0.00000000000E+00 0.  1.
          2    1    1    2  501    0  0.14535008014E+02  0.14033278110E+02  0.98190310447E+02  0.10024737612E+03  0.00000000000E+00 0.  1.
          2    1    1    2  502    0 -0.14535008014E+02 -0.14033278110E+02 -0.10492181886E+04  0.10494126960E+04  0.00000000000E+00 0.  1.
</event>
<event>
 4    1  0.9360795E+003  0.2949464E+02  0.7546771E-02  0.1424040E+00
          2   -1    0    0  501    0  0.00000000000E+00  0.00000000000E+00  0.29337922038E+01  0.29337922038E+01  0.00000000000E+00 0.  1.
          2   -1    0    0  502    0 -0.00000000000E+00 -0.00000000000E+00 -0.75678617193E+03  0.75678617193E+03  0.00000000000E+00 0. -1.
          2    1    1    2  501    0  0.10158232334E+02 -0.27690141405E+02 -0.67316406584E+03  0.67380990877E+03  0.00000000000E+00 0. -1.
          2    1    1    2  502    0 -0.10158232334E+02  0.27690141405E+02 -0.80688313882E+02  0.85910055362E+02  0.00000000000E+00 0.  1.
</event>
<event>
 4    1  0.9360795E+003  0.2432680E+02  0.7546771E-02  0.1476477E+00
          2   -1    0    0  502    0  0.00000000000E+00  0.00000000000E+00  0.33470179758E+01  0.33470179758E+01  0.00000000000E+00 0. -1.
          2   -1    0    0  501    0 -0.00000000000E+00 -0.00000000000E+00 -0.20048556144E+03  0.20048556144E+03  0.00000000000E+00 0. -1.
          2    1    1    2  501    0 -0.23113138018E+02 -0.75878819945E+01 -0.63547878855E+02  0.68045029276E+02  0.00000000000E+00 0. -1.
          2    1    1    2  502    0  0.23113138018E+02  0.75878819945E+01 -0.13359066461E+03  0.13578755014E+03  0.00000000000E+00 0. -1.
</event>
<event>
 4    1  0.9360795E+003  0.3092394E+02  0.7546771E-02  0.1411734E+00
          2   -1    0    0  501    0  0.00000000000E+00  0.00000000000E+00  0.56235976427E+03  0.56235976427E+03  0.00000000000E+00 0. -1.
          2   -1    0    0  502    0 -0.00000000000E+00 -0.00000000000E+00 -0.75667980460E+01  0.75667980460E+01  0.00000000000E+00 0. -1.
          2    1    1    2  501    0 -0.83420802215E+01  0.29777505721E+02  0.26488160871E+02  0.40717475557E+02  0.00000000000E+00 0. -1.
          2    1    1    2  502    0  0.83420802215E+01 -0.29777505721E+02  0.52830480535E+03  0.52920908675E+03  0.00000000000E+00 0. -1.
</event>
<event>
 4    1  0.9360795E+003  0.2150536E+02  0.7546771E-02  0.1512170E+00
          2   -1    0    0  501    0  0.00000000000E+00  0.00000000000E+00  0.37703528427E+02  0.37703528427E+02  0.00000000000E+00 0.  1.
          2   -1    0    0  502    0 -0.00000000000E+00 -0.00000000000E+00 -0.25784723777E+03  0.25784723777E+03  0.00000000000E+00 0.  1.
          2    1    1    2  501    0 -0.23550758116E+01  0.21376020065E+02 -0.25428944338E+03  0.25519718186E+03  0.00000000000E+00 0.  1.
          2    1    1    2  502    0  0.23550758116E+01 -0.21376020065E+02  0.34145734036E+02  0.40353584336E+02  0.00000000000E+00 0.  1.
</event>
<event>
 4    1  0.9360795E+003  0.2643550E+02  0.7546771E-02  0.1453363E+00
          2   -1    0    0  502    0  0.00000000000E+00  0.00000000000E+00  0.12930194488E+04  0.12930194488E+04  0.00000000000E+00 0. -1.
          2   -1    0    0  501    0 -0.00000000000E+00 -0.00000000000E+00 -0.34273442512E+01  0.34273442512E+01  0.00000000000E+00 0.  1.
          2    1    1    2  501    0  0.21630894936E+02 -0.15196707557E+02  0.12397179131E+04  0.12399997337E+04  0.00000000000E+00 0. -1.
          2    1    1    2  502    0 -0.21630894936E+02  0.15196707557E+02  0.49874191489E+02  0.56447059383E+02  0.00000000000E+00 0.  1.
</event>
<event>
 4    1  0.9360795E+003  0.2236496E+02  0.7546771E-02  0.1500630E+00
          2   -1    0    0  501    0  0.00000000000E+00  0.00000000000E+00  0.41206316693E+01  0.41206316693E+01  0.00000000000E+00 0. -1.
          2   -1    0    0  502    0 -0.00000000000E+00 -0.00000000000E+00 -0.13419992070E+03  0.13419992070E+03  0.00000000000E+00 0.  1.
          2    1    1    2  501    0 -0.14281341793E+02  0.17211469405E+02 -0.86409593335E+02  0.89256984168E+02  0.00000000000E+00 0.  1.
          2    1    1    2  502    0  0.14281341793E+02 -0.17211469405E+02 -0.43669695696E+02  0.49063568202E+02  0.00000000000E+00 0. -1.
</event>
<event>
 4    1  0.9360795E+003  0.2420537E+02  0.7546771E-02  0.1477893E+00
          2   -1    0    0  502    0  0.00000000000E+00  0.00000000000E+00  0.45876953311E+01  0.45876953311E+01  0.00000000000E+00 0. -1.
          2   -1    0    0  501    0 -0.00000000000E+00 -0.00000000000E+00 -0.20288951328E+03  0.20288951328E+03  0.00000000000E+00 0. -1.
          2    1    1    2  501    0  0.63993892832E+01  0.23344111758E+02 -0.36003272123E+02  0.43383583768E+02  0.00000000000E+00 0. -1.
          2    1    1    2  502    0 -0.63993892832E+01 -0.23344111758E+02 -0.16229854583E+03  0.16409362484E+03  0.00000000000E+00 0. -1.
</event>
<event>
 4    1  0.9360795E+003  0.2422359E+02  0.7546771E-02  0.1477680E+00
          2   -1    0    0  502    0  0.00000000000E+00  0.00000000000E+00  0.16108467849E+01  0.16108467849E+01  0.00000000000E+00 0. -1.
          2   -1    0    0  501    0 -0.00000000000E+00 -0.00000000000E+00 -0.36459226251E+03  0.36459226251E+03  0.00000000000E+00 0. -1.
          2    1    1    2  501    0  0.23758873794E+02 -0.47220982432E+01 -0.18693891618E+03  0.18850183203E+03  0.00000000000E+00 0. -1.
          2    1    1    2  502    0 -0.23758873794E+02  0.47220982432E+01 -0.17604249954E+03  0.17770127726E+03  0.00000000000E+00 0. -1.
</event>
<event>
 4    1  0.9360795E+003  0.1021769E+03  0.7546771E-02  0.1160088E+00
          2   -1    0    0  502    0  0.00000000000E+00  0.00000000000E+00  0.26658501280E+02  0.26658501280E+02  0.00000000000E+00 0.  1.
          2   -1    0    0  501    0 -0.00000000000E+00 -0.00000000000E+00 -0.45023871446E+03  0.45023871446E+03  0.00000000000E+00 0. -1.
          2    1    1    2  501    0  0.61645152330E+02  0.81486140873E+02 -0.12575499629E+03  0.16203220375E+03  0.00000000000E+00 0.  1.
          2    1    1    2  502    0 -0.61645152330E+02 -0.81486140873E+02 -0.29782521688E+03  0.31486501198E+03  0.00000000000E+00 0. -1.
</event>
<event>
 4    1  0.9360795E+003  0.3153537E+02  0.7546771E-02  0.1406707E+00
          2   -1    0    0  502    0  0.00000000000E+00  0.00000000000E+00  0.19343464446E+03  0.19343464446E+03  0.00000000000E+00 0.  1.
          2   -1    0    0  501    0 -0.00000000000E+00 -0.00000000000E+00 -0.56773213474E+02  0.56773213474E+02  0.00000000000E+00 0. -1.
          2    1    1    2  501    0  0.78698764659E+01  0.30537589167E+02  0.18763578311E+03  0.19026735508E+03  0.00000000000E+00 0.  1.
          2    1    1    2  502    0 -0.78698764659E+01 -0.30537589167E+02 -0.50974352122E+02  0.59940502851E+02  0.00000000000E+00 0. -1.
</event>
<event>
 4    1  0.9360795E+003  0.4516323E+02  0.7546771E-02  0.1320625E+00
          2   -1    0    0  501    0  0.00000000000E+00  0.00000000000E+00  0.14289423915E+03  0.14289423915E+03  0.00000000000E+00 0.  1.
          2   -1    0    0  502    0 -0.00000000000E+00 -0.00000000000E+00 -0.22368701451E+02  0.22368701451E+02  0.00000000000E+00 0. -1.
          2    1    1    2  501    0  0.19343139645E+02  0.40811271071E+02  0.10555814686E+02  0.46380406655E+02  0.00000000000E+00 0. -1.
          2    1    1    2  502    0 -0.19343139645E+02 -0.40811271071E+02  0.10996972301E+03  0.11888253394E+03  0.00000000000E+00 0.  1.
</event>
<event>
 4    1  0.9360795E+003  0.3514133E+02  0.7546771E-02  0.1379572E+00
          2   -1    0    0  501    0  0.00000000000E+00  0.00000000000E+00  0.81375924930E+01  0.81375924930E+01  0.00000000000E+00 0. -1.
          2   -1    0    0  502    0 -0.00000000000E+00 -0.00000000000E+00 -0.87798987434E+03  0.87798987434E+03  0.00000000000E+00 0. -1.
          2    1    1    2  501    0 -0.77173754387E+01 -0.34283458516E+02 -0.83788457862E+03  0.83862117819E+03  0.00000000000E+00 0. -1.
          2    1    1    2  502    0  0.77173754387E+01  0.34283458516E+02 -0.31967703227E+02  0.47506288648E+02  0.00000000000E+00 0. -1.
</event>
<event>
 4    1  0.9360795E+003  0.4767493E+02  0.7546771E-02  0.1308581E+00
          2   -1    0    0  501    0  0.00000000000E+00  0.00000000000E+00  0.85170783344E+02  0.85170783344E+02  0.00000000000E+00 0.  1.
          2   -1    0    0  502    0 -0.00000000000E+00 -0.00000000000E+00 -0.35203964568E+02  0.35203964568E+02  0.00000000000E+00 0.  1.
          2    1    1    2  501    0  0.42428579836E+02 -0.21741996574E+02 -0.46218015606E+01  0.47898432663E+02  0.00000000000E+00 0.  1.
          2    1    1    2  502    0 -0.42428579836E+02  0.21741996574E+02  0.54588620336E+02  0.72476315249E+02  0.00000000000E+00 0.  1.
</event>
<event>
 4    1  0.9360795E+003  0.2392998E+02  0.7546771E-02  0.1481139E+00
          2   -1    0    0  501    0  0.00000000000E+00  0.00000000000E+00  0.20797636592E+02  0.20797636592E+02  0.00000000000E+00 0. -1.
          2   -1    0    0  502    0 -0.00000000000E+00 -0.00000000000E+00 -0.36312269893E+03  0.36312269893E+03  0.00000000000E+00 0.  1.
          2    1    1    2  501    0 -0.21879398731E+02  0.96920428608E+01 -0.35570147645E+03  0.35650551767E+03  0.00000000000E+00 0.  1.
          2    1    1    2  502    0  0.21879398731E+02 -0.96920428608E+01  0.13376414106E+02  0.27414817854E+02  0.00000000000E+00 0. -1.
</event>
<event>
 4    1  0.9360795E+003  0.2370074E+02  0.7546771E-02  0.1483881E+00
          2   -1    0    0  501    0  0.00000000000E+00  0.00000000000E+00  0.40144660961E+02  0.40144660961E+02  0.00000000000E+00 0.  1.
          2   -1    0    0  502    0 -0.00000000000E+00 -0.00000000000E+00 -0.14977005995E+03  0.14977005995E+03  0.00000000000E+00 0.  1.
          2    1    1    2  501    0 -0.11016831480E+02  0.20984627347E+02 -0.14522553558E+03  0.14714680203E+03  0.00000000000E+00 0.  1.
          2    1    1    2  502    0  0.11016831480E+02 -0.20984627347E+02  0.35600136592E+02  0.42767918889E+02  0.00000000000E+00 0.  1.
</event>
<event>
 4    1  0.9360795E+003  0.2367145E+02  0.7546771E-02  0.1484235E+00
          2   -1    0    0  502    0  0.00000000000E+00  0.00000000000E+00  0.17104896256E+01  0.17104896256E+01  0.00000000000E+00 0. -1.
          2   -1    0    0  501    0 -0.00000000000E+00 -0.00000000000E+00 -0.79815144505E+03  0.79815144505E+03  0.00000000000E+00 0.  1.
          2    1    1    2  501    0  0.82440959120E+01  0.22189466720E+02 -0.91140837669E+02  0.94164695304E+02  0.00000000000E+00 0. -1.
          2    1    1    2  502    0 -0.82440959120E+01 -0.22189466720E+02 -0.70530011776E+03  0.70569723937E+03  0.00000000000E+00 0.  1.
</event>
<event>
 4    1  0.9360795E+003  0.3722013E+02  0.7546771E-02  0.1365594E+00
          2   -1    0    0  501    0  0.00000000000E+00  0.00000000000E+00  0.21010836680E+03  0.21010836680E+03  0.00000000000E+00 0. -1.
          2   -1    0    0  502    0 -0.00000000000E+00 -0.00000000000E+00 -0.12592575520E+02  0.12592575520E+02  0.00000000000E+00 0. -1.
          2    1    1    2  501    0  0.26409189089E+02 -0.26227715907E+02  0.21901703180E+02  0.43185911502E+02  0.00000000000E+00 0. -1.
          2    1    1    2  502    0 -0.26409189089E+02  0.26227715907E+02  0.17561408810E+03  0.17951503082E+03  0.00000000000E+00 0. -1.
</event>
<event>
 4    1  0.9360795E+003  0.4258472E+02  0.7546771E-02  0.1333971E+00
          2   -1    0    0  502    0  0.00000000000E+00  0.00000000000E+00  0.84768532735E+00  0.84768532735E+00  0.00000000000E+00 0. -1.
          2   -1    0    0  501    0 -0.00000000000E+00 -0.00000000000E+00 -0.28670865839E+04  0.28670865839E+04  0.00000000000E+00 0. -1.
          2    1    1    2  501    0 -0.10138568737E+02 -0.41360219398E+02 -0.21555881213E+04  0.21560087215E+04  0.00000000000E+00 0. -1.
          2    1    1    2  502    0  0.10138568737E+02  0.41360219398E+02 -0.71065077727E+03  0.71192554777E+03  0.00000000000E+00 0. -1.
</event>
<event>
 4    1  0.9360795E+003  0.3297381E+02  0.7546771E-02  0.1395396E+00
          2   -1    0    0  502    0  0.00000000000E+00  0.00000000000E+00  0.89564305567E+03  0.89564305567E+03  0.00000000000E+00 0. -1.
          2   -1    0    0  501    0 -0.00000000000E+00 -0.00000000000E+00 -0.53930281238E+01  0.53930281238E+01  0.00000000000E+00 0.  1.
          2    1    1    2  501    0 -0.32971658703E+02  0.37664629098E+00  0.84170950573E+03  0.84235512949E+03  0.00000000000E+00 0. -1.
          2    1    1    2  502    0  0.32971658703E+02 -0.37664629098E+00  0.48540521823E+02  0.58680954311E+02  0.00000000000E+00 0.  1.
</event>
<event>
 4    1  0.9360795E+003  0.2153639E+02  0.7546771E-02  0.1511743E+00
          2   -1    0    0  502    0  0.00000000000E+00  0.00000000000E+00  0.10313978687E+01  0.10313978687E+01  0.00000000000E+00 0.  1.
          2   -1    0    0  501    0 -0.00000000000E+00 -0.00000000000E+00 -0.45907337583E+03  0.45907337583E+03  0.00000000000E+00 0.  1.
          2    1    1    2  501    0 -0.20060530041E+02 -0.78352629813E+01 -0.26189935945E+03  0.26278335315E+03  0.00000000000E+00 0.  1.
          2    1    1    2  502    0  0.20060530041E+02  0.78352629813E+01 -0.19614261851E+03  0.19732142055E+03  0.00000000000E+00 0.  1.
</event>
<event>
 4    1  0.9360795E+003  0.2950224E+02  0.7546771E-02  0.1423972E+00
          2   -1    0    0  501    0  0.00000000000E+00  0.00000000000E+00  0.20281433284E+04  0.20281433284E+04  0.00000000000E+00 0.  1.
          2   -1    0    0  502    0 -0.00000000000E+00 -0.00000000000E+00 -0.19201390941E+01  0.19201390941E+01  0.00000000000E+00 0. -1.
          2    1    1    2  501    0  0.22328099506E+02 -0.19283112233E+02  0.11867374566E+03  0.12228589597E+03  0.00000000000E+00 0. -1.
          2    1    1    2  502    0 -0.22328099506E+02  0.19283112233E+02  0.19075494437E+04  0.19077775716E+04  0.00000000000E+00 0.  1.
</event>
<event>
 4    1  0.9360795E+003  0.2372207E+02  0.7546771E-02  0.1483625E+00
          2   -1    0    0  502    0  0.00000000000E+00  0.00000000000E+00  0.67916674967E+03  0.67916674967E+03  0.00000000000E+00 0.  1.
          2   -1    0    0  501    0 -0.00000000000E+00 -0.00000000000E+00 -0.18580814150E+01  0.18580814150E+01  0.00000000000E+00 0.  1.
          2    1    1    2  501    0 -0.17672413532E+02 -0.15824743120E+02  0.59211835489E+03  0.59259335374E+03  0.00000000000E+00 0.  1.
          2    1    1    2  502    0  0.17672413532E+02  0.15824743120E+02  0.85190313368E+02  0.88431477352E+02  0.00000000000E+00 0.  1.
</event>
<event>
 4    1  0.9360795E+003  0.2660533E+02  0.7546771E-02  0.1451613E+00
          2   -1    0    0  501    0  0.00000000000E+00  0.00000000000E+00  0.24100352401E+02  0.24100352401E+02  0.00000000000E+00 0. -1.
          2   -1    0    0  502    0 -0.00000000000E+00 -0.00000000000E+00 -0.46899704837E+03  0.46899704837E+03  0.00000000000E+00 0.  1.
          2    1    1    2  501    0  0.23163740344E+02  0.13087570849E+02 -0.46115226016E+03  0.46191909511E+03  0.00000000000E+00 0.  1.
          2    1    1    2  502    0 -0.23163740344E+02 -0.13087570849E+02  0.16255564182E+02  0.31178305668E+02  0.00000000000E+00 0. -1.
</event>
<event>
 4    1  0.9360795E+003  0.2045265E+02  0.7546771E-02  0.1527225E+00
          2   -1    0    0  502    0  0.00000000000E+00  0.00000000000E+00  0.23489339196E+03  0.23489339196E+03  0.00000000000E+00 0. -1.
          2   -1    0    0  501    0 -0.00000000000E+00 -0.00000000000E+00 -0.74927710312E+01  0.74927710312E+01  0.00000000000E+00 0. -1.
          2    1    1    2  501    0  0.23770573764E+01 -0.20314044426E+02  0.21951538646E+03  0.22046613276E+03  0.00000000000E+00 0. -1.
          2    1    1    2  502    0 -0.23770573764E+01  0.20314044426E+02  0.78852344726E+01  0.21920030232E+02  0.00000000000E+00 0. -1.
</event>
<event>
 4    1  0.9360795E+003  0.2314536E+02  0.7546771E-02  0.1490681E+00
          2   -1    0    0  502    0  0.00000000000E+00  0.00000000000E+00  0.37404093214E+01  0.37404093214E+01  0.00000000000E+00 0.  1.
          2   -1    0    0  501    0 -0.00000000000E+00 -0.00000000000E+00 -0.80744959277E+03  0.80744959277E+03  0.00000000000E+00 0.  1.
          2    1    1    2  501    0  0.14582201652E+02  0.17974067621E+02 -0.33985377803E+02  0.41118288100E+02  0.00000000000E+00 0.  1.
          2    1    1    2  502    0 -0.14582201652E+02 -0.17974067621E+02 -0.76972380565E+03  0.77007171399E+03  0.00000000000E+00 0.  1.
</event>
<event>
 4    1  0.9360795E+003  0.2116172E+02  0.7546771E-02  0.1516968E+00
          2   -1    0    0  502    0  0.00000000000E+00  0.00000000000E+00  0.56329805742E+03  0.56329805742E+03  0.00000000000E+00 0.  1.
          2   -1    0    0  501    0 -0.00000000000E+00 -0.00000000000E+00 -0.44437877124E+02  0.44437877124E+02  0.00000000000E+00 0.  1.
          2    1    1    2  501    0 -0.21036164234E+02 -0.23017401696E+01  0.56056769270E+03  0.56096698327E+03  0.00000000000E+00 0.  1.
          2    1    1    2  502    0  0.21036164234E+02  0.23017401696E+01 -0.41707512401E+02  0.46768951283E+02  0.00000000000E+00 0.  1.
</event>
<event>
 4    1  0.9360795E+003  0.2178578E+02  0.7546771E-02  0.1508335E+00
          2   -1    0    0  501    0  0.00000000000E+00  0.00000000000E+00  0.16403758072E+02  0.16403758072E+02  0.00000000000E+00 0.  1.
          2   -1    0    0  502    0 -0.00000000000E+00 -0.00000000000E+00 -0.59438293257E+02  0.59438293257E+02  0.00000000000E+00 0. -1.
          2    1    1    2  501    0  0.21769204769E+02  0.84976037822E+00 -0.48683535753E+02  0.53335794945E+02  0.00000000000E+00 0. -1.
          2    1    1    2  502    0 -0.21769204769E+02 -0.84976037822E+00  0.56490005687E+01  0.22506256384E+02  0.00000000000E+00 0.  1.
</event>
<event>
 4    1  0.9360795E+003  0.3026717E+02  0.7546771E-02  0.1417289E+00
          2   -1    0    0  502    0  0.00000000000E+00  0.00000000000E+00  0.15998728689E+03  0.15998728689E+03  0.00000000000E+00 0.  1.
          2   -1    0    0  501    0 -0.00000000000E+00 -0.00000000000E+00 -0.26971710610E+03  0.26971710610E+03  0.00000000000E+00 0.  1.
          2    1    1    2  501    0  0.44972237810E+01 -0.29931199313E+02  0.15769439742E+03  0.16057280185E+03  0.00000000000E+00 0.  1.
          2    1    1    2  502    0 -0.44972237810E+01  0.29931199313E+02 -0.26742421663E+03  0.26913159115E+03  0.00000000000E+00 0.  1.
</event>
<event>
 4    1  0.9360795E+003  0.3499064E+02  0.7546771E-02  0.1380629E+00
          2   -1    0    0  502    0  0.00000000000E+00  0.00000000000E+00  0.23828610055E+02  0.23828610055E+02  0.00000000000E+00 0.  1.
          2   -1    0    0  501    0 -0.00000000000E+00 -0.00000000000E+00 -0.11442078155E+04  0.11442078155E+04  0.00000000000E+00 0. -1.
          2    1    1    2  501    0 -0.30996028249E+02  0.16235485382E+02  0.10565167172E+02  0.36550889321E+02  0.00000000000E+00 0.  1.
          2    1    1    2  502    0  0.30996028249E+02 -0.16235485382E+02 -0.11309443726E+04  0.11314855362E+04  0.00000000000E+00 0. -1.
</event>
<event>
 4    1  0.9360795E+003  0.2175558E+02  0.7546771E-02  0.1508745E+00
          2   -1    0    0  502    0  0.00000000000E+00  0.00000000000E+00  0.89913976337E+01  0.89913976337E+01  0.00000000000E+00 0.  1.
          2   -1    0    0  501    0 -0.00000000000E+00 -0.00000000000E+00 -0.46807502452E+03  0.46807502452E+03  0.00000000000E+00 0. -1.
          2    1    1    2  501    0  0.17847483066E+02 -0.12440756746E+02 -0.48212599235E+01  0.22283393536E+02  0.00000000000E+00 0.  1.
          2    1    1    2  502    0 -0.17847483066E+02  0.12440756746E+02 -0.45426236696E+03  0.45478302862E+03  0.00000000000E+00 0. -1.
</event>
<event>
 4    1  0.9360795E+003  0.7768965E+02  0.7546771E-02  0.1209315E+00
          2   -1    0    0  501    0  0.00000000000E+00  0.00000000000E+00  0.27875539764E+04  0.27875539764E+04  0.00000000000E+00 0. -1.
          2   -1    0    0  502    0 -0.00000000000E+00 -0.00000000000E+00 -0.38578274672E+01  0.38578274672E+01  0.00000000000E+00 0.  1.
          2    1    1    2  501    0  0.77586828277E+02  0.39957615176E+01  0.46736284347E+03  0.47377601194E+03  0.00000000000E+00 0.  1.
          2    1    1    2  502    0 -0.77586828277E+02 -0.39957615176E+01  0.23163333055E+04  0.23176357919E+04  0.00000000000E+00 0. -1.
</event>
<event>
 4    1  0.9360795E+003  0.3243924E+02  0.7546771E-02  0.1399519E+00
          2   -1    0    0  502    0  0.00000000000E+00  0.00000000000E+00  0.36080608718E+02  0.36080608718E+02  0.00000000000E+00 0.  1.
          2   -1    0    0  501    0 -0.00000000000E+00 -0.00000000000E+00 -0.44620052778E+02  0.44620052778E+02  0.00000000000E+00 0.  1.
          2    1    1    2  501    0  0.23189076453E+02 -0.22684164942E+02  0.19477454945E+02  0.37837492742E+02  0.00000000000E+00 0.  1.
          2    1    1    2  502    0 -0.23189076453E+02  0.22684164942E+02 -0.28016899004E+02  0.42863168754E+02  0.00000000000E+00 0.  1.
</event>
<event>
 4    1  0.9360795E+003  0.2633844E+02  0.7546771E-02  0.1454369E+00
          2   -1    0    0  502    0  0.00000000000E+00  0.00000000000E+00  0.55434402426E+02  0.55434402426E+02  0.00000000000E+00 0.  1.
          2   -1    0    0  501    0 -0.00000000000E+00 -0.00000000000E+00 -0.10911343323E+04  0.10911343323E+04  0.00000000000E+00 0.  1.
          2    1    1    2  501    0 -0.20478185403E+02  0.16563743094E+02  0.52137444743E+02  0.58412556930E+02  0.00000000000E+00 0.  1.
          2    1    1    2  502    0  0.20478185403E+02 -0.16563743094E+02 -0.10878373746E+04  0.10881561778E+04  0.00000000000E+00 0.  1.
</event>
<event>
 4    1  0.9360795E+003  0.2256126E+02  0.7546771E-02  0.1498082E+00
          2   -1    0    0  502    0  0.00000000000E+00  0.00000000000E+00  0.16560916393E+01  0.16560916393E+01  0.00000000000E+00 0. -1.
          2   -1    0    0  501    0 -0.00000000000E+00 -0.00000000000E+00 -0.58595236066E+03  0.58595236066E+03  0.00000000000E+00 0.  1.
          2    1    1    2  501    0 -0.19119208132E+02  0.11977746171E+02 -0.49473636793E+03  0.49525052678E+03  0.00000000000E+00 0.  1.
          2    1    1    2  502    0  0.19119208132E+02 -0.11977746171E+02 -0.89559901089E+02  0.92357925518E+02  0.00000000000E+00 0. -1.
</event>
<event>
 4    1  0.9360795E+003  0.2239145E+02  0.7546771E-02  0.1500284E+00
          2   -1    0    0  502    0  0.00000000000E+00  0.00000000000E+00  0.23670863376E+01  0.23670863376E+01  0.00000000000E+00 0.  1.
          2   -1    0    0  501    0 -0.00000000000E+00 -0.00000000000E+00 -0.10717097818E+04  0.10717097818E+04  0.00000000000E+00 0.  1.
          2    1    1    2  501    0  0.40267044796E+01  0.22026412264E+02 -0.53621373141E+02  0.58108767357E+02  0.00000000000E+00 0.  1.
          2    1    1    2  502    0 -0.40267044796E+01 -0.22026412264E+02 -0.10157213223E+04  0.10159681008E+04  0.00000000000E+00 0.  1.
</event>
<event>
 4    1  0.9360795E+003  0.2395270E+02  0.7546771E-02  0.1480869E+00
          2   -1    0    0  502    0  0.00000000000E+00  0.00000000000E+00  0.36313909633E+02  0.36313909633E+02  0.00000000000E+00 0. -1.
          2   -1    0    0  501    0 -0.00000000000E+00 -0.00000000000E+00 -0.77156004177E+03  0.77156004177E+03  0.00000000000E+00 0. -1.
          2    1    1    2  501    0  0.13726609134E+02  0.19629368077E+02  0.32156810340E+02  0.40097285951E+02  0.00000000000E+00 0. -1.
          2    1    1    2  502    0 -0.13726609134E+02 -0.19629368077E+02 -0.76740294248E+03  0.76777666546E+03  0.00000000000E+00 0. -1.
</event>
<event>
 4    1  0.9360795E+003  0.2641110E+02  0.7546771E-02  0.1453615E+00
          2   -1    0    0  502    0  0.00000000000E+00  0.00000000000E+00  0.21308989005E+02  0.21308989005E+02  0.00000000000E+00 0. -1.
          2   -1    0    0  501    0 -0.00000000000E+00 -0.00000000000E+00 -0.28844183241E+03  0.28844183241E+03  0.00000000000E+00 0.  1.
          2    1    1    2  501    0 -0.25128739020E+01  0.26291285674E+02  0.12256116893E+02  0.29116295076E+02  0.00000000000E+00 0. -1.
          2    1    1    2  502    0  0.25128739020E+01 -0.26291285674E+02 -0.27938896030E+03  0.28063452634E+03  0.00000000000E+00 0.  1.
</event>
<event>
 4    1  0.9360795E+003  0.2384787E+02  0.7546771E-02  0.1482117E+00
          2   -1    0    0  502    0  0.00000000000E+00  0.00000000000E+00  0.56391009367E+02  0.56391009367E+02  0.00000000000E+00 0.  1.
          2   -1    0    0  501    0 -0.00000000000E+00 -0.00000000000E+00 -0.10999046226E+02  0.10999046226E+02  0.00000000000E+00 0.  1.
          2    1    1    2  501    0 -0.50922989884E+01  0.23297841942E+02  0.32407746183E+02  0.40236587340E+02  0.00000000000E+00 0.  1.
          2    1    1    2  502    0  0.50922989884E+01 -0.23297841942E+02  0.12984216958E+02  0.27153468253E+02  0.00000000000E+00 0.  1.
</event>
<event>
 4    1  0.9360795E+003  0.2520279E+02  0.7546771E-02  0.1466548E+00
          2   -1    0    0  502    0  0.00000000000E+00  0.00000000000E+00  0.63722105590E+02  0.63722105590E+02  0.00000000000E+00 0. -1.
          2   -1    0    0  501    0 -0.00000000000E+00 -0.00000000000E+00 -0.15397788320E+04  0.15397788320E+04  0.00000000000E+00 0.  1.
          2    1    1    2  501    0  0.20504070287E+02 -0.14654810734E+02  0.61122769629E+02  0.66114849642E+02  0.00000000000E+00 0. -1.
          2    1    1    2  502    0 -0.20504070287E+02  0.14654810734E+02 -0.15371794961E+04  0.15373860880E+04  0.00000000000E+00 0.  1.
</event>
<event>
 4    1  0.1068109E+004  0.2491014E+02  0.7546771E-02  0.1469811E+00
          2   -1    0    0  502    0  0.00000000000E+00  0.00000000000E+00  0.33824123213E+03  0.33824123213E+03  0.00000000000E+00 0. -1.
          2   -1    0    0  501    0 -0.00000000000E+00 -0.00000000000E+00 -0.12014641626E+04  0.12014641626E+04  0.00000000000E+00 0. -1.
          2    1    1    2  501    0 -0.22942450253E+02 -0.97035564539E+01  0.33765325768E+03  0.33857087508E+03  0.00000000000E+00 0. -1.
          2    1    1    2  502    0  0.22942450253E+02  0.97035564539E+01 -0.12008761881E+04  0.12011345196E+04  0.00000000000E+00 0. -1.
</event>
<event>
 4    1  0.9360795E+003  0.2156349E+02  0.7546771E-02  0.1511370E+00
          2   -1    0    0  502    0  0.00000000000E+00  0.00000000000E+00  0.44863246547E+03  0.44863246547E+03  0.00000000000E+00 0.  1.
          2   -1    0    0  501    0 -0.00000000000E+00 -0.00000000000E+00 -0.52467779085E+02  0.52467779085E+02  0.00000000000E+00 0. -1.
          2    1    1    2  501    0  0.18077431175E+02 -0.11755450001E+02  0.44614544023E+03  0.44666624896E+03  0.00000000000E+00 0.  1.
          2    1    1    2  502    0 -0.18077431175E+02  0.11755450001E+02 -0.49980753839E+02  0.54433995600E+02  0.00000000000E+00 0. -1.
</event>
<event>
 4    1  0.9360795E+003  0.2681313E+02  0.7546771E-02  0.1449494E+00
          2   -1    0    0  502    0  0.00000000000E+00  0.00000000000E+00  0.12360062713E+02  0.12360062713E+02  0.00000000000E+00 0. -1.
          2   -1    0    0  501    0 -0.00000000000E+00 -0.00000000000E+00 -0.13269371193E+03  0.13269371193E+03  0.00000000000E+00 0. -1.
          2    1    1    2  501    0  0.26807725695E+02  0.53833453709E+00 -0.58129203222E+01  0.27435998318E+02  0.00000000000E+00 0. -1.
          2    1    1    2  502    0 -0.26807725695E+02 -0.53833453709E+00 -0.11452072890E+03  0.11761777633E+03  0.00000000000E+00 0. -1.
</event>
<event>
 4    1  0.9360795E+003  0.2561595E+02  0.7546771E-02  0.1462029E+00
          2   -1    0    0  502    0  0.00000000000E+00  0.00000000000E+00  0.13217862904E+03  0.13217862904E+03  0.00000000000E+00 0.  1.
          2   -1    0    0  501    0 -0.00000000000E+00 -0.00000000000E+00 -0.17348355981E+02  0.17348355981E+02  0.00000000000E+00 0.  1.
          2    1    1    2  501    0  0.21536371393E+02 -0.13869440992E+02 -0.57520543987E+01  0.26253815266E+02  0.00000000000E+00 0.  1.
          2    1    1    2  502    0 -0.21536371393E+02  0.13869440992E+02  0.12058232746E+03  0.12327316975E+03  0.00000000000E+00 0.  1.
</event>
<event>
 4    1  0.9360795E+003  0.2078712E+02  0.7546771E-02  0.1522326E+00
          2   -1    0    0  502    0  0.00000000000E+00  0.00000000000E+00  0.88860022200E+00  0.88860022200E+00  0.00000000000E+00 0.  1.
          2   -1    0    0  501    0 -0.00000000000E+00 -0.00000000000E+00 -0.65009870059E+03  0.65009870059E+03  0.00000000000E+00 0.  1.
          2    1    1    2  501    0 -0.85593078665E+01  0.18943138653E+02 -0.16120922007E+03  0.16254389220E+03  0.00000000000E+00 0.  1.
          2    1    1    2  502    0  0.85593078665E+01 -0.18943138653E+02 -0.48800088029E+03  0.48844340861E+03  0.00000000000E+00 0.  1.
</event>
<event>
 4    1  0.9360795E+003  0.2191896E+02  0.7546771E-02  0.1506538E+00
          2   -1    0    0  502    0  0.00000000000E+00  0.00000000000E+00  0.50724521619E+02  0.50724521619E+02  0.00000000000E+00 0.  1.
          2   -1    0    0  501    0 -0.00000000000E+00 -0.00000000000E+00 -0.37722248996E+02  0.37722248996E+02  0.00000000000E+00 0.  1.
          2    1    1    2  501    0 -0.56133248843E+01 -0.21187996028E+02  0.44771948724E+02  0.49849453201E+02  0.00000000000E+00 0.  1.
          2    1    1    2  502    0  0.56133248843E+01  0.21187996028E+02 -0.31769676101E+02  0.38597317413E+02  0.00000000000E+00 0.  1.
</event>
<event>
 4    1  0.9360795E+003  0.7024247E+02  0.7546771E-02  0.1228514E+00
          2   -1    0    0  501    0  0.00000000000E+00  0.00000000000E+00  0.10535640917E+02  0.10535640917E+02  0.00000000000E+00 0. -1.
          2   -1    0    0  502    0 -0.00000000000E+00 -0.00000000000E+00 -0.12698654424E+04  0.12698654424E+04  0.00000000000E+00 0.  1.
          2    1    1    2  501    0  0.57822183734E+02  0.39882321505E+02 -0.11382954771E+04  0.11404606954E+04  0.00000000000E+00 0.  1.
          2    1    1    2  502    0 -0.57822183734E+02 -0.39882321505E+02 -0.12103432440E+03  0.13994038797E+03  0.00000000000E+00 0. -1.
</event>
<event>
 4    1  0.9360795E+003  0.4055932E+02  0.7546771E-02  0.1345239E+00
          2   -1    0    0  502    0  0.00000000000E+00  0.00000000000E+00  0.30300753364E+01  0.30300753364E+01  0.00000000000E+00 0.  1.
          2   -1    0    0  501    0 -0.00000000000E+00 -0.00000000000E+00 -0.12741071709E+04  0.12741071709E+04  0.00000000000E+00 0. -1.
          2    1    1    2  501    0 -0.15465212345E+02  0.37495144909E+02 -0.15178763343E+03  0.15711315778E+03  0.00000000000E+00 0.  1.
          2    1    1    2  502    0  0.15465212345E+02 -0.37495144909E+02 -0.11192894621E+04  0.11200240884E+04  0.00000000000E+00 0. -1.
</event>
<event>
 4    1  0.9360795E+003  0.2084795E+02  0.7546771E-02  0.1521447E+00
          2   -1    0    0  501    0  0.00000000000E+00  0.00000000000E+00  0.13607984457E+03  0.13607984457E+03  0.00000000000E+00 0.  1.
          2   -1    0    0  502    0 -0.00000000000E+00 -0.00000000000E+00 -0.45625576701E+03  0.45625576701E+03  0.00000000000E+00 0. -1.
          2    1    1    2  501    0  0.16341089794E+02  0.12946267137E+02 -0.45521729573E+03  0.45569444081E+03  0.00000000000E+00 0. -1.
          2    1    1    2  502    0 -0.16341089794E+02 -0.12946267137E+02  0.13504137330E+03  0.13664117077E+03  0.00000000000E+00 0.  1.
</event>
<event>
 4    1  0.9360795E+003  0.3158647E+02  0.7546771E-02  0.1406293E+00
          2   -1    0    0  501    0  0.00000000000E+00  0.00000000000E+00  0.19954694219E+03  0.19954694219E+03  0.00000000000E+00 0. -1.
          2   -1    0    0  502    0 -0.00000000000E+00 -0.00000000000E+00 -0.18298493643E+03  0.18298493643E+03  0.00000000000E+00 0. -1.
          2    1    1    2  501    0 -0.19289321349E+02 -0.25012544577E+02 -0.18035377786E+03  0.18309885443E+03  0.00000000000E+00 0. -1.
          2    1    1    2  502    0  0.19289321349E+02  0.25012544577E+02  0.19691578362E+03  0.19943302420E+03  0.00000000000E+00 0. -1.
</event>
<event>
 4    1  0.9360795E+003  0.2443578E+02  0.7546771E-02  0.1475215E+00
          2   -1    0    0  501    0  0.00000000000E+00  0.00000000000E+00  0.24975205617E+02  0.24975205617E+02  0.00000000000E+00 0. -1.
          2   -1    0    0  502    0 -0.00000000000E+00 -0.00000000000E+00 -0.56090007271E+02  0.56090007271E+02  0.00000000000E+00 0.  1.
          2    1    1    2  501    0 -0.23101669146E+02 -0.79636717168E+01 -0.46259520241E+02  0.52316827097E+02  0.00000000000E+00 0.  1.
          2    1    1    2  502    0  0.23101669146E+02  0.79636717168E+01  0.15144718587E+02  0.28748385792E+02  0.00000000000E+00 0. -1.
</event>
<event>
 4    1  0.9360795E+003  0.2076640E+02  0.7546771E-02  0.1522626E+00
          2   -1    0    0  502    0  0.00000000000E+00  0.00000000000E+00  0.10953475598E+03  0.10953475598E+03  0.00000000000E+00 0.  1.
          2   -1    0    0  501    0 -0.00000000000E+00 -0.00000000000E+00 -0.95158164112E+01  0.95158164112E+01  0.00000000000E+00 0.  1.
          2    1    1    2  501    0  0.20613786565E+02  0.25129693568E+01  0.95586682949E+02  0.97816446310E+02  0.00000000000E+00 0.  1.
          2    1    1    2  502    0 -0.20613786565E+02 -0.25129693568E+01  0.44322566153E+01  0.21234126077E+02  0.00000000000E+00 0.  1.
</event>
<event>
 4    1  0.9360795E+003  0.4952063E+02  0.7546771E-02  0.1300264E+00
          2   -1    0    0  501    0  0.00000000000E+00  0.00000000000E+00  0.25608226591E+02  0.25608226591E+02  0.00000000000E+00 0.  1.
          2   -1    0    0  502    0 -0.00000000000E+00 -0.00000000000E+00 -0.10690671661E+03  0.10690671661E+03  0.00000000000E+00 0.  1.
          2    1    1    2  501    0 -0.43391997543E+02  0.23862679128E+02 -0.62042086214E+02  0.79382072080E+02  0.00000000000E+00 0.  1.
          2    1    1    2  502    0  0.43391997543E+02 -0.23862679128E+02 -0.19256403802E+02  0.53132871119E+02  0.00000000000E+00 0.  1.
</event>
<event>
 4    1  0.9360795E+003  0.2121785E+02  0.7546771E-02  0.1516177E+00
          2   -1    0    0  501    0  0.00000000000E+00  0.00000000000E+00  0.69338360710E+01  0.69338360710E+01  0.00000000000E+00 0.  1.
          2   -1    0    0  502    0 -0.00000000000E+00 -0.00000000000E+00 -0.54836779889E+03  0.54836779889E+03  0.00000000000E+00 0. -1.
          2    1    1    2  501    0 -0.47885199958E+01  0.20670442559E+02 -0.53141298780E+03  0.53183640410E+03  0.00000000000E+00 0. -1.
          2    1    1    2  502    0  0.47885199958E+01 -0.20670442559E+02 -0.10020975023E+02  0.23465230869E+02  0.00000000000E+00 0.  1.
</event>
<event>
 4    1  0.9360795E+003  0.3492379E+02  0.7546771E-02  0.1381100E+00
          2   -1    0    0  502    0  0.00000000000E+00  0.00000000000E+00  0.29068264906E+03  0.29068264906E+03  0.00000000000E+00 0. -1.
          2   -1    0    0  501    0 -0.00000000000E+00 -0.00000000000E+00 -0.10691021330E+02  0.10691021330E+02  0.00000000000E+00 0.  1.
          2    1    1    2  501    0 -0.30744036283E+02  0.16567306195E+02  0.25744764695E+03  0.25980562412E+03  0.00000000000E+00 0. -1.
          2    1    1    2  502    0  0.30744036283E+02 -0.16567306195E+02  0.22543980774E+02  0.41568046270E+02  0.00000000000E+00 0.  1.
</event>
<event>
 4    1  0.9360795E+003  0.2825607E+02  0.7546771E-02  0.1435383E+00
          2   -1    0    0  502    0  0.00000000000E+00  0.00000000000E+00  0.19528560957E+04  0.19528560957E+04  0.00000000000E+00 0. -1.
          2   -1    0    0  501    0 -0.00000000000E+00 -0.00000000000E+00 -0.57304151955E+01  0.57304151955E+01  0.00000000000E+00 0. -1.
          2    1    1    2  501    0 -0.25070971046E+02  0.13032724712E+02  0.19172755933E+04  0.19174837955E+04  0.00000000000E+00 0. -1.
          2    1    1    2  502    0  0.25070971046E+02 -0.13032724712E+02  0.29850087173E+02  0.41102715322E+02  0.00000000000E+00 0. -1.
</event>
<event>
 4    1  0.9360795E+003  0.2108835E+02  0.7546771E-02  0.1518007E+00
          2   -1    0    0  502    0  0.00000000000E+00  0.00000000000E+00  0.33756897966E+03  0.33756897966E+03  0.00000000000E+00 0.  1.
          2   -1    0    0  501    0 -0.00000000000E+00 -0.00000000000E+00 -0.55677262041E+01  0.55677262041E+01  0.00000000000E+00 0.  1.
          2    1    1    2  501    0  0.45745549509E+01  0.20586207233E+02  0.31590303327E+03  0.31660613530E+03  0.00000000000E+00 0.  1.
          2    1    1    2  502    0 -0.45745549509E+01 -0.20586207233E+02  0.16098220186E+02  0.26530570563E+02  0.00000000000E+00 0.  1.
</event>
<event>
 4    1  0.9360795E+003  0.2882945E+02  0.7546771E-02  0.1430049E+00
          2   -1    0    0  501    0  0.00000000000E+00  0.00000000000E+00  0.39611931798E+03  0.39611931798E+03  0.00000000000E+00 0.  1.
          2   -1    0    0  502    0 -0.00000000000E+00 -0.00000000000E+00 -0.68611285459E+02  0.68611285459E+02  0.00000000000E+00 0. -1.
          2    1    1    2  501    0  0.31334381531E+01  0.28658658928E+02 -0.65030721564E+02  0.71134604190E+02  0.00000000000E+00 0. -1.
          2    1    1    2  502    0 -0.31334381531E+01 -0.28658658928E+02  0.39253875408E+03  0.39359599925E+03  0.00000000000E+00 0.  1.
</event>
<event>
 4    1  0.9360795E+003  0.2349336E+02  0.7546771E-02  0.1486394E+00
          2   -1    0    0  501    0  0.00000000000E+00  0.00000000000E+00  0.38273873973E+02  0.38273873973E+02  0.00000000000E+00 0.  1.
          2   -1    0    0  502    0 -0.00000000000E+00 -0.00000000000E+00 -0.71085574794E+02  0.71085574794E+02  0.00000000000E+00 0. -1.
          2    1    1    2  501    0 -0.17979929930E+02  0.15121503243E+02 -0.65225243379E+02  0.69327268189E+02  0.00000000000E+00 0. -1.
          2    1    1    2  502    0  0.17979929930E+02 -0.15121503243E+02  0.32413542558E+02  0.40032180578E+02  0.00000000000E+00 0.  1.
</event>
<event>
 4    1  0.9360795E+003  0.4576225E+02  0.7546771E-02  0.1317671E+00
          2   -1    0    0  502    0  0.00000000000E+00  0.00000000000E+00  0.12288855336E+04  0.12288855336E+04  0.00000000000E+00 0. -1.
          2   -1    0    0  501    0 -0.00000000000E+00 -0.00000000000E+00 -0.58328718057E+01  0.58328718057E+01  0.00000000000E+00 0.  1.
          2    1    1    2  501    0  0.11070240239E+02  0.44403077795E+02  0.11309305244E+04  0.11318560132E+04  0.00000000000E+00 0. -1.
          2    1    1    2  502    0 -0.11070240239E+02 -0.44403077795E+02  0.92122137344E+02  0.10286239218E+03  0.00000000000E+00 0.  1.
</event>
<event>
 4    1  0.9360795E+003  0.2320774E+02  0.7546771E-02  0.1489906E+00
          2   -1    0    0  502    0  0.00000000000E+00  0.00000000000E+00  0.78091486506E+03  0.78091486506E+03  0.00000000000E+00 0. -1.
          2   -1    0    0  501    0 -0.00000000000E+00 -0.00000000000E+00 -0.64428617283E+01  0.64428617283E+01  0.00000000000E+00 0.  1.
          2    1    1    2  501    0 -0.22733051384E+02  0.46698551980E+01  0.75924708429E+03  0.75960169442E+03  0.00000000000E+00 0. -1.
          2    1    1    2  502    0  0.22733051384E+02 -0.46698551980E+01  0.15224919049E+02  0.27756032369E+02  0.00000000000E+00 0.  1.
</event>
<event>
 4    1  0.9360795E+003  0.2117239E+02  0.7546771E-02  0.1516818E+00
          2   -1    0    0  501    0  0.00000000000E+00  0.00000000000E+00  0.44046948200E+02  0.44046948200E+02  0.00000000000E+00 0.  1.
          2   -1    0    0  502    0 -0.00000000000E+00 -0.00000000000E+00 -0.10646871191E+03  0.10646871191E+03  0.00000000000E+00 0.  1.
          2    1    1    2  501    0  0.10822616459E+02 -0.18197284294E+02 -0.10278152520E+03  0.10493956406E+03  0.00000000000E+00 0.  1.
          2    1    1    2  502    0 -0.10822616459E+02  0.18197284294E+02  0.40359761496E+02  0.45576096045E+02  0.00000000000E+00 0.  1.
</event>
<event>
 4    1  0.9360795E+003  0.3158552E+02  0.7546771E-02  0.1406301E+00
          2   -1    0    0  502    0  0.00000000000E+00  0.00000000000E+00  0.19312085420E+02  0.19312085420E+02  0.00000000000E+00 0.  1.
          2   -1    0    0  501    0 -0.00000000000E+00 -0.00000000000E+00 -0.60001213540E+03  0.60001213540E+03  0.00000000000E+00 0. -1.
          2    1    1    2  501    0 -0.16080667529E+02 -0.27185610407E+02  0.56816424148E+01  0.32092465500E+02  0.00000000000E+00 0.  1.
          2    1    1    2  502    0  0.16080667529E+02  0.27185610407E+02 -0.58638169239E+03  0.58723175532E+03  0.00000000000E+00 0. -1.
</event>
<event>
 4    1  0.9360795E+003  0.2792048E+02  0.7546771E-02  0.1438575E+00
          2   -1    0    0  501    0  0.00000000000E+00  0.00000000000E+00  0.25657324943E+02  0.25657324943E+02  0.00000000000E+00 0.  1.
          2   -1    0    0  502    0 -0.00000000000E+00 -0.00000000000E+00 -0.72070901986E+03  0.72070901986E+03  0.00000000000E+00 0.  1.
          2    1    1    2  501    0  0.13961847316E+01 -0.27885549624E+02 -0.71275809259E+03  0.71330473976E+03  0.00000000000E+00 0.  1.
          2    1    1    2  502    0 -0.13961847316E+01  0.27885549624E+02  0.17706397672E+02  0.33061605045E+02  0.00000000000E+00 0.  1.
</event>
<event>
 4    1  0.9360795E+003  0.2142206E+02  0.7546771E-02  0.1513324E+00
          2   -1    0    0  501    0  0.00000000000E+00  0.00000000000E+00  0.16028668094E+03  0.16028668094E+03  0.00000000000E+00 0.  1.
          2   -1    0    0  502    0 -0.00000000000E+00 -0.00000000000E+00 -0.87176867400E+03  0.87176867400E+03  0.00000000000E+00 0. -1.
          2    1    1    2  501    0 -0.14109337732E+02 -0.16119276241E+02 -0.87092061980E+03  0.87118403938E+03  0.00000000000E+00 0. -1.
          2    1    1    2  502    0  0.14109337732E+02  0.16119276241E+02  0.15943862674E+03  0.16087131557E+03  0.00000000000E+00 0.  1.
</event>
<event>
 4    1  0.9360795E+003  0.2032013E+02  0.7546771E-02  0.1529197E+00
          2   -1    0    0  501    0  0.00000000000E+00  0.00000000000E+00  0.11484231829E+01  0.11484231829E+01  0.00000000000E+00 0.  1.
          2   -1    0    0  502    0 -0.00000000000E+00 -0.00000000000E+00 -0.12005855228E+04  0.12005855228E+04  0.00000000000E+00 0. -1.
          2    1    1    2  501    0 -0.17480014726E+02 -0.10361304415E+02 -0.11026291078E+04  0.11028163296E+04  0.00000000000E+00 0. -1.
          2    1    1    2  502    0  0.17480014726E+02  0.10361304415E+02 -0.96807991796E+02  0.98917616326E+02  0.00000000000E+00 0.  1.
</event>
<event>
 4    1  0.9360795E+003  0.4251999E+02  0.7546771E-02  0.1334319E+00
          2   -1    0    0  501    0  0.00000000000E+00  0.00000000000E+00  0.25971119366E+02  0.25971119366E+02  0.00000000000E+00 0.  1.
          2   -1    0    0  502    0 -0.00000000000E+00 -0.00000000000E+00 -0.39432313509E+03  0.39432313509E+03  0.00000000000E+00 0. -1.
          2    1    1    2  501    0  0.37716200616E+02  0.19632568151E+02 -0.37487336947E+03  0.37727707678E+03  0.00000000000E+00 0. -1.
          2    1    1    2  502    0 -0.37716200616E+02 -0.19632568151E+02  0.65213537450E+01  0.43017177682E+02  0.00000000000E+00 0.  1.
</event>
<event>
 4    1  0.9360795E+003  0.3371805E+02  0.7546771E-02  0.1389807E+00
          2   -1    0    0  502    0  0.00000000000E+00  0.00000000000E+00  0.13190341856E+01  0.13190341856E+01  0.00000000000E+00 0. -1.
          2   -1    0    0  501    0 -0.00000000000E+00 -0.00000000000E+00 -0.23234404716E+04  0.23234404716E+04  0.00000000000E+00 0. -1.
          2    1    1    2  501    0 -0.21635129034E+02  0.25861716575E+02 -0.23916006711E+03  0.24152524690E+03  0.00000000000E+00 0. -1.
          2    1    1    2  502    0  0.21635129034E+02 -0.25861716575E+02 -0.20829613703E+04  0.20832342589E+04  0.00000000000E+00 0. -1.
</event>
<event>
 4    1  0.9360795E+003  0.2051688E+02  0.7546771E-02  0.1526276E+00
          2   -1    0    0  502    0  0.00000000000E+00  0.00000000000E+00  0.27274639033E+01  0.27274639033E+01  0.00000000000E+00 0.  1.
          2   -1    0    0  501    0 -0.00000000000E+00 -0.00000000000E+00 -0.14958375087E+04  0.14958375087E+04  0.00000000000E+00 0.  1.
          2    1    1    2  501    0 -0.11291165825E+02 -0.17130434581E+02 -0.36978607981E+02  0.42289001677E+02  0.00000000000E+00 0.  1.
          2    1    1    2  502    0  0.11291165825E+02  0.17130434581E+02 -0.14561314369E+04  0.14562759710E+04  0.00000000000E+00 0.  1.
</event>
<event>
 4    1  0.9360795E+003  0.2367855E+02  0.7546771E-02  0.1484149E+00
          2   -1    0    0  501    0  0.00000000000E+00  0.00000000000E+00  0.22114466995E+03  0.22114466995E+03  0.00000000000E+00 0. -1.
          2   -1    0    0  502    0 -0.00000000000E+00 -0.00000000000E+00 -0.45827638712E+01  0.45827638712E+01  0.00000000000E+00 0. -1.
          2    1    1    2  501    0  0.23414588729E+02  0.35257537473E+01  0.32841950195E+02  0.40487869756E+02  0.00000000000E+00 0. -1.
          2    1    1    2  502    0 -0.23414588729E+02 -0.35257537473E+01  0.18371995588E+03  0.18523956406E+03  0.00000000000E+00 0. -1.
</event>
<event>
 4    1  0.9360795E+003  0.2111197E+02  0.7546771E-02  0.1517672E+00
          2   -1    0    0  502    0  0.00000000000E+00  0.00000000000E+00  0.26791234921E+02  0.26791234921E+02  0.00000000000E+00 0. -1.
          2   -1    0    0  501    0 -0.00000000000E+00 -0.00000000000E+00 -0.47512440380E+03  0.47512440380E+03  0.00000000000E+00 0.  1.
          2    1    1    2  501    0  0.10383473609E+02 -0.18382023333E+02  0.22358407104E+02  0.30750832090E+02  0.00000000000E+00 0. -1.
          2    1    1    2  502    0 -0.10383473609E+02  0.18382023333E+02 -0.47069157598E+03  0.47116480663E+03  0.00000000000E+00 0.  1.
</event>
<event>
 4    1  0.9360795E+003  0.2556736E+02  0.7546771E-02  0.1462555E+00
          2   -1    0    0  502    0  0.00000000000E+00  0.00000000000E+00  0.14802746391E+01  0.14802746391E+01  0.00000000000E+00 0. -1.
          2   -1    0    0  501    0 -0.00000000000E+00 -0.00000000000E+00 -0.98646898205E+03  0.98646898205E+03  0.00000000000E+00 0. -1.
          2    1    1    2  501    0 -0.60568669782E+01 -0.24839572035E+02 -0.12537373091E+03  0.12795414170E+03  0.00000000000E+00 0. -1.
          2    1    1    2  502    0  0.60568669782E+01  0.24839572035E+02 -0.85961497650E+03  0.85999511499E+03  0.00000000000E+00 0. -1.
</event>
<event>
 4    1  0.9360795E+003  0.5331196E+02  0.7546771E-02  0.1284418E+00
          2   -1    0    0  501    0  0.00000000000E+00  0.00000000000E+00  0.44671018513E+01  0.44671018513E+01  0.00000000000E+00 0.  1.
          2   -1    0    0  502    0 -0.00000000000E+00 -0.00000000000E+00 -0.11371489754E+04  0.11371489754E+04  0.00000000000E+00 0. -1.
          2    1    1    2  501    0  0.24603363542E+02  0.47295243638E+02 -0.94518386594E+03  0.94668617081E+03  0.00000000000E+00 0. -1.
          2    1    1    2  502    0 -0.24603363542E+02 -0.47295243638E+02 -0.18749800762E+03  0.19492990645E+03  0.00000000000E+00 0.  1.
</event>
<event>
 4    1  0.9360795E+003  0.2917521E+02  0.7546771E-02  0.1426902E+00
          2   -1    0    0  501    0  0.00000000000E+00  0.00000000000E+00  0.17548378238E+02  0.17548378238E+02  0.00000000000E+00 0.  1.
          2   -1    0    0  502    0 -0.00000000000E+00 -0.00000000000E+00 -0.81620807554E+03  0.81620807554E+03  0.00000000000E+00 0. -1.
          2    1    1    2  501    0  0.27760543162E+02  0.89746932505E+01 -0.80363126975E+03  0.80416068705E+03  0.00000000000E+00 0. -1.
          2    1    1    2  502    0 -0.27760543162E+02 -0.89746932505E+01  0.49715724490E+01  0.29595766728E+02  0.00000000000E+00 0.  1.
</event>
<event>
 4    1  0.9360795E+003  0.2457874E+02  0.7546771E-02  0.1473572E+00
          2   -1    0    0  501    0  0.00000000000E+00  0.00000000000E+00  0.11345277801E+03  0.11345277801E+03  0.00000000000E+00 0. -1.
          2   -1    0    0  502    0 -0.00000000000E+00 -0.00000000000E+00 -0.82580278600E+01  0.82580278600E+01  0.00000000000E+00 0.  1.
          2    1    1    2  501    0  0.12317358624E+02  0.21269630235E+02  0.16328580113E+02  0.29508253460E+02  0.00000000000E+00 0.  1.
          2    1    1    2  502    0 -0.12317358624E+02 -0.21269630235E+02  0.88866170040E+02  0.92202552412E+02  0.00000000000E+00 0. -1.
</event>
<event>
 4    1  0.9360795E+003  0.2220240E+02  0.7546771E-02  0.1502764E+00
          2   -1    0    0  501    0  0.00000000000E+00  0.00000000000E+00  0.46180965399E+03  0.46180965399E+03  0.00000000000E+00 0.  1.
          2   -1    0    0  502    0 -0.00000000000E+00 -0.00000000000E+00 -0.56464153753E+01  0.56464153753E+01  0.00000000000E+00 0. -1.
          2    1    1    2  501    0 -0.21905686380E+02  0.36176304501E+01  0.17602341254E+02  0.28333527197E+02  0.00000000000E+00 0. -1.
          2    1    1    2  502    0  0.21905686380E+02 -0.36176304501E+01  0.43856089737E+03  0.43912254217E+03  0.00000000000E+00 0.  1.
</event>
<event>
 4    1  0.1780643E+004  0.2843356E+02  0.7546771E-02  0.1433716E+00
          2   -1    0    0  501    0  0.00000000000E+00  0.00000000000E+00  0.82868785186E+03  0.82868785186E+03  0.00000000000E+00 0. -1.
          2   -1    0    0  502    0 -0.00000000000E+00 -0.00000000000E+00 -0.10650768433E+04  0.10650768433E+04  0.00000000000E+00 0. -1.
          2    1    1    2  501    0  0.23034591320E+02 -0.16669573974E+02 -0.10646430769E+04  0.10650226985E+04  0.00000000000E+00 0. -1.
          2    1    1    2  502    0 -0.23034591320E+02  0.16669573974E+02  0.82825408543E+03  0.82874199672E+03  0.00000000000E+00 0. -1.
</event>
<event>
 4    1  0.9360795E+003  0.2136400E+02  0.7546771E-02  0.1514131E+00
          2   -1    0    0  502    0  0.00000000000E+00  0.00000000000E+00  0.29418142205E+01  0.29418142205E+01  0.00000000000E+00 0. -1.
          2   -1    0    0  501    0 -0.00000000000E+00 -0.00000000000E+00 -0.11592105429E+04  0.11592105429E+04  0.00000000000E+00 0. -1.
          2    1    1    2  501    0  0.88258722394E+01  0.19455709179E+02 -0.37340200801E+02  0.43019893495E+02  0.00000000000E+00 0. -1.
          2    1    1    2  502    0 -0.88258722394E+01 -0.19455709179E+02 -0.11189285279E+04  0.11191324636E+04  0.00000000000E+00 0. -1.
</event>
<event>
 4    1  0.9360795E+003  0.3216823E+02  0.7546771E-02  0.1401645E+00
          2   -1    0    0  501    0  0.00000000000E+00  0.00000000000E+00  0.10708610002E+02  0.10708610002E+02  0.00000000000E+00 0. -1.
          2   -1    0    0  502    0 -0.00000000000E+00 -0.00000000000E+00 -0.91223758279E+03  0.91223758279E+03  0.00000000000E+00 0.  1.
          2    1    1    2  501    0  0.31970822308E+02 -0.35583272442E+01 -0.88711197677E+03  0.88769502337E+03  0.00000000000E+00 0.  1.
          2    1    1    2  502    0 -0.31970822308E+02  0.35583272442E+01 -0.14416996014E+02  0.35251169426E+02  0.00000000000E+00 0. -1.
</event>
<event>
 4    1  0.9360795E+003  0.3437430E+02  0.7546771E-02  0.1385016E+00
          2   -1    0    0  501    0  0.00000000000E+00  0.00000000000E+00  0.16748849047E+02  0.16748849047E+02  0.00000000000E+00 0.  1.
          2   -1    0    0  502    0 -0.00000000000E+00 -0.00000000000E+00 -0.22426506495E+04  0.22426506495E+04  0.00000000000E+00 0. -1.
          2    1    1    2  501    0 -0.29191464642E+02 -0.18150782211E+02 -0.22247400300E+04  0.22250055716E+04  0.00000000000E+00 0. -1.
          2    1    1    2  502    0  0.29191464642E+02  0.18150782211E+02 -0.11617704779E+01  0.34393926985E+02  0.00000000000E+00 0.  1.
</event>
<event>
 4    1  0.9360795E+003  0.2281343E+02  0.7546771E-02  0.1494854E+00
          2   -1    0    0  502    0  0.00000000000E+00  0.00000000000E+00  0.19585206970E+01  0.19585206970E+01  0.00000000000E+00 0. -1.
          2   -1    0    0  501    0 -0.00000000000E+00 -0.00000000000E+00 -0.81432779278E+03  0.81432779278E+03  0.00000000000E+00 0.  1.
          2    1    1    2  501    0  0.12490978699E+02 -0.19090002643E+02 -0.71190752338E+02  0.74756778744E+02  0.00000000000E+00 0. -1.
          2    1    1    2  502    0 -0.12490978699E+02  0.19090002643E+02 -0.74117851975E+03  0.74152953473E+03  0.00000000000E+00 0.  1.
</event>
<event>
 4    1  0.9360795E+003  0.6711660E+02  0.7546771E-02  0.1237398E+00
          2   -1    0    0  502    0  0.00000000000E+00  0.00000000000E+00  0.10435156485E+04  0.10435156485E+04  0.00000000000E+00 0.  1.
          2   -1    0    0  501    0 -0.00000000000E+00 -0.00000000000E+00 -0.45608136414E+02  0.45608136414E+02  0.00000000000E+00 0.  1.
          2    1    1    2  501    0  0.67091353860E+02  0.18407620662E+01  0.10171038775E+04  0.10193159156E+04  0.00000000000E+00 0.  1.
          2    1    1    2  502    0 -0.67091353860E+02 -0.18407620662E+01 -0.19196365445E+02  0.69807869284E+02  0.00000000000E+00 0.  1.
</event>
<event>
 4    1  0.9360795E+003  0.2399763E+02  0.7546771E-02  0.1480337E+00
          2   -1    0    0  502    0  0.00000000000E+00  0.00000000000E+00  0.39826968613E+01  0.39826968613E+01  0.00000000000E+00 0. -1.
          2   -1    0    0  501    0 -0.00000000000E+00 -0.00000000000E+00 -0.86289474104E+03  0.86289474104E+03  0.00000000000E+00 0.  1.
          2    1    1    2  501    0 -0.46038098652E+01 -0.23551887667E+02 -0.33997436753E+02  0.41613846058E+02  0.00000000000E+00 0. -1.
          2    1    1    2  502    0  0.46038098652E+01  0.23551887667E+02 -0.82491460742E+03  0.82526359184E+03  0.00000000000E+00 0.  1.
</event>
<event>
 4    1  0.9360795E+003  0.2260130E+02  0.7546771E-02  0.1497566E+00
          2   -1    0    0  501    0  0.00000000000E+00  0.00000000000E+00  0.10079653378E+01  0.10079653378E+01  0.00000000000E+00 0. -1.
          2   -1    0    0  502    0 -0.00000000000E+00 -0.00000000000E+00 -0.56692338882E+03  0.56692338882E+03  0.00000000000E+00 0.  1.
          2    1    1    2  501    0  0.15247216823E+01  0.22549809535E+02 -0.37544677949E+03  0.37612644538E+03  0.00000000000E+00 0.  1.
          2    1    1    2  502    0 -0.15247216823E+01 -0.22549809535E+02 -0.19046864399E+03  0.19180490878E+03  0.00000000000E+00 0. -1.
</event>
<event>
 4    1  0.9360795E+003  0.6558827E+02  0.7546771E-02  0.1241943E+00
          2   -1    0    0  501    0  0.00000000000E+00  0.00000000000E+00  0.10566441064E+03  0.10566441064E+03  0.00000000000E+00 0.  1.
          2   -1    0    0  502    0 -0.00000000000E+00 -0.00000000000E+00 -0.12189749909E+03  0.12189749909E+03  0.00000000000E+00 0.  1.
          2    1    1    2  501    0 -0.65524034379E+02  0.29020319391E+01 -0.10097278992E+03  0.12040483867E+03  0.00000000000E+00 0.  1.
          2    1    1    2  502    0  0.65524034379E+02 -0.29020319391E+01  0.84739701473E+02  0.10715707105E+03  0.00000000000E+00 0.  1.
</event>
<event>
 4    1  0.9360795E+003  0.2187019E+02  0.7546771E-02  0.1507194E+00
          2   -1    0    0  501    0  0.00000000000E+00  0.00000000000E+00  0.90326500121E+01  0.90326500121E+01  0.00000000000E+00 0. -1.
          2   -1    0    0  502    0 -0.00000000000E+00 -0.00000000000E+00 -0.11427543352E+04  0.11427543352E+04  0.00000000000E+00 0.  1.
          2    1    1    2  501    0  0.31275394047E+01  0.21645413383E+02 -0.11292532012E+04  0.11294649608E+04  0.00000000000E+00 0.  1.
          2    1    1    2  502    0 -0.31275394047E+01 -0.21645413383E+02 -0.44684840400E+01  0.22322024389E+02  0.00000000000E+00 0. -1.
</event>
<event>
 4    1  0.9360795E+003  0.2974853E+02  0.7546771E-02  0.1421795E+00
          2   -1    0    0  502    0  0.00000000000E+00  0.00000000000E+00  0.20010113695E+03  0.20010113695E+03  0.00000000000E+00 0.  1.
          2   -1    0    0  501    0 -0.00000000000E+00 -0.00000000000E+00 -0.50542584640E+01  0.50542584640E+01  0.00000000000E+00 0.  1.
          2    1    1    2  501    0  0.21702432797E+02  0.20346489504E+02  0.13378543887E+03  0.13705297836E+03  0.00000000000E+00 0.  1.
          2    1    1    2  502    0 -0.21702432797E+02 -0.20346489504E+02  0.61261439619E+02  0.68102417054E+02  0.00000000000E+00 0.  1.
</event>
<event>
 4    1  0.9360795E+003  0.2129015E+02  0.7546771E-02  0.1515162E+00
          2   -1    0    0  501    0  0.00000000000E+00  0.00000000000E+00  0.97131942865E+00  0.97131942865E+00  0.00000000000E+00 0. -1.
          2   -1    0    0  502    0 -0.00000000000E+00 -0.00000000000E+00 -0.16123055568E+04  0.16123055568E+04  0.00000000000E+00 0. -1.
          2    1    1    2  501    0 -0.16097026794E+02  0.13933996317E+02 -0.14856240874E+04  0.14857766318E+04  0.00000000000E+00 0. -1.
          2    1    1    2  502    0  0.16097026794E+02 -0.13933996317E+02 -0.12571015001E+03  0.12750024447E+03  0.00000000000E+00 0. -1.
</event>
<event>
 4    1  0.9360795E+003  0.3216384E+02  0.7546771E-02  0.1401680E+00
          2   -1    0    0  501    0  0.00000000000E+00  0.00000000000E+00  0.34986112755E+03  0.34986112755E+03  0.00000000000E+00 0. -1.
          2   -1    0    0  502    0 -0.00000000000E+00 -0.00000000000E+00 -0.10228577062E+02  0.10228577062E+02  0.00000000000E+00 0. -1.
          2    1    1    2  501    0 -0.20482603654E+02  0.24798694911E+02  0.18010004699E+02  0.36862889076E+02  0.00000000000E+00 0. -1.
          2    1    1    2  502    0  0.20482603654E+02 -0.24798694911E+02  0.32162254578E+03  0.32322681553E+03  0.00000000000E+00 0. -1.
</event>
<event>
 4    1  0.9360795E+003  0.2498008E+02  0.7546771E-02  0.1469026E+00
          2   -1    0    0  501    0  0.00000000000E+00  0.00000000000E+00  0.17279300360E+04  0.17279300360E+04  0.00000000000E+00 0. -1.
          2   -1    0    0  502    0 -0.00000000000E+00 -0.00000000000E+00 -0.23814407198E+02  0.23814407198E+02  0.00000000000E+00 0.  1.
          2    1    1    2  501    0 -0.17178664995E+02  0.18135536925E+02 -0.17148055156E+02  0.30299505379E+02  0.00000000000E+00 0.  1.
          2    1    1    2  502    0  0.17178664995E+02 -0.18135536925E+02  0.17212636839E+04  0.17214449378E+04  0.00000000000E+00 0. -1.
</event>
<event>
 4    1  0.9360795E+003  0.3164516E+02  0.7546771E-02  0.1405819E+00
          2   -1    0    0  501    0  0.00000000000E+00  0.00000000000E+00  0.10809781580E+03  0.10809781580E+03  0.00000000000E+00 0.  1.
          2   -1    0    0  502    0 -0.00000000000E+00 -0.00000000000E+00 -0.10926473300E+04  0.10926473300E+04  0.00000000000E+00 0.  1.
          2    1    1    2  501    0 -0.12658780774E+02 -0.29002952484E+02 -0.10900967913E+04  0.10905560189E+04  0.00000000000E+00 0.  1.
          2    1    1    2  502    0  0.12658780774E+02  0.29002952484E+02  0.10554727710E+03  0.11018912690E+03  0.00000000000E+00 0.  1.
</event>
<event>
 4    1  0.9360795E+003  0.3104474E+02  0.7546771E-02  0.1410730E+00
          2   -1    0    0  501    0  0.00000000000E+00  0.00000000000E+00  0.21713541996E+03  0.21713541996E+03  0.00000000000E+00 0.  1.
          2   -1    0    0  502    0 -0.00000000000E+00 -0.00000000000E+00 -0.14904626833E+02  0.14904626833E+02  0.00000000000E+00 0.  1.
          2    1    1    2  501    0 -0.12757958745E+02  0.28302123287E+02  0.38936389445E+01  0.31287954841E+02  0.00000000000E+00 0.  1.
          2    1    1    2  502    0  0.12757958745E+02 -0.28302123287E+02  0.19833715418E+03  0.20075209195E+03  0.00000000000E+00 0.  1.
</event>
<event>
 4    1  0.9360795E+003  0.2587053E+02  0.7546771E-02  0.1459296E+00
          2   -1    0    0  502    0  0.00000000000E+00  0.00000000000E+00  0.52777159369E+00  0.52777159369E+00  0.00000000000E+00 0.  1.
          2   -1    0    0  501    0 -0.00000000000E+00 -0.00000000000E+00 -0.12830426286E+04  0.12830426286E+04  0.00000000000E+00 0.  1.
          2    1    1    2  501    0 -0.25507499754E+02 -0.43187663452E+01 -0.71044220061E+03  0.71091307815E+03  0.00000000000E+00 0.  1.
          2    1    1    2  502    0  0.25507499754E+02  0.43187663452E+01 -0.57207265644E+03  0.57265732208E+03  0.00000000000E+00 0.  1.
</event>
<event>
 4    1  0.9360795E+003  0.3129749E+02  0.7546771E-02  0.1408647E+00
          2   -1    0    0  501    0  0.00000000000E+00  0.00000000000E+00  0.33029672636E+03  0.33029672636E+03  0.00000000000E+00 0.  1.
          2   -1    0    0  502    0 -0.00000000000E+00 -0.00000000000E+00 -0.58486566806E+03  0.58486566806E+03  0.00000000000E+00 0.  1.
          2    1    1    2  501    0  0.93622731909E+01  0.29864373306E+02 -0.58370408998E+03  0.58454255415E+03  0.00000000000E+00 0.  1.
          2    1    1    2  502    0 -0.93622731909E+01 -0.29864373306E+02  0.32913514828E+03  0.33061984028E+03  0.00000000000E+00 0.  1.
</event>
<event>
 4    1  0.9360795E+003  0.2087275E+02  0.7546771E-02  0.1521089E+00
          2   -1    0    0  501    0  0.00000000000E+00  0.00000000000E+00  0.47823245723E+01  0.47823245723E+01  0.00000000000E+00 0. -1.
          2   -1    0    0  502    0 -0.00000000000E+00 -0.00000000000E+00 -0.12390355342E+04  0.12390355342E+04  0.00000000000E+00 0. -1.
          2    1    1    2  501    0 -0.77637421970E+01 -0.19375141463E+02 -0.12157360721E+04  0.12159152392E+04  0.00000000000E+00 0. -1.
          2    1    1    2  502    0  0.77637421970E+01  0.19375141463E+02 -0.18517137540E+02  0.27902619632E+02  0.00000000000E+00 0. -1.
</event>
<event>
 4    1  0.9360795E+003  0.2537551E+02  0.7546771E-02  0.1464646E+00
          2   -1    0    0  501    0  0.00000000000E+00  0.00000000000E+00  0.72234106855E+02  0.72234106855E+02  0.00000000000E+00 0.  1.
          2   -1    0    0  502    0 -0.00000000000E+00 -0.00000000000E+00 -0.19812971264E+02  0.19812971264E+02  0.00000000000E+00 0. -1.
          2    1    1    2  501    0  0.24331204329E+02  0.72048073818E+01 -0.79238038722E+01  0.26583894021E+02  0.00000000000E+00 0. -1.
          2    1    1    2  502    0 -0.24331204329E+02 -0.72048073818E+01  0.60344939463E+02  0.65463184099E+02  0.00000000000E+00 0.  1.
</event>
<event>
 4    1  0.9360795E+003  0.2170184E+02  0.7546771E-02  0.1509476E+00
          2   -1    0    0  502    0  0.00000000000E+00  0.00000000000E+00  0.12060436581E+01  0.12060436581E+01  0.00000000000E+00 0.  1.
          2   -1    0    0  501    0 -0.00000000000E+00 -0.00000000000E+00 -0.72054751995E+03  0.72054751995E+03  0.00000000000E+00 0.  1.
          2    1    1    2  501    0 -0.75548522704E+01  0.20344385673E+02 -0.11543425778E+03  0.11745653532E+03  0.00000000000E+00 0.  1.
          2    1    1    2  502    0  0.75548522704E+01 -0.20344385673E+02 -0.60390721852E+03  0.60429702829E+03  0.00000000000E+00 0.  1.
</event>
<event>
 4    1  0.9360795E+003  0.2088817E+02  0.7546771E-02  0.1520868E+00
          2   -1    0    0  501    0  0.00000000000E+00  0.00000000000E+00  0.14938190858E+03  0.14938190858E+03  0.00000000000E+00 0. -1.
          2   -1    0    0  502    0 -0.00000000000E+00 -0.00000000000E+00 -0.13915420713E+02  0.13915420713E+02  0.00000000000E+00 0. -1.
          2    1    1    2  501    0 -0.11128536881E+02 -0.17676856679E+02 -0.48424037850E+01  0.21442119056E+02  0.00000000000E+00 0. -1.
          2    1    1    2  502    0  0.11128536881E+02  0.17676856679E+02  0.14030889165E+03  0.14185521024E+03  0.00000000000E+00 0. -1.
</event>
<event>
 4    1  0.9360795E+003  0.2093837E+02  0.7546771E-02  0.1520147E+00
          2   -1    0    0  501    0  0.00000000000E+00  0.00000000000E+00  0.41832546138E+03  0.41832546138E+03  0.00000000000E+00 0. -1.
          2   -1    0    0  502    0 -0.00000000000E+00 -0.00000000000E+00 -0.17658239716E+03  0.17658239716E+03  0.00000000000E+00 0.  1.
          2    1    1    2  501    0 -0.12105886577E+02 -0.17083994422E+02 -0.17569838224E+03  0.17694161997E+03  0.00000000000E+00 0.  1.
          2    1    1    2  502    0  0.12105886577E+02  0.17083994422E+02  0.41744144646E+03  0.41796623857E+03  0.00000000000E+00 0. -1.
</event>
<event>
 4    1  0.9360795E+003  0.2307879E+02  0.7546771E-02  0.1491511E+00
          2   -1    0    0  501    0  0.00000000000E+00  0.00000000000E+00  0.21312773108E+01  0.21312773108E+01  0.00000000000E+00 0.  1.
          2   -1    0    0  502    0 -0.00000000000E+00 -0.00000000000E+00 -0.59855066321E+03  0.59855066321E+03  0.00000000000E+00 0. -1.
          2    1    1    2  501    0  0.23007470686E+02  0.18129686264E+01 -0.52742955641E+03  0.52793424547E+03  0.00000000000E+00 0. -1.
          2    1    1    2  502    0 -0.23007470686E+02 -0.18129686264E+01 -0.68989829490E+02  0.72747695054E+02  0.00000000000E+00 0.  1.
</event>
<event>
 4    1  0.9360795E+003  0.3390728E+02  0.7546771E-02  0.1388412E+00
          2   -1    0    0  502    0  0.00000000000E+00  0.00000000000E+00  0.59853508427E+03  0.59853508427E+03  0.00000000000E+00 0. -1.
          2   -1    0    0  501    0 -0.00000000000E+00 -0.00000000000E+00 -0.19111584825E+02  0.19111584825E+02  0.00000000000E+00 0.  1.
          2    1    1    2  501    0  0.23498196136E+02 -0.24444604877E+02  0.58260462843E+03  0.58359048741E+03  0.00000000000E+00 0. -1.
          2    1    1    2  502    0 -0.23498196136E+02  0.24444604877E+02 -0.31811289850E+01  0.34056181683E+02  0.00000000000E+00 0.  1.
</event>
<event>
 4    1  0.9360795E+003  0.2395009E+02  0.7546771E-02  0.1480900E+00
          2   -1    0    0  502    0  0.00000000000E+00  0.00000000000E+00  0.12123714064E+02  0.12123714064E+02  0.00000000000E+00 0. -1.
          2   -1    0    0  501    0 -0.00000000000E+00 -0.00000000000E+00 -0.15491375135E+04  0.15491375135E+04  0.00000000000E+00 0.  1.
          2    1    1    2  501    0  0.17848739129E+01  0.23883489903E+02  0.11050896729E+00  0.23950346074E+02  0.00000000000E+00 0. -1.
          2    1    1    2  502    0 -0.17848739129E+01 -0.23883489903E+02 -0.15371243084E+04  0.15373108815E+04  0.00000000000E+00 0.  1.
</event>
<event>
 4    1  0.9360795E+003  0.2139904E+02  0.7546771E-02  0.1513643E+00
          2   -1    0    0  502    0  0.00000000000E+00  0.00000000000E+00  0.52887715869E+03  0.52887715869E+03  0.00000000000E+00 0.  1.
          2   -1    0    0  501    0 -0.00000000000E+00 -0.00000000000E+00 -0.60601885235E+01  0.60601885235E+01  0.00000000000E+00 0.  1.
          2    1    1    2  501    0 -0.80489457631E+01  0.19827595786E+02  0.50903418112E+03  0.50948377465E+03  0.00000000000E+00 0.  1.
          2    1    1    2  502    0  0.80489457631E+01 -0.19827595786E+02  0.13782789055E+02  0.25453572572E+02  0.00000000000E+00 0.  1.
</event>
<event>
 4    1  0.9360795E+003  0.2243675E+02  0.7546771E-02  0.1499695E+00
          2   -1    0    0  501    0  0.00000000000E+00  0.00000000000E+00  0.30651555952E+03  0.30651555952E+03  0.00000000000E+00 0. -1.
          2   -1    0    0  502    0 -0.00000000000E+00 -0.00000000000E+00 -0.43395903773E+03  0.43395903773E+03  0.00000000000E+00 0. -1.
          2    1    1    2  501    0  0.21707438120E+02 -0.56740364577E+01 -0.43325777601E+03  0.43383834320E+03  0.00000000000E+00 0. -1.
          2    1    1    2  502    0 -0.21707438120E+02  0.56740364577E+01  0.30581429780E+03  0.30663625405E+03  0.00000000000E+00 0. -1.
</event>
<event>
 4    1  0.9360795E+003  0.8477805E+02  0.7546771E-02  0.1193169E+00
          2   -1    0    0  501    0  0.00000000000E+00  0.00000000000E+00  0.13884209425E+04  0.13884209425E+04  0.00000000000E+00 0.  1.
          2   -1    0    0  502    0 -0.00000000000E+00 -0.00000000000E+00 -0.54051939933E+02  0.54051939933E+02  0.00000000000E+00 0.  1.
          2    1    1    2  501    0 -0.81253739873E+02 -0.24189812096E+02 -0.18646099563E+02  0.86804344831E+02  0.00000000000E+00 0.  1.
          2    1    1    2  502    0  0.81253739873E+02  0.24189812096E+02  0.13530151021E+04  0.13556685376E+04  0.00000000000E+00 0.  1.
</event>
<event>
 4    1  0.9360795E+003  0.2385705E+02  0.7546771E-02  0.1482008E+00
          2   -1    0    0  501    0  0.00000000000E+00  0.00000000000E+00  0.39493932645E+01  0.39493932645E+01  0.00000000000E+00 0.  1.
          2   -1    0    0  502    0 -0.00000000000E+00 -0.00000000000E+00 -0.81409959567E+03  0.81409959567E+03  0.00000000000E+00 0.  1.
          2    1    1    2  501    0  0.16308996682E+02 -0.17411931231E+02 -0.77613465632E+03  0.77650123210E+03  0.00000000000E+00 0.  1.
          2    1    1    2  502    0 -0.16308996682E+02  0.17411931231E+02 -0.34015546086E+02  0.41547756829E+02  0.00000000000E+00 0.  1.
</event>
<event>
 4    1  0.9360795E+003  0.3783842E+02  0.7546771E-02  0.1361640E+00
          2   -1    0    0  501    0  0.00000000000E+00  0.00000000000E+00  0.30485131771E+03  0.30485131771E+03  0.00000000000E+00 0.  1.
          2   -1    0    0  502    0 -0.00000000000E+00 -0.00000000000E+00 -0.47811209042E+01  0.47811209042E+01  0.00000000000E+00 0.  1.
          2    1    1    2  501    0 -0.95876655987E+01  0.36603584294E+02  0.17062686425E+03  0.17477205875E+03  0.00000000000E+00 0.  1.
          2    1    1    2  502    0  0.95876655987E+01 -0.36603584294E+02  0.12944333256E+03  0.13486037987E+03  0.00000000000E+00 0.  1.
</event>
<event>
 4    1  0.9360795E+003  0.2582157E+02  0.7546771E-02  0.1459819E+00
          2   -1    0    0  501    0  0.00000000000E+00  0.00000000000E+00  0.29353983284E+02  0.29353983284E+02  0.00000000000E+00 0.  1.
          2   -1    0    0  502    0 -0.00000000000E+00 -0.00000000000E+00 -0.28720979291E+03  0.28720979291E+03  0.00000000000E+00 0. -1.
          2    1    1    2  501    0  0.10269584579E+02 -0.23691546112E+02 -0.28082196076E+03  0.28200660874E+03  0.00000000000E+00 0. -1.
          2    1    1    2  502    0 -0.10269584579E+02  0.23691546112E+02  0.22966151138E+02  0.34557167457E+02  0.00000000000E+00 0.  1.
</event>
<event>
 4    1  0.9360795E+003  0.2473931E+02  0.7546771E-02  0.1471741E+00
          2   -1    0    0  502    0  0.00000000000E+00  0.00000000000E+00  0.15640359227E+02  0.15640359227E+02  0.00000000000E+00 0.  1.
          2   -1    0    0  501    0 -0.00000000000E+00 -0.00000000000E+00 -0.60021214661E+03  0.60021214661E+03  0.00000000000E+00 0.  1.
          2    1    1    2  501    0 -0.81936058202E+01 -0.23343053871E+02  0.54333497170E+01  0.25328928708E+02  0.00000000000E+00 0.  1.
          2    1    1    2  502    0  0.81936058202E+01  0.23343053871E+02 -0.59000513710E+03  0.59052357713E+03  0.00000000000E+00 0.  1.
</event>
<event>
 4    1  0.9360795E+003  0.2245861E+02  0.7546771E-02  0.1499411E+00
          2   -1    0    0  502    0  0.00000000000E+00  0.00000000000E+00  0.22468837073E+02  0.22468837073E+02  0.00000000000E+00 0.  1.
          2   -1    0    0  501    0 -0.00000000000E+00 -0.00000000000E+00 -0.39529687940E+02  0.39529687940E+02  0.00000000000E+00 0.  1.
          2    1    1    2  501    0  0.14944170997E+02  0.16764876108E+02  0.11847034416E+02  0.25391761305E+02  0.00000000000E+00 0.  1.
          2    1    1    2  502    0 -0.14944170997E+02 -0.16764876108E+02 -0.28907885283E+02  0.36606763709E+02  0.00000000000E+00 0.  1.
</event>
<event>
 4    1  0.9360795E+003  0.2724092E+02  0.7546771E-02  0.1445203E+00
          2   -1    0    0  502    0  0.00000000000E+00  0.00000000000E+00  0.32266917846E+01  0.32266917846E+01  0.00000000000E+00 0.  1.
          2   -1    0    0  501    0 -0.00000000000E+00 -0.00000000000E+00 -0.52262460926E+03  0.52262460926E+03  0.00000000000E+00 0. -1.
          2    1    1    2  501    0  0.17251825236E+02  0.21081803845E+02 -0.62951186983E+02  0.68592418458E+02  0.00000000000E+00 0.  1.
          2    1    1    2  502    0 -0.17251825236E+02 -0.21081803845E+02 -0.45644673049E+03  0.45725888259E+03  0.00000000000E+00 0. -1.
</event>
<event>
 4    1  0.9360795E+003  0.2175969E+02  0.7546771E-02  0.1508689E+00
          2   -1    0    0  501    0  0.00000000000E+00  0.00000000000E+00  0.21644098787E+03  0.21644098787E+03  0.00000000000E+00 0.  1.
          2   -1    0    0  502    0 -0.00000000000E+00 -0.00000000000E+00 -0.60365929045E+01  0.60365929045E+01  0.00000000000E+00 0. -1.
          2    1    1    2  501    0 -0.96943361552E+01 -0.19480863201E+02  0.16377360072E+02  0.27234208405E+02  0.00000000000E+00 0. -1.
          2    1    1    2  502    0  0.96943361552E+01  0.19480863201E+02  0.19402703489E+03  0.19524337237E+03  0.00000000000E+00 0.  1.
</event>
<event>
 4    1  0.9360795E+003  0.2173950E+02  0.7546771E-02  0.1508963E+00
          2   -1    0    0  501    0  0.00000000000E+00  0.00000000000E+00  0.84650464395E+02  0.84650464395E+02  0.00000000000E+00 0.  1.
          2   -1    0    0  502    0 -0.00000000000E+00 -0.00000000000E+00 -0.16731900669E+02  0.16731900669E+02  0.00000000000E+00 0.  1.
          2    1    1    2  501    0 -0.62024221590E+01 -0.20835924095E+02 -0.74192705826E+01  0.22970662800E+02  0.00000000000E+00 0.  1.
          2    1    1    2  502    0  0.62024221590E+01  0.20835924095E+02  0.75337834309E+02  0.78411702263E+02  0.00000000000E+00 0.  1.
</event>
<event>
 4    1  0.9360795E+003  0.2028702E+02  0.7546771E-02  0.1529692E+00
          2   -1    0    0  501    0  0.00000000000E+00  0.00000000000E+00  0.15138242565E+01  0.15138242565E+01  0.00000000000E+00 0. -1.
          2   -1    0    0  502    0 -0.00000000000E+00 -0.00000000000E+00 -0.27679516532E+03  0.27679516532E+03  0.00000000000E+00 0. -1.
          2    1    1    2  501    0 -0.45643249286E+01 -0.19766890325E+02 -0.11907803574E+03  0.12079379790E+03  0.00000000000E+00 0. -1.
          2    1    1    2  502    0  0.45643249286E+01  0.19766890325E+02 -0.15620330533E+03  0.15751519168E+03  0.00000000000E+00 0. -1.
</event>
<event>
 4    1  0.9360795E+003  0.2395699E+02  0.7546771E-02  0.1480818E+00
          2   -1    0    0  501    0  0.00000000000E+00  0.00000000000E+00  0.29480703679E+02  0.29480703679E+02  0.00000000000E+00 0.  1.
          2   -1    0    0  502    0 -0.00000000000E+00 -0.00000000000E+00 -0.64498135474E+03  0.64498135474E+03  0.00000000000E+00 0.  1.
          2    1    1    2  501    0  0.21601682134E+01  0.23859404411E+02 -0.63985283455E+03  0.64030116928E+03  0.00000000000E+00 0.  1.
          2    1    1    2  502    0 -0.21601682134E+01 -0.23859404411E+02  0.24352183491E+02  0.34160889133E+02  0.00000000000E+00 0.  1.
</event>
<event>
 4    1  0.9360795E+003  0.2192513E+02  0.7546771E-02  0.1506455E+00
          2   -1    0    0  501    0  0.00000000000E+00  0.00000000000E+00  0.94986724802E+00  0.94986724802E+00  0.00000000000E+00 0. -1.
          2   -1    0    0  502    0 -0.00000000000E+00 -0.00000000000E+00 -0.81583717744E+03  0.81583717744E+03  0.00000000000E+00 0. -1.
          2    1    1    2  501    0  0.21783089325E+02 -0.24916358496E+01 -0.65908732333E+03  0.65945190197E+03  0.00000000000E+00 0. -1.
          2    1    1    2  502    0 -0.21783089325E+02  0.24916358496E+01 -0.15579998686E+03  0.15733514272E+03  0.00000000000E+00 0. -1.
</event>
<event>
 4    1  0.9360795E+003  0.4703543E+02  0.7546771E-02  0.1311564E+00
          2   -1    0    0  501    0  0.00000000000E+00  0.00000000000E+00  0.71430620029E+03  0.71430620029E+03  0.00000000000E+00 0. -1.
          2   -1    0    0  502    0 -0.00000000000E+00 -0.00000000000E+00 -0.23068310838E+03  0.23068310838E+03  0.00000000000E+00 0. -1.
          2    1    1    2  501    0  0.40407175174E+02  0.24074713975E+02 -0.22750050852E+03  0.23231188742E+03  0.00000000000E+00 0. -1.
          2    1    1    2  502    0 -0.40407175174E+02 -0.24074713975E+02  0.71112360044E+03  0.71267742125E+03  0.00000000000E+00 0. -1.
</event>
<event>
 4    1  0.9360795E+003  0.2722434E+02  0.7546771E-02  0.1445367E+00
          2   -1    0    0  501    0  0.00000000000E+00  0.00000000000E+00  0.20230859515E+03  0.20230859515E+03  0.00000000000E+00 0.  1.
          2   -1    0    0  502    0 -0.00000000000E+00 -0.00000000000E+00 -0.56615650293E+01  0.56615650293E+01  0.00000000000E+00 0.  1.
          2    1    1    2  501    0 -0.20639261107E+02  0.17753473645E+02  0.36549814066E+02  0.45574706074E+02  0.00000000000E+00 0.  1.
          2    1    1    2  502    0  0.20639261107E+02 -0.17753473645E+02  0.16009721605E+03  0.16239545410E+03  0.00000000000E+00 0.  1.
</event>
<event>
 4    1  0.9360795E+003  0.2086129E+02  0.7546771E-02  0.1521255E+00
          2   -1    0    0  501    0  0.00000000000E+00  0.00000000000E+00  0.77283684722E+02  0.77283684722E+02  0.00000000000E+00 0.  1.
          2   -1    0    0  502    0 -0.00000000000E+00 -0.00000000000E+00 -0.26820615483E+02  0.26820615483E+02  0.00000000000E+00 0.  1.
          2    1    1    2  501    0 -0.42924094923E+01 -0.20414912663E+02 -0.21034752302E+02  0.29625229833E+02  0.00000000000E+00 0.  1.
          2    1    1    2  502    0  0.42924094923E+01  0.20414912663E+02  0.71497821541E+02  0.74479070372E+02  0.00000000000E+00 0.  1.
</event>
<event>
 4    1  0.9360795E+003  0.2325813E+02  0.7546771E-02  0.1489282E+00
          2   -1    0    0  501    0  0.00000000000E+00  0.00000000000E+00  0.40254578722E+00  0.40254578722E+00  0.00000000000E+00 0.  1.
          2   -1    0    0  502    0 -0.00000000000E+00 -0.00000000000E+00 -0.13630217366E+04  0.13630217366E+04  0.00000000000E+00 0.  1.
          2    1    1    2  501    0  0.19534576655E+02  0.12623038517E+02 -0.76226628661E+03  0.76262102809E+03  0.00000000000E+00 0.  1.
          2    1    1    2  502    0 -0.19534576655E+02 -0.12623038517E+02 -0.60035290420E+03  0.60080325429E+03  0.00000000000E+00 0.  1.
</event>
<event>
 4    1  0.9360795E+003  0.4525402E+02  0.7546771E-02  0.1320174E+00
          2   -1    0    0  501    0  0.00000000000E+00  0.00000000000E+00  0.15665974531E+04  0.15665974531E+04  0.00000000000E+00 0. -1.
          2   -1    0    0  502    0 -0.00000000000E+00 -0.00000000000E+00 -0.56767153919E+02  0.56767153919E+02  0.00000000000E+00 0. -1.
          2    1    1    2  501    0 -0.83892280196E+01 -0.44469625345E+02 -0.47366932483E+02  0.65509945947E+02  0.00000000000E+00 0. -1.
          2    1    1    2  502    0  0.83892280196E+01  0.44469625345E+02  0.15571972317E+04  0.15578546611E+04  0.00000000000E+00 0. -1.
</event>
<event>
 4    1  0.9360795E+003  0.2908524E+02  0.7546771E-02  0.1427716E+00
          2   -1    0    0  502    0  0.00000000000E+00  0.00000000000E+00  0.87310452035E+01  0.87310452035E+01  0.00000000000E+00 0. -1.
          2   -1    0    0  501    0 -0.00000000000E+00 -0.00000000000E+00 -0.10256087619E+03  0.10256087619E+03  0.00000000000E+00 0.  1.
          2    1    1    2  501    0  0.14164849176E+02  0.25402921680E+02 -0.33830146547E+02  0.44614237609E+02  0.00000000000E+00 0. -1.
          2    1    1    2  502    0 -0.14164849176E+02 -0.25402921680E+02 -0.59999684438E+02  0.66677683784E+02  0.00000000000E+00 0.  1.
</event>
<event>
 4    1  0.9360795E+003  0.2653368E+02  0.7546771E-02  0.1452349E+00
          2   -1    0    0  502    0  0.00000000000E+00  0.00000000000E+00  0.89118408034E+01  0.89118408034E+01  0.00000000000E+00 0. -1.
          2   -1    0    0  501    0 -0.00000000000E+00 -0.00000000000E+00 -0.14994186428E+03  0.14994186428E+03  0.00000000000E+00 0. -1.
          2    1    1    2  501    0 -0.17476700861E+02 -0.19964993648E+02 -0.15881768179E+02  0.30923560675E+02  0.00000000000E+00 0. -1.
          2    1    1    2  502    0  0.17476700861E+02  0.19964993648E+02 -0.12514825530E+03  0.12793014441E+03  0.00000000000E+00 0. -1.
</event>
<event>
 4    1  0.9360795E+003  0.2361211E+02  0.7546771E-02  0.1484952E+00
          2   -1    0    0  502    0  0.00000000000E+00  0.00000000000E+00  0.10594594627E+02  0.10594594627E+02  0.00000000000E+00 0. -1.
          2   -1    0    0  501    0 -0.00000000000E+00 -0.00000000000E+00 -0.57604673312E+03  0.57604673312E+03  0.00000000000E+00 0.  1.
          2    1    1    2  501    0 -0.20197104648E+02 -0.12231457027E+02 -0.31242280861E+01  0.23817900375E+02  0.00000000000E+00 0. -1.
          2    1    1    2  502    0  0.20197104648E+02  0.12231457027E+02 -0.56232791041E+03  0.56282342737E+03  0.00000000000E+00 0.  1.
</event>
<event>
 4    1  0.9360795E+003  0.2954884E+02  0.7546771E-02  0.1423558E+00
          2   -1    0    0  501    0  0.00000000000E+00  0.00000000000E+00  0.42749452851E+01  0.42749452851E+01  0.00000000000E+00 0.  1.
          2   -1    0    0  502    0 -0.00000000000E+00 -0.00000000000E+00 -0.22638354452E+03  0.22638354452E+03  0.00000000000E+00 0.  1.
          2    1    1    2  501    0 -0.23627406192E+02  0.17744842455E+02 -0.14712023148E+03  0.15005830956E+03  0.00000000000E+00 0.  1.
          2    1    1    2  502    0  0.23627406192E+02 -0.17744842455E+02 -0.74988367753E+02  0.80600180243E+02  0.00000000000E+00 0.  1.
</event>
<event>
 4    1  0.9360795E+003  0.2678978E+02  0.7546771E-02  0.1449731E+00
          2   -1    0    0  502    0  0.00000000000E+00  0.00000000000E+00  0.52590130317E+01  0.52590130317E+01  0.00000000000E+00 0. -1.
          2   -1    0    0  501    0 -0.00000000000E+00 -0.00000000000E+00 -0.30184570447E+03  0.30184570447E+03  0.00000000000E+00 0.  1.
          2    1    1    2  501    0  0.25920009407E+02  0.67709143437E+01 -0.34635039689E+02  0.43786734783E+02  0.00000000000E+00 0. -1.
          2    1    1    2  502    0 -0.25920009407E+02 -0.67709143437E+01 -0.26195165175E+03  0.26331798272E+03  0.00000000000E+00 0.  1.
</event>
<event>
 4    1  0.9360795E+003  0.2418993E+02  0.7546771E-02  0.1478073E+00
          2   -1    0    0  501    0  0.00000000000E+00  0.00000000000E+00  0.15708010878E+03  0.15708010878E+03  0.00000000000E+00 0.  1.
          2   -1    0    0  502    0 -0.00000000000E+00 -0.00000000000E+00 -0.52371061213E+01  0.52371061213E+01  0.00000000000E+00 0.  1.
          2    1    1    2  501    0  0.23122417978E+02 -0.71067828869E+01  0.32314786979E+02  0.40365802774E+02  0.00000000000E+00 0.  1.
          2    1    1    2  502    0 -0.23122417978E+02  0.71067828869E+01  0.11952821568E+03  0.12195141212E+03  0.00000000000E+00 0.  1.
</event>
<event>
 4    1  0.9360795E+003  0.2023514E+02  0.7546771E-02  0.1530471E+00
          2   -1    0    0  502    0  0.00000000000E+00  0.00000000000E+00  0.24242620314E+03  0.24242620314E+03  0.00000000000E+00 0.  1.
          2   -1    0    0  501    0 -0.00000000000E+00 -0.00000000000E+00 -0.56227532760E+01  0.56227532760E+01  0.00000000000E+00 0.  1.
          2    1    1    2  501    0  0.18636825356E+02  0.78822229637E+01  0.22213923191E+03  0.22305895869E+03  0.00000000000E+00 0.  1.
          2    1    1    2  502    0 -0.18636825356E+02 -0.78822229637E+01  0.14664217956E+02  0.24989997728E+02  0.00000000000E+00 0.  1.
</event>
<event>
 4    1  0.9360795E+003  0.2351776E+02  0.7546771E-02  0.1486097E+00
          2   -1    0    0  502    0  0.00000000000E+00  0.00000000000E+00  0.35741702295E+02  0.35741702295E+02  0.00000000000E+00 0. -1.
          2   -1    0    0  501    0 -0.00000000000E+00 -0.00000000000E+00 -0.15142417647E+04  0.15142417647E+04  0.00000000000E+00 0. -1.
          2    1    1    2  501    0  0.23361347563E+02 -0.27078289929E+01  0.31771594997E+02  0.39528712938E+02  0.00000000000E+00 0. -1.
          2    1    1    2  502    0 -0.23361347563E+02  0.27078289929E+01 -0.15102716574E+04  0.15104547540E+04  0.00000000000E+00 0. -1.
</event>
<event>
 4    1  0.1027233E+004  0.2466899E+02  0.7546771E-02  0.1472541E+00
          2   -1    0    0  502    0  0.00000000000E+00  0.00000000000E+00  0.74671061298E+03  0.74671061298E+03  0.00000000000E+00 0. -1.
          2   -1    0    0  501    0 -0.00000000000E+00 -0.00000000000E+00 -0.42776333195E+03  0.42776333195E+03  0.00000000000E+00 0.  1.
          2    1    1    2  501    0 -0.19625305007E+02 -0.14946780523E+02  0.74615093644E+03  0.74655862382E+03  0.00000000000E+00 0. -1.
          2    1    1    2  502    0  0.19625305007E+02  0.14946780523E+02 -0.42720365541E+03  0.42791532111E+03  0.00000000000E+00 0.  1.
</event>
<event>
 4    1  0.9360795E+003  0.2775072E+02  0.7546771E-02  0.1440209E+00
          2   -1    0    0  501    0  0.00000000000E+00  0.00000000000E+00  0.69357514831E+02  0.69357514831E+02  0.00000000000E+00 0. -1.
          2   -1    0    0  502    0 -0.00000000000E+00 -0.00000000000E+00 -0.84747875405E+02  0.84747875405E+02  0.00000000000E+00 0. -1.
          2    1    1    2  501    0 -0.23002185124E+02  0.15524233519E+02 -0.79523149974E+02  0.84226086983E+02  0.00000000000E+00 0. -1.
          2    1    1    2  502    0  0.23002185124E+02 -0.15524233519E+02  0.64132789400E+02  0.69879303252E+02  0.00000000000E+00 0. -1.
</event>
<event>
 4    1  0.9360795E+003  0.3703076E+02  0.7546771E-02  0.1366823E+00
          2   -1    0    0  501    0  0.00000000000E+00  0.00000000000E+00  0.16120402132E+02  0.16120402132E+02  0.00000000000E+00 0.  1.
          2   -1    0    0  502    0 -0.00000000000E+00 -0.00000000000E+00 -0.93749313225E+03  0.93749313225E+03  0.00000000000E+00 0. -1.
          2    1    1    2  501    0  0.36504225999E+02  0.62224141280E+01 -0.91534697481E+03  0.91609571621E+03  0.00000000000E+00 0. -1.
          2    1    1    2  502    0 -0.36504225999E+02 -0.62224141280E+01 -0.60257553005E+01  0.37517818171E+02  0.00000000000E+00 0.  1.
</event>
<event>
 4    1  0.9360795E+003  0.2042242E+02  0.7546771E-02  0.1527673E+00
          2   -1    0    0  501    0  0.00000000000E+00  0.00000000000E+00  0.30886863119E+00  0.30886863119E+00  0.00000000000E+00 0. -1.
          2   -1    0    0  502    0 -0.00000000000E+00 -0.00000000000E+00 -0.14690044218E+04  0.14690044218E+04  0.00000000000E+00 0. -1.
          2    1    1    2  501    0  0.15491277398E+02 -0.13307727616E+02 -0.94315581342E+03  0.94337689375E+03  0.00000000000E+00 0. -1.
          2    1    1    2  502    0 -0.15491277398E+02  0.13307727616E+02 -0.52553973979E+03  0.52593639671E+03  0.00000000000E+00 0. -1.
</event>
<event>
 4    1  0.9360795E+003  0.3009297E+02  0.7546771E-02  0.1418790E+00
          2   -1    0    0  501    0  0.00000000000E+00  0.00000000000E+00  0.11589711280E+04  0.11589711280E+04  0.00000000000E+00 0.  1.
          2   -1    0    0  502    0 -0.00000000000E+00 -0.00000000000E+00 -0.12914446323E+01  0.12914446323E+01  0.00000000000E+00 0.  1.
          2    1    1    2  501    0  0.24389308630E+01 -0.29993969966E+02  0.21424983614E+03  0.21635290362E+03  0.00000000000E+00 0.  1.
          2    1    1    2  502    0 -0.24389308630E+01  0.29993969966E+02  0.94342984721E+03  0.94390966899E+03  0.00000000000E+00 0.  1.
</event>
<event>
 4    1  0.9360795E+003  0.2962127E+02  0.7546771E-02  0.1422917E+00
          2   -1    0    0  501    0  0.00000000000E+00  0.00000000000E+00  0.51333467329E+02  0.51333467329E+02  0.00000000000E+00 0. -1.
          2   -1    0    0  502    0 -0.00000000000E+00 -0.00000000000E+00 -0.12470560154E+03  0.12470560154E+03  0.00000000000E+00 0. -1.
          2    1    1    2  501    0 -0.43200730865E+01  0.29304547404E+02 -0.11845128012E+03  0.12209883411E+03  0.00000000000E+00 0. -1.
          2    1    1    2  502    0  0.43200730865E+01 -0.29304547404E+02  0.45079145906E+02  0.53940234757E+02  0.00000000000E+00 0. -1.
</event>
<event>
 4    1  0.9360795E+003  0.2601750E+02  0.7546771E-02  0.1457735E+00
          2   -1    0    0  502    0  0.00000000000E+00  0.00000000000E+00  0.64107922209E+02  0.64107922209E+02  0.00000000000E+00 0.  1.
          2   -1    0    0  501    0 -0.00000000000E+00 -0.00000000000E+00 -0.89850727242E+03  0.89850727242E+03  0.00000000000E+00 0.  1.
          2    1    1    2  501    0  0.21986923931E+01 -0.25924431756E+02  0.61271491408E+02  0.66566553685E+02  0.00000000000E+00 0.  1.
          2    1    1    2  502    0 -0.21986923931E+01  0.25924431756E+02 -0.89567084162E+03  0.89604864094E+03  0.00000000000E+00 0.  1.
</event>
<event>
 4    1  0.1993919E+004  0.2661075E+02  0.7546771E-02  0.1451558E+00
          2   -1    0    0  501    0  0.00000000000E+00  0.00000000000E+00  0.83251551497E+03  0.83251551497E+03  0.00000000000E+00 0. -1.
          2   -1    0    0  502    0 -0.00000000000E+00 -0.00000000000E+00 -0.12982627648E+04  0.12982627648E+04  0.00000000000E+00 0.  1.
          2    1    1    2  501    0  0.26316570737E+02  0.39459218635E+01 -0.12979136978E+04  0.12981864655E+04  0.00000000000E+00 0.  1.
          2    1    1    2  502    0 -0.26316570737E+02 -0.39459218635E+01  0.83216644795E+03  0.83259181433E+03  0.00000000000E+00 0. -1.
</event>
<event>
 4    1  0.9360795E+003  0.2007636E+02  0.7546771E-02  0.1532872E+00
          2   -1    0    0  502    0  0.00000000000E+00  0.00000000000E+00  0.12936804909E+04  0.12936804909E+04  0.00000000000E+00 0.  1.
          2   -1    0    0  501    0 -0.00000000000E+00 -0.00000000000E+00 -0.10764790476E+02  0.10764790476E+02  0.00000000000E+00 0. -1.
          2    1    1    2  501    0 -0.19597449634E+02 -0.43589159158E+01  0.12841726868E+04  0.12843296110E+04  0.00000000000E+00 0.  1.
          2    1    1    2  502    0  0.19597449634E+02  0.43589159158E+01 -0.12569863683E+01  0.20115670380E+02  0.00000000000E+00 0. -1.
</event>
<event>
 4    1  0.9360795E+003  0.6050174E+02  0.7546771E-02  0.1258137E+00
          2   -1    0    0  502    0  0.00000000000E+00  0.00000000000E+00  0.17299208665E+03  0.17299208665E+03  0.00000000000E+00 0.  1.
          2   -1    0    0  501    0 -0.00000000000E+00 -0.00000000000E+00 -0.98788761294E+03  0.98788761294E+03  0.00000000000E+00 0. -1.
          2    1    1    2  501    0  0.39331472164E+01  0.60373756263E+02  0.16674217925E+03  0.17737929539E+03  0.00000000000E+00 0.  1.
          2    1    1    2  502    0 -0.39331472164E+01 -0.60373756263E+02 -0.98163770555E+03  0.98350040420E+03  0.00000000000E+00 0. -1.
</event>
<event>
 4    1  0.9360795E+003  0.2488030E+02  0.7546771E-02  0.1470147E+00
          2   -1    0    0  501    0  0.00000000000E+00  0.00000000000E+00  0.12835324782E+03  0.12835324782E+03  0.00000000000E+00 0.  1.
          2   -1    0    0  502    0 -0.00000000000E+00 -0.00000000000E+00 -0.41820028232E+02  0.41820028232E+02  0.00000000000E+00 0.  1.
          2    1    1    2  501    0  0.11067002770E+02  0.22283419378E+02 -0.36763509516E+02  0.44391271230E+02  0.00000000000E+00 0.  1.
          2    1    1    2  502    0 -0.11067002770E+02 -0.22283419378E+02  0.12329672911E+03  0.12578200482E+03  0.00000000000E+00 0.  1.
</event>
<event>
 4    1  0.9360795E+003  0.2052552E+02  0.7546771E-02  0.1526148E+00
          2   -1    0    0  501    0  0.00000000000E+00  0.00000000000E+00  0.15940905685E+04  0.15940905685E+04  0.00000000000E+00 0. -1.
          2   -1    0    0  502    0 -0.00000000000E+00 -0.00000000000E+00 -0.11456648481E+01  0.11456648481E+01  0.00000000000E+00 0. -1.
          2    1    1    2  501    0  0.15084573093E+02  0.13919499134E+02  0.96876358011E+02  0.99026893030E+02  0.00000000000E+00 0. -1.
          2    1    1    2  502    0 -0.15084573093E+02 -0.13919499134E+02  0.14960685456E+04  0.14962093403E+04  0.00000000000E+00 0. -1.
</event>
<event>
 4    1  0.9360795E+003  0.2994115E+02  0.7546771E-02  0.1420109E+00
          2   -1    0    0  502    0  0.00000000000E+00  0.00000000000E+00  0.59029993939E+03  0.59029993939E+03  0.00000000000E+00 0. -1.
          2   -1    0    0  501    0 -0.00000000000E+00 -0.00000000000E+00 -0.36005695316E+01  0.36005695316E+01  0.00000000000E+00 0.  1.
          2    1    1    2  501    0 -0.65491364943E+01  0.29216108445E+02  0.51915166290E+03  0.52001434718E+03  0.00000000000E+00 0. -1.
          2    1    1    2  502    0  0.65491364943E+01 -0.29216108445E+02  0.67547706955E+02  0.73886161738E+02  0.00000000000E+00 0.  1.
</event>
<event>
 4    1  0.9360795E+003  0.2195518E+02  0.7546771E-02  0.1506052E+00
          2   -1    0    0  501    0  0.00000000000E+00  0.00000000000E+00  0.91321864158E+03  0.91321864158E+03  0.00000000000E+00 0. -1.
          2   -1    0    0  502    0 -0.00000000000E+00 -0.00000000000E+00 -0.20392129205E+01  0.20392129205E+01  0.00000000000E+00 0.  1.
          2    1    1    2  501    0  0.20931666561E+02  0.66253519647E+01  0.61614835176E+02  0.65409616016E+02  0.00000000000E+00 0.  1.
          2    1    1    2  502    0 -0.20931666561E+02 -0.66253519647E+01  0.84956459348E+03  0.84984823848E+03  0.00000000000E+00 0. -1.
</event>
<event>
 4    1  0.9360795E+003  0.2428218E+02  0.7546771E-02  0.1476996E+00
          2   -1    0    0  502    0  0.00000000000E+00  0.00000000000E+00  0.64261664493E+00  0.64261664493E+00  0.00000000000E+00 0. -1.
          2   -1    0    0  501    0 -0.00000000000E+00 -0.00000000000E+00 -0.10146220603E+04  0.10146220603E+04  0.00000000000E+00 0. -1.
          2    1    1    2  501    0  0.15626641697E+02 -0.18585811768E+02 -0.34996280840E+03  0.35080420692E+03  0.00000000000E+00 0. -1.
          2    1    1    2  502    0 -0.15626641697E+02  0.18585811768E+02 -0.66401663524E+03  0.66446047001E+03  0.00000000000E+00 0. -1.
</event>
<event>
 4    1  0.9360795E+003  0.2319883E+02  0.7546771E-02  0.1490016E+00
          2   -1    0    0  502    0  0.00000000000E+00  0.00000000000E+00  0.68478553735E+01  0.68478553735E+01  0.00000000000E+00 0.  1.
          2   -1    0    0  501    0 -0.00000000000E+00 -0.00000000000E+00 -0.96784397259E+02  0.96784397259E+02  0.00000000000E+00 0.  1.
          2    1    1    2  501    0  0.20374477868E+02 -0.11093524157E+02 -0.22503136793E+02  0.32319913244E+02  0.00000000000E+00 0.  1.
          2    1    1    2  502    0 -0.20374477868E+02  0.11093524157E+02 -0.67433405092E+02  0.71312339388E+02  0.00000000000E+00 0.  1.
</event>
<event>
 4    1  0.9360795E+003  0.4473604E+02  0.7546771E-02  0.1322765E+00
          2   -1    0    0  502    0  0.00000000000E+00  0.00000000000E+00  0.64616186177E+01  0.64616186177E+01  0.00000000000E+00 0. -1.
          2   -1    0    0  501    0 -0.00000000000E+00 -0.00000000000E+00 -0.24245820188E+04  0.24245820188E+04  0.00000000000E+00 0.  1.
          2    1    1    2  501    0 -0.53796213100E+00  0.44732803160E+02 -0.73827190043E+02  0.86323618271E+02  0.00000000000E+00 0. -1.
          2    1    1    2  502    0  0.53796213100E+00 -0.44732803160E+02 -0.23442932101E+04  0.23447200192E+04  0.00000000000E+00 0.  1.
</event>
<event>
 4    1  0.9360795E+003  0.5631632E+02  0.7546771E-02  0.1272890E+00
          2   -1    0    0  502    0  0.00000000000E+00  0.00000000000E+00  0.16038854236E+04  0.16038854236E+04  0.00000000000E+00 0.  1.
          2   -1    0    0  501    0 -0.00000000000E+00 -0.00000000000E+00 -0.30371321311E+02  0.30371321311E+02  0.00000000000E+00 0. -1.
          2    1    1    2  501    0 -0.55797622694E+02  0.76258018923E+01  0.15768371324E+04  0.15778424730E+04  0.00000000000E+00 0.  1.
          2    1    1    2  502    0  0.55797622694E+02 -0.76258018923E+01 -0.33230300361E+01  0.56414271966E+02  0.00000000000E+00 0. -1.
</event>
<event>
 4    1  0.9360795E+003  0.3775201E+02  0.7546771E-02  0.1362187E+00
          2   -1    0    0  501    0  0.00000000000E+00  0.00000000000E+00  0.15113063903E+04  0.15113063903E+04  0.00000000000E+00 0.  1.
          2   -1    0    0  502    0 -0.00000000000E+00 -0.00000000000E+00 -0.49644028801E+01  0.49644028801E+01  0.00000000000E+00 0.  1.
          2    1    1    2  501    0  0.10208255075E+02  0.36345647791E+02  0.70832024179E+02  0.80264501708E+02  0.00000000000E+00 0.  1.
          2    1    1    2  502    0 -0.10208255075E+02 -0.36345647791E+02  0.14355099632E+04  0.14360062915E+04  0.00000000000E+00 0.  1.
</event>
<event>
 4    1  0.9360795E+003  0.3294210E+02  0.7546771E-02  0.1395638E+00
          2   -1    0    0  501    0  0.00000000000E+00  0.00000000000E+00  0.59964417092E+03  0.59964417092E+03  0.00000000000E+00 0. -1.
          2   -1    0    0  502    0 -0.00000000000E+00 -0.00000000000E+00 -0.65736667411E+01  0.65736667411E+01  0.00000000000E+00 0.  1.
          2    1    1    2  501    0  0.18193355875E+02  0.27462405613E+02  0.38500150720E+02  0.50669946966E+02  0.00000000000E+00 0.  1.
          2    1    1    2  502    0 -0.18193355875E+02 -0.27462405613E+02  0.55457035346E+03  0.55554789070E+03  0.00000000000E+00 0. -1.
</event>
<event>
 4    1  0.9360795E+003  0.2203193E+02  0.7546771E-02  0.1505026E+00
          2   -1    0    0  501    0  0.00000000000E+00  0.00000000000E+00  0.12435449547E+01  0.12435449547E+01  0.00000000000E+00 0.  1.
          2   -1    0    0  502    0 -0.00000000000E+00 -0.00000000000E+00 -0.11265264109E+04  0.11265264109E+04  0.00000000000E+00 0.  1.
          2    1    1    2  501    0  0.22016222904E+02  0.83174241144E+00 -0.10184826684E+04  0.10187209391E+04  0.00000000000E+00 0.  1.
          2    1    1    2  502    0 -0.22016222904E+02 -0.83174241144E+00 -0.10680019758E+03  0.10904901682E+03  0.00000000000E+00 0.  1.
</event>
<event>
 4    1  0.9360795E+003  0.2434326E+02  0.7546771E-02  0.1476286E+00
          2   -1    0    0  501    0  0.00000000000E+00  0.00000000000E+00  0.29644354468E+03  0.29644354468E+03  0.00000000000E+00 0.  1.
          2   -1    0    0  502    0 -0.00000000000E+00 -0.00000000000E+00 -0.21392977591E+01  0.21392977591E+01  0.00000000000E+00 0. -1.
          2    1    1    2  501    0  0.27624221369E+01  0.24186013612E+02  0.10892198378E+03  0.11160910707E+03  0.00000000000E+00 0. -1.
          2    1    1    2  502    0 -0.27624221369E+01 -0.24186013612E+02  0.18538226313E+03  0.18697373536E+03  0.00000000000E+00 0.  1.
</event>
<event>
 4    1  0.9360795E+003  0.2295107E+02  0.7546771E-02  0.1493113E+00
          2   -1    0    0  502    0  0.00000000000E+00  0.00000000000E+00  0.34827225314E+03  0.34827225314E+03  0.00000000000E+00 0.  1.
          2   -1    0    0  501    0 -0.00000000000E+00 -0.00000000000E+00 -0.49659081580E+03  0.49659081580E+03  0.00000000000E+00 0. -1.
          2    1    1    2  501    0 -0.15613048506E+02  0.16822139115E+02  0.34762846090E+03  0.34838527304E+03  0.00000000000E+00 0.  1.
          2    1    1    2  502    0  0.15613048506E+02 -0.16822139115E+02 -0.49594702355E+03  0.49647779590E+03  0.00000000000E+00 0. -1.
</event>
<event>
 4    1  0.9360795E+003  0.4083370E+02  0.7546771E-02  0.1343668E+00
          2   -1    0    0  502    0  0.00000000000E+00  0.00000000000E+00  0.27623670970E+02  0.27623670970E+02  0.00000000000E+00 0.  1.
          2   -1    0    0  501    0 -0.00000000000E+00 -0.00000000000E+00 -0.90855648070E+03  0.90855648070E+03  0.00000000000E+00 0. -1.
          2    1    1    2  501    0  0.99919749420E+01  0.39592314506E+02  0.11807425354E+02  0.42506543316E+02  0.00000000000E+00 0.  1.
          2    1    1    2  502    0 -0.99919749420E+01 -0.39592314506E+02 -0.89274023509E+03  0.89367360836E+03  0.00000000000E+00 0. -1.
</event>
<event>
 4    1  0.9360795E+003  0.3824070E+02  0.7546771E-02  0.1359115E+00
          2   -1    0    0  502    0  0.00000000000E+00  0.00000000000E+00  0.11801106006E+03  0.11801106006E+03  0.00000000000E+00 0. -1.
          2   -1    0    0  501    0 -0.00000000000E+00 -0.00000000000E+00 -0.88661197641E+03  0.88661197641E+03  0.00000000000E+00 0. -1.
          2    1    1    2  501    0 -0.32709773524E+02  0.19809635852E+02  0.11448845517E+03  0.12070607824E+03  0.00000000000E+00 0. -1.
          2    1    1    2  502    0  0.32709773524E+02 -0.19809635852E+02 -0.88308937152E+03  0.88391695823E+03  0.00000000000E+00 0. -1.
</event>
<event>
 4    1  0.9360795E+003  0.6625189E+02  0.7546771E-02  0.1239953E+00
          2   -1    0    0  502    0  0.00000000000E+00  0.00000000000E+00  0.10748653236E+02  0.10748653236E+02  0.00000000000E+00 0. -1.
          2   -1    0    0  501    0 -0.00000000000E+00 -0.00000000000E+00 -0.88000303255E+03  0.88000303255E+03  0.00000000000E+00 0. -1.
          2    1    1    2  501    0 -0.36436883881E+00 -0.66250890755E+02 -0.10857165741E+03  0.12718930019E+03  0.00000000000E+00 0. -1.
          2    1    1    2  502    0  0.36436883881E+00  0.66250890755E+02 -0.76068272190E+03  0.76356238559E+03  0.00000000000E+00 0. -1.
</event>
<event>
 4    1  0.9360795E+003  0.2248376E+02  0.7546771E-02  0.1499084E+00
          2   -1    0    0  501    0  0.00000000000E+00  0.00000000000E+00  0.30211540181E+03  0.30211540181E+03  0.00000000000E+00 0.  1.
          2   -1    0    0  502    0 -0.00000000000E+00 -0.00000000000E+00 -0.14102105010E+03  0.14102105010E+03  0.00000000000E+00 0.  1.
          2    1    1    2  501    0  0.13827544950E+01  0.22441196616E+02 -0.13970263411E+03  0.14150033672E+03  0.00000000000E+00 0.  1.
          2    1    1    2  502    0 -0.13827544950E+01 -0.22441196616E+02  0.30079698582E+03  0.30163611520E+03  0.00000000000E+00 0.  1.
</event>
<event>
 4    1  0.9360795E+003  0.2180370E+02  0.7546771E-02  0.1508092E+00
          2   -1    0    0  502    0  0.00000000000E+00  0.00000000000E+00  0.25435156725E+01  0.25435156725E+01  0.00000000000E+00 0. -1.
          2   -1    0    0  501    0 -0.00000000000E+00 -0.00000000000E+00 -0.45565352005E+03  0.45565352005E+03  0.00000000000E+00 0.  1.
          2    1    1    2  501    0 -0.86623584465E+00  0.21786485423E+02 -0.50610296347E+02  0.55107199239E+02  0.00000000000E+00 0. -1.
          2    1    1    2  502    0  0.86623584465E+00 -0.21786485423E+02 -0.40249970803E+03  0.40308983649E+03  0.00000000000E+00 0.  1.
</event>
<event>
 4    1  0.9360795E+003  0.4929659E+02  0.7546771E-02  0.1301251E+00
          2   -1    0    0  501    0  0.00000000000E+00  0.00000000000E+00  0.33248018419E+01  0.33248018419E+01  0.00000000000E+00 0. -1.
          2   -1    0    0  502    0 -0.00000000000E+00 -0.00000000000E+00 -0.74458315632E+03  0.74458315632E+03  0.00000000000E+00 0.  1.
          2    1    1    2  501    0 -0.22056347156E+01  0.49247222399E+02 -0.31996664486E+03  0.32374188416E+03  0.00000000000E+00 0. -1.
          2    1    1    2  502    0  0.22056347156E+01 -0.49247222399E+02 -0.42129170962E+03  0.42416607400E+03  0.00000000000E+00 0.  1.
</event>
<event>
 4    1  0.9360795E+003  0.2379667E+02  0.7546771E-02  0.1482730E+00
          2   -1    0    0  501    0  0.00000000000E+00  0.00000000000E+00  0.85657949628E+03  0.85657949628E+03  0.00000000000E+00 0.  1.
          2   -1    0    0  502    0 -0.00000000000E+00 -0.00000000000E+00 -0.86627797568E+00  0.86627797568E+00  0.00000000000E+00 0.  1.
          2    1    1    2  501    0 -0.10456937477E+02 -0.21376011811E+02  0.21920705631E+03  0.22049493182E+03  0.00000000000E+00 0.  1.
          2    1    1    2  502    0  0.10456937477E+02  0.21376011811E+02  0.63650616200E+03  0.63695084244E+03  0.00000000000E+00 0.  1.
</event>
<event>
 4    1  0.9360795E+003  0.2303932E+02  0.7546771E-02  0.1492005E+00
          2   -1    0    0  501    0  0.00000000000E+00  0.00000000000E+00  0.21873787253E+03  0.21873787253E+03  0.00000000000E+00 0. -1.
          2   -1    0    0  502    0 -0.00000000000E+00 -0.00000000000E+00 -0.59157409480E+01  0.59157409480E+01  0.00000000000E+00 0. -1.
          2    1    1    2  501    0  0.82734715262E+01 -0.21502552096E+02  0.20146549777E+02  0.30605449607E+02  0.00000000000E+00 0. -1.
          2    1    1    2  502    0 -0.82734715262E+01  0.21502552096E+02  0.19267558181E+03  0.19404816388E+03  0.00000000000E+00 0. -1.
</event>
<event>
 4    1  0.9360795E+003  0.2145525E+02  0.7546771E-02  0.1512863E+00
          2   -1    0    0  501    0  0.00000000000E+00  0.00000000000E+00  0.63783583335E+02  0.63783583335E+02  0.00000000000E+00 0. -1.
          2   -1    0    0  502    0 -0.00000000000E+00 -0.00000000000E+00 -0.10489822938E+03  0.10489822938E+03  0.00000000000E+00 0.  1.
          2    1    1    2  501    0  0.48105798727E+01  0.20908999516E+02 -0.10194519252E+03  0.10417845371E+03  0.00000000000E+00 0.  1.
          2    1    1    2  502    0 -0.48105798727E+01 -0.20908999516E+02  0.60830546471E+02  0.64503359009E+02  0.00000000000E+00 0. -1.
</event>
<event>
 4    1  0.9360795E+003  0.2403866E+02  0.7546771E-02  0.1479852E+00
          2   -1    0    0  501    0  0.00000000000E+00  0.00000000000E+00  0.95457469121E+01  0.95457469121E+01  0.00000000000E+00 0. -1.
          2   -1    0    0  502    0 -0.00000000000E+00 -0.00000000000E+00 -0.60681055743E+02  0.60681055743E+02  0.00000000000E+00 0. -1.
          2    1    1    2  501    0 -0.52437639858E+01  0.23459755890E+02 -0.23848320657E+02  0.33861476715E+02  0.00000000000E+00 0. -1.
          2    1    1    2  502    0  0.52437639858E+01 -0.23459755890E+02 -0.27286988173E+02  0.36365325940E+02  0.00000000000E+00 0. -1.
</event>
<event>
 4    1  0.9360795E+003  0.2969639E+02  0.7546771E-02  0.1422253E+00
          2   -1    0    0  501    0  0.00000000000E+00  0.00000000000E+00  0.43411700851E+03  0.43411700851E+03  0.00000000000E+00 0. -1.
          2   -1    0    0  502    0 -0.00000000000E+00 -0.00000000000E+00 -0.12104998158E+03  0.12104998158E+03  0.00000000000E+00 0. -1.
          2    1    1    2  501    0  0.15942514402E+02  0.25054182498E+02 -0.11871096567E+03  0.12236898788E+03  0.00000000000E+00 0. -1.
          2    1    1    2  502    0 -0.15942514402E+02 -0.25054182498E+02  0.43177799260E+03  0.43279800221E+03  0.00000000000E+00 0. -1.
</event>
<event>
 4    1  0.9360795E+003  0.2718460E+02  0.7546771E-02  0.1445763E+00
          2   -1    0    0  501    0  0.00000000000E+00  0.00000000000E+00  0.30486790141E+03  0.30486790141E+03  0.00000000000E+00 0. -1.
          2   -1    0    0  502    0 -0.00000000000E+00 -0.00000000000E+00 -0.91718882955E+02  0.91718882955E+02  0.00000000000E+00 0.  1.
          2    1    1    2  501    0  0.98997002697E+00  0.27166571271E+02 -0.89081020801E+02  0.93136624924E+02  0.00000000000E+00 0.  1.
          2    1    1    2  502    0 -0.98997002697E+00 -0.27166571271E+02  0.30223003926E+03  0.30345015944E+03  0.00000000000E+00 0. -1.
</event>
<event>
 4    1  0.9360795E+003  0.2268636E+02  0.7546771E-02  0.1496475E+00
          2   -1    0    0  502    0  0.00000000000E+00  0.00000000000E+00  0.34264647558E+02  0.34264647558E+02  0.00000000000E+00 0. -1.
          2   -1    0    0  501    0 -0.00000000000E+00 -0.00000000000E+00 -0.72823882298E+02  0.72823882298E+02  0.00000000000E+00 0.  1.
          2    1    1    2  501    0 -0.22392299722E+02 -0.36408578869E+01  0.28424163875E+02  0.36367623307E+02  0.00000000000E+00 0. -1.
          2    1    1    2  502    0  0.22392299722E+02  0.36408578869E+01 -0.66983398616E+02  0.70720906549E+02  0.00000000000E+00 0.  1.
</event>
<event>
 4    1  0.9360795E+003  0.3026264E+02  0.7546771E-02  0.1417327E+00
          2   -1    0    0  502    0  0.00000000000E+00  0.00000000000E+00  0.14385674919E+01  0.14385674919E+01  0.00000000000E+00 0. -1.
          2   -1    0    0  501    0 -0.00000000000E+00 -0.00000000000E+00 -0.96646948316E+03  0.96646948316E+03  0.00000000000E+00 0. -1.
          2    1    1    2  501    0 -0.10913975174E+02  0.28226099077E+02 -0.19979002490E+03  0.20206900201E+03  0.00000000000E+00 0. -1.
          2    1    1    2  502    0  0.10913975174E+02 -0.28226099077E+02 -0.76524089077E+03  0.76583904865E+03  0.00000000000E+00 0. -1.
</event>
<event>
 4    1  0.9360795E+003  0.2005092E+02  0.7546771E-02  0.1533259E+00
          2   -1    0    0  501    0  0.00000000000E+00  0.00000000000E+00  0.30824142340E+02  0.30824142340E+02  0.00000000000E+00 0. -1.
          2   -1    0    0  502    0 -0.00000000000E+00 -0.00000000000E+00 -0.48960867638E+02  0.48960867638E+02  0.00000000000E+00 0. -1.
          2    1    1    2  501    0 -0.13761024697E+02 -0.14583333933E+02 -0.43236554786E+02  0.47659617068E+02  0.00000000000E+00 0. -1.
          2    1    1    2  502    0  0.13761024697E+02  0.14583333933E+02  0.25099829488E+02  0.32125392910E+02  0.00000000000E+00 0. -1.
</event>
<event>
 4    1  0.9360795E+003  0.2357778E+02  0.7546771E-02  0.1485368E+00
          2   -1    0    0  502    0  0.00000000000E+00  0.00000000000E+00  0.42468291081E+00  0.42468291081E+00  0.00000000000E+00 0.  1.
          2   -1    0    0  501    0 -0.00000000000E+00 -0.00000000000E+00 -0.13361345442E+04  0.13361345442E+04  0.00000000000E+00 0.  1.
          2    1    1    2  501    0  0.42167674863E+01  0.23197641134E+02 -0.57262765367E+03  0.57311285226E+03  0.00000000000E+00 0.  1.
          2    1    1    2  502    0 -0.42167674863E+01 -0.23197641134E+02 -0.76308220758E+03  0.76344637480E+03  0.00000000000E+00 0.  1.
</event>
<event>
 4    1  0.9360795E+003  0.2207294E+02  0.7546771E-02  0.1504479E+00
          2   -1    0    0  502    0  0.00000000000E+00  0.00000000000E+00  0.35985349552E+03  0.35985349552E+03  0.00000000000E+00 0.  1.
          2   -1    0    0  501    0 -0.00000000000E+00 -0.00000000000E+00 -0.49616718007E+01  0.49616718007E+01  0.00000000000E+00 0.  1.
          2    1    1    2  501    0  0.21694877460E+02 -0.40677767455E+01  0.33298764008E+03  0.33371841867E+03  0.00000000000E+00 0.  1.
          2    1    1    2  502    0 -0.21694877460E+02  0.40677767455E+01  0.21904183646E+02  0.31096748654E+02  0.00000000000E+00 0.  1.
</event>
<event>
 4    1  0.9360795E+003  0.2977958E+02  0.7546771E-02  0.1421522E+00
          2   -1    0    0  501    0  0.00000000000E+00  0.00000000000E+00  0.32901527396E+03  0.32901527396E+03  0.00000000000E+00 0.  1.
          2   -1    0    0  502    0 -0.00000000000E+00 -0.00000000000E+00 -0.48603200060E+01  0.48603200060E+01  0.00000000000E+00 0.  1.
          2    1    1    2  501    0  0.25583146364E+02 -0.15242250902E+02  0.50662276349E+02  0.58766400565E+02  0.00000000000E+00 0.  1.
          2    1    1    2  502    0 -0.25583146364E+02  0.15242250902E+02  0.27349267760E+03  0.27510919340E+03  0.00000000000E+00 0.  1.
</event>
<event>
 4    1  0.9360795E+003  0.2105694E+02  0.7546771E-02  0.1518453E+00
          2   -1    0    0  501    0  0.00000000000E+00  0.00000000000E+00  0.10979175888E+04  0.10979175888E+04  0.00000000000E+00 0.  1.
          2   -1    0    0  502    0 -0.00000000000E+00 -0.00000000000E+00 -0.32011402820E+01  0.32011402820E+01  0.00000000000E+00 0.  1.
          2    1    1    2  501    0  0.11434216529E+02 -0.17682008510E+02  0.32698102315E+02  0.38891652415E+02  0.00000000000E+00 0.  1.
          2    1    1    2  502    0 -0.11434216529E+02  0.17682008510E+02  0.10620183462E+04  0.10622270766E+04  0.00000000000E+00 0.  1.
</event>
<event>
 4    1  0.9360795E+003  0.2368003E+02  0.7546771E-02  0.1484131E+00
          2   -1    0    0  502    0  0.00000000000E+00  0.00000000000E+00  0.85027958696E+01  0.85027958696E+01  0.00000000000E+00 0. -1.
          2   -1    0    0  501    0 -0.00000000000E+00 -0.00000000000E+00 -0.10710879261E+04  0.10710879261E+04  0.00000000000E+00 0. -1.
          2    1    1    2  501    0  0.18521025241E+02  0.14755184149E+02 -0.83791166767E+01  0.25118786426E+02  0.00000000000E+00 0. -1.
          2    1    1    2  502    0 -0.18521025241E+02 -0.14755184149E+02 -0.10542060135E+04  0.10544719355E+04  0.00000000000E+00 0. -1.
</event>
<event>
 4    1  0.9360795E+003  0.2930674E+02  0.7546771E-02  0.1425718E+00
          2   -1    0    0  501    0  0.00000000000E+00  0.00000000000E+00  0.15188274180E+04  0.15188274180E+04  0.00000000000E+00 0. -1.
          2   -1    0    0  502    0 -0.00000000000E+00 -0.00000000000E+00 -0.26318618527E+02  0.26318618527E+02  0.00000000000E+00 0.  1.
          2    1    1    2  501    0 -0.68061947890E+01  0.28505447960E+02 -0.17973647271E+02  0.34379308416E+02  0.00000000000E+00 0.  1.
          2    1    1    2  502    0  0.68061947890E+01 -0.28505447960E+02  0.15104824468E+04  0.15107667281E+04  0.00000000000E+00 0. -1.
</event>
<event>
 4    1  0.9360795E+003  0.3355732E+02  0.7546771E-02  0.1390999E+00
          2   -1    0    0  501    0  0.00000000000E+00  0.00000000000E+00  0.44728396977E+02  0.44728396977E+02  0.00000000000E+00 0. -1.
          2   -1    0    0  502    0 -0.00000000000E+00 -0.00000000000E+00 -0.13879016245E+04  0.13879016245E+04  0.00000000000E+00 0. -1.
          2    1    1    2  501    0  0.19607062950E+02 -0.27233378692E+02 -0.13813749845E+04  0.13817825233E+04  0.00000000000E+00 0. -1.
          2    1    1    2  502    0 -0.19607062950E+02  0.27233378692E+02  0.38201757003E+02  0.50847498174E+02  0.00000000000E+00 0. -1.
</event>
<event>
 4    1  0.9360795E+003  0.2179412E+02  0.7546771E-02  0.1508222E+00
          2   -1    0    0  501    0  0.00000000000E+00  0.00000000000E+00  0.35055339544E+02  0.35055339544E+02  0.00000000000E+00 0.  1.
          2   -1    0    0  502    0 -0.00000000000E+00 -0.00000000000E+00 -0.14860874173E+02  0.14860874173E+02  0.00000000000E+00 0.  1.
          2    1    1    2  501    0  0.21482571671E+02 -0.36719028108E+01  0.26833449297E+01  0.21958690669E+02  0.00000000000E+00 0.  1.
          2    1    1    2  502    0 -0.21482571671E+02  0.36719028108E+01  0.17511120441E+02  0.27957523048E+02  0.00000000000E+00 0.  1.
</event>
<event>
 4    1  0.9360795E+003  0.3048212E+02  0.7546771E-02  0.1415452E+00
          2   -1    0    0  502    0  0.00000000000E+00  0.00000000000E+00  0.41230265138E+00  0.41230265138E+00  0.00000000000E+00 0.  1.
          2   -1    0    0  501    0 -0.00000000000E+00 -0.00000000000E+00 -0.23415818685E+04  0.23415818685E+04  0.00000000000E+00 0. -1.
          2    1    1    2  501    0 -0.10067504581E+02 -0.28771597579E+02 -0.94358140225E+03  0.94407363174E+03  0.00000000000E+00 0.  1.
          2    1    1    2  502    0  0.10067504581E+02  0.28771597579E+02 -0.13975881636E+04  0.13979205394E+04  0.00000000000E+00 0. -1.
</event>
<event>
 4    1  0.9360795E+003  0.2320890E+02  0.7546771E-02  0.1489891E+00
          2   -1    0    0  502    0  0.00000000000E+00  0.00000000000E+00  0.41280038669E+01  0.41280038669E+01  0.00000000000E+00 0. -1.
          2   -1    0    0  501    0 -0.00000000000E+00 -0.00000000000E+00 -0.63691758430E+03  0.63691758430E+03  0.00000000000E+00 0.  1.
          2    1    1    2  501    0  0.20680042748E+02  0.10535129279E+02 -0.30585049002E+02  0.38393988324E+02  0.00000000000E+00 0. -1.
          2    1    1    2  502    0 -0.20680042748E+02 -0.10535129279E+02 -0.60220453143E+03  0.60265159985E+03  0.00000000000E+00 0.  1.
</event>
<event>
 4    1  0.9360795E+003  0.2018091E+02  0.7546771E-02  0.1531288E+00
          2   -1    0    0  501    0  0.00000000000E+00  0.00000000000E+00  0.74094759813E+01  0.74094759813E+01  0.00000000000E+00 0.  1.
          2   -1    0    0  502    0 -0.00000000000E+00 -0.00000000000E+00 -0.94911695438E+03  0.94911695438E+03  0.00000000000E+00 0. -1.
          2    1    1    2  501    0  0.10360668747E+02 -0.17318364734E+02 -0.93506164981E+03  0.93527940112E+03  0.00000000000E+00 0. -1.
          2    1    1    2  502    0 -0.10360668747E+02  0.17318364734E+02 -0.66458285884E+01  0.21247029241E+02  0.00000000000E+00 0.  1.
</event>
<event>
 4    1  0.9360795E+003  0.2052867E+02  0.7546771E-02  0.1526102E+00
          2   -1    0    0  502    0  0.00000000000E+00  0.00000000000E+00  0.14000316073E+01  0.14000316073E+01  0.00000000000E+00 0. -1.
          2   -1    0    0  501    0 -0.00000000000E+00 -0.00000000000E+00 -0.50054375204E+03  0.50054375204E+03  0.00000000000E+00 0. -1.
          2    1    1    2  501    0 -0.92370972324E+01  0.18333093447E+02 -0.91115346664E+02  0.93399318404E+02  0.00000000000E+00 0. -1.
          2    1    1    2  502    0  0.92370972324E+01 -0.18333093447E+02 -0.40802837376E+03  0.40854446524E+03  0.00000000000E+00 0. -1.
</event>
<event>
 4    1  0.9360795E+003  0.2278964E+02  0.7546771E-02  0.1495157E+00
          2   -1    0    0  501    0  0.00000000000E+00  0.00000000000E+00  0.30583191449E+03  0.30583191449E+03  0.00000000000E+00 0.  1.
          2   -1    0    0  502    0 -0.00000000000E+00 -0.00000000000E+00 -0.11057025243E+04  0.11057025243E+04  0.00000000000E+00 0. -1.
          2    1    1    2  501    0  0.57841696708E+01  0.22043387708E+02 -0.11051603336E+04  0.11053952825E+04  0.00000000000E+00 0. -1.
          2    1    1    2  502    0 -0.57841696708E+01 -0.22043387708E+02  0.30528972380E+03  0.30613915630E+03  0.00000000000E+00 0.  1.
</event>
<event>
 4    1  0.9360795E+003  0.2012457E+02  0.7546771E-02  0.1532140E+00
          2   -1    0    0  502    0  0.00000000000E+00  0.00000000000E+00  0.16669334620E+03  0.16669334620E+03  0.00000000000E+00 0. -1.
          2   -1    0    0  501    0 -0.00000000000E+00 -0.00000000000E+00 -0.23148888237E+02  0.23148888237E+02  0.00000000000E+00 0. -1.
          2    1    1    2  501    0  0.14464916986E+02  0.13991587638E+02  0.16157405672E+03  0.16282252349E+03  0.00000000000E+00 0. -1.
          2    1    1    2  502    0 -0.14464916986E+02 -0.13991587638E+02 -0.18029598765E+02  0.27019710947E+02  0.00000000000E+00 0. -1.
</event>
<event>
 4    1  0.9360795E+003  0.2754419E+02  0.7546771E-02  0.1442217E+00
          2   -1    0    0  501    0  0.00000000000E+00  0.00000000000E+00  0.17206425360E+04  0.17206425360E+04  0.00000000000E+00 0. -1.
          2   -1    0    0  502    0 -0.00000000000E+00 -0.00000000000E+00 -0.14942186336E+03  0.14942186336E+03  0.00000000000E+00 0. -1.
          2    1    1    2  501    0  0.25910523579E+02  0.93448997062E+01 -0.14804124860E+03  0.15058185039E+03  0.00000000000E+00 0. -1.
          2    1    1    2  502    0 -0.25910523579E+02 -0.93448997062E+01  0.17192619212E+04  0.17194825489E+04  0.00000000000E+00 0. -1.
</event>
<event>
 4    1  0.9360795E+003  0.5466210E+02  0.7546771E-02  0.1279133E+00
          2   -1    0    0  501    0  0.00000000000E+00  0.00000000000E+00  0.54851205866E+02  0.54851205866E+02  0.00000000000E+00 0. -1.
          2   -1    0    0  502    0 -0.00000000000E+00 -0.00000000000E+00 -0.81203850570E+03  0.81203850570E+03  0.00000000000E+00 0.  1.
          2    1    1    2  501    0  0.54200632102E+02  0.70878069758E+01 -0.79724784767E+03  0.79911956311E+03  0.00000000000E+00 0.  1.
          2    1    1    2  502    0 -0.54200632102E+02 -0.70878069758E+01  0.40060547841E+02  0.67770148453E+02  0.00000000000E+00 0. -1.
</event>
<event>
 4    1  0.9360795E+003  0.1267365E+03  0.7546771E-02  0.1124172E+00
          2   -1    0    0  501    0  0.00000000000E+00  0.00000000000E+00  0.11286406835E+03  0.11286406835E+03  0.00000000000E+00 0.  1.
          2   -1    0    0  502    0 -0.00000000000E+00 -0.00000000000E+00 -0.21181810724E+03  0.21181810724E+03  0.00000000000E+00 0. -1.
          2    1    1    2  501    0 -0.54914042867E+02 -0.11422162841E+03 -0.14247045018E+03  0.19068288249E+03  0.00000000000E+00 0. -1.
          2    1    1    2  502    0  0.54914042867E+02  0.11422162841E+03  0.43516411284E+02  0.13399929310E+03  0.00000000000E+00 0.  1.
</event>
<event>
 4    1  0.9360795E+003  0.3128852E+02  0.7546771E-02  0.1408720E+00
          2   -1    0    0  502    0  0.00000000000E+00  0.00000000000E+00  0.85720116276E+03  0.85720116276E+03  0.00000000000E+00 0.  1.
          2   -1    0    0  501    0 -0.00000000000E+00 -0.00000000000E+00 -0.26024941922E+01  0.26024941922E+01  0.00000000000E+00 0. -1.
          2    1    1    2  501    0 -0.14379459631E+02 -0.27788533626E+02  0.74934395227E+03  0.74999688683E+03  0.00000000000E+00 0.  1.
          2    1    1    2  502    0  0.14379459631E+02  0.27788533626E+02  0.10525471630E+03  0.10980677012E+03  0.00000000000E+00 0. -1.
</event>
<event>
 4    1  0.9360795E+003  0.2555328E+02  0.7546771E-02  0.1462708E+00
          2   -1    0    0  501    0  0.00000000000E+00  0.00000000000E+00  0.32857678418E+03  0.32857678418E+03  0.00000000000E+00 0. -1.
          2   -1    0    0  502    0 -0.00000000000E+00 -0.00000000000E+00 -0.14667530567E+03  0.14667530567E+03  0.00000000000E+00 0. -1.
          2    1    1    2  501    0 -0.10236446048E+02 -0.23413356727E+02 -0.14506004718E+03  0.14729354157E+03  0.00000000000E+00 0. -1.
          2    1    1    2  502    0  0.10236446048E+02  0.23413356727E+02  0.32696152569E+03  0.32795854827E+03  0.00000000000E+00 0. -1.
</event>
<event>
 4    1  0.9360795E+003  0.2280030E+02  0.7546771E-02  0.1495021E+00
          2   -1    0    0  501    0  0.00000000000E+00  0.00000000000E+00  0.13377331681E+04  0.13377331681E+04  0.00000000000E+00 0. -1.
          2   -1    0    0  502    0 -0.00000000000E+00 -0.00000000000E+00 -0.33439280409E+01  0.33439280409E+01  0.00000000000E+00 0. -1.
          2    1    1    2  501    0  0.90692597293E+01 -0.20918941107E+02  0.36821681563E+02  0.43309234606E+02  0.00000000000E+00 0. -1.
          2    1    1    2  502    0 -0.90692597293E+01  0.20918941107E+02  0.12975675585E+04  0.12977678616E+04  0.00000000000E+00 0. -1.
</event>
<event>
 4    1  0.9360795E+003  0.2063539E+02  0.7546771E-02  0.1524535E+00
          2   -1    0    0  501    0  0.00000000000E+00  0.00000000000E+00  0.45083761660E+03  0.45083761660E+03  0.00000000000E+00 0.  1.
          2   -1    0    0  502    0 -0.00000000000E+00 -0.00000000000E+00 -0.12757630987E+01  0.12757630987E+01  0.00000000000E+00 0. -1.
          2    1    1    2  501    0  0.19322698401E+02  0.72424060566E+01  0.10959099306E+03  0.11151683675E+03  0.00000000000E+00 0. -1.
          2    1    1    2  502    0 -0.19322698401E+02 -0.72424060566E+01  0.33997086044E+03  0.34059654295E+03  0.00000000000E+00 0.  1.
</event>
<event>
 4    1  0.9360795E+003  0.3141701E+02  0.7546771E-02  0.1407670E+00
          2   -1    0    0  501    0  0.00000000000E+00  0.00000000000E+00  0.57703103888E+03  0.57703103888E+03  0.00000000000E+00 0.  1.
          2   -1    0    0  502    0 -0.00000000000E+00 -0.00000000000E+00 -0.11475308759E+02  0.11475308759E+02  0.00000000000E+00 0.  1.
          2    1    1    2  501    0  0.27328083983E+02  0.15498529360E+02  0.11340155394E+02  0.33401013621E+02  0.00000000000E+00 0.  1.
          2    1    1    2  502    0 -0.27328083983E+02 -0.15498529360E+02  0.55421557472E+03  0.55510533402E+03  0.00000000000E+00 0.  1.
</event>
<event>
 4    1  0.9360795E+003  0.3331991E+02  0.7546771E-02  0.1392776E+00
          2   -1    0    0  501    0  0.00000000000E+00  0.00000000000E+00  0.20015597857E+04  0.20015597857E+04  0.00000000000E+00 0. -1.
          2   -1    0    0  502    0 -0.00000000000E+00 -0.00000000000E+00 -0.86943422976E+01  0.86943422976E+01  0.00000000000E+00 0. -1.
          2    1    1    2  501    0 -0.15621913073E+01 -0.33283268344E+02  0.23896220166E+02  0.41002996616E+02  0.00000000000E+00 0. -1.
          2    1    1    2  502    0  0.15621913073E+01  0.33283268344E+02  0.19689692233E+04  0.19692511314E+04  0.00000000000E+00 0. -1.
</event>
<event>
 4    1  0.9360795E+003  0.2241011E+02  0.7546771E-02  0.1500041E+00
          2   -1    0    0  501    0  0.00000000000E+00  0.00000000000E+00  0.50097365847E+02  0.50097365847E+02  0.00000000000E+00 0. -1.
          2   -1    0    0  502    0 -0.00000000000E+00 -0.00000000000E+00 -0.31092843887E+03  0.31092843887E+03  0.00000000000E+00 0. -1.
          2    1    1    2  501    0 -0.17303236045E+02  0.14241169975E+02 -0.30799461234E+03  0.30880883104E+03  0.00000000000E+00 0. -1.
          2    1    1    2  502    0  0.17303236045E+02 -0.14241169975E+02  0.47163539311E+02  0.52216973679E+02  0.00000000000E+00 0. -1.
</event>
<event>
 4    1  0.9360795E+003  0.3215019E+02  0.7546771E-02  0.1401787E+00
          2   -1    0    0  501    0  0.00000000000E+00  0.00000000000E+00  0.12234579458E+04  0.12234579458E+04  0.00000000000E+00 0. -1.
          2   -1    0    0  502    0 -0.00000000000E+00 -0.00000000000E+00 -0.49186427032E+01  0.49186427032E+01  0.00000000000E+00 0.  1.
          2    1    1    2  501    0 -0.76470717536E+01 -0.31227506332E+02  0.50312501008E+02  0.59707475377E+02  0.00000000000E+00 0.  1.
          2    1    1    2  502    0  0.76470717536E+01  0.31227506332E+02  0.11682268021E+04  0.11686691131E+04  0.00000000000E+00 0. -1.
</event>
<event>
 4    1  0.9360795E+003  0.3495295E+02  0.7546771E-02  0.1380894E+00
          2   -1    0    0  501    0  0.00000000000E+00  0.00000000000E+00  0.81116124070E+02  0.81116124070E+02  0.00000000000E+00 0.  1.
          2   -1    0    0  502    0 -0.00000000000E+00 -0.00000000000E+00 -0.99332077955E+03  0.99332077955E+03  0.00000000000E+00 0.  1.
          2    1    1    2  501    0 -0.28379186766E+01  0.34837549922E+02 -0.98923243437E+03  0.98984974510E+03  0.00000000000E+00 0.  1.
          2    1    1    2  502    0  0.28379186766E+01 -0.34837549922E+02  0.77027778886E+02  0.84587158523E+02  0.00000000000E+00 0.  1.
</event>
<event>
 4    1  0.9360795E+003  0.2438711E+02  0.7546771E-02  0.1475778E+00
          2   -1    0    0  502    0  0.00000000000E+00  0.00000000000E+00  0.40699333656E+03  0.40699333656E+03  0.00000000000E+00 0.  1.
          2   -1    0    0  501    0 -0.00000000000E+00 -0.00000000000E+00 -0.19067849717E+01  0.19067849717E+01  0.00000000000E+00 0.  1.
          2    1    1    2  501    0  0.21101220727E+02 -0.12225770624E+02  0.30136739400E+03  0.30235250479E+03  0.00000000000E+00 0.  1.
          2    1    1    2  502    0 -0.21101220727E+02  0.12225770624E+02  0.10371915758E+03  0.10654761674E+03  0.00000000000E+00 0.  1.
</event>
<event>
 4    1  0.9360795E+003  0.2769440E+02  0.7546771E-02  0.1440755E+00
          2   -1    0    0  501    0  0.00000000000E+00  0.00000000000E+00  0.15747096403E+02  0.15747096403E+02  0.00000000000E+00 0. -1.
          2   -1    0    0  502    0 -0.00000000000E+00 -0.00000000000E+00 -0.62189076618E+03  0.62189076618E+03  0.00000000000E+00 0. -1.
          2    1    1    2  501    0 -0.56127940588E+01  0.27119665959E+02 -0.60915139404E+03  0.60978061678E+03  0.00000000000E+00 0. -1.
          2    1    1    2  502    0  0.56127940588E+01 -0.27119665959E+02  0.30077242576E+01  0.27857245810E+02  0.00000000000E+00 0. -1.
</event>
<event>
 4    1  0.9360795E+003  0.2469846E+02  0.7546771E-02  0.1472205E+00
          2   -1    0    0  502    0  0.00000000000E+00  0.00000000000E+00  0.33335726607E+01  0.33335726607E+01  0.00000000000E+00 0. -1.
          2   -1    0    0  501    0 -0.00000000000E+00 -0.00000000000E+00 -0.12670411485E+04  0.12670411485E+04  0.00000000000E+00 0. -1.
          2    1    1    2  501    0  0.14705396258E+02  0.19843520938E+02 -0.44322279505E+02  0.50739318707E+02  0.00000000000E+00 0. -1.
          2    1    1    2  502    0 -0.14705396258E+02 -0.19843520938E+02 -0.12193852963E+04  0.12196354025E+04  0.00000000000E+00 0. -1.
</event>
<event>
 4    1  0.9360795E+003  0.2169074E+02  0.7546771E-02  0.1509627E+00
          2   -1    0    0  502    0  0.00000000000E+00  0.00000000000E+00  0.37256757536E+00  0.37256757536E+00  0.00000000000E+00 0. -1.
          2   -1    0    0  501    0 -0.00000000000E+00 -0.00000000000E+00 -0.19728504874E+04  0.19728504874E+04  0.00000000000E+00 0. -1.
          2    1    1    2  501    0  0.18374876917E+02 -0.11526145457E+02 -0.15781216949E+04  0.15782707537E+04  0.00000000000E+00 0. -1.
          2    1    1    2  502    0 -0.18374876917E+02  0.11526145457E+02 -0.39435622488E+03  0.39495230121E+03  0.00000000000E+00 0. -1.
</event>
<event>
 4    1  0.9360795E+003  0.2243588E+02  0.7546771E-02  0.1499706E+00
          2   -1    0    0  502    0  0.00000000000E+00  0.00000000000E+00  0.28002436770E+02  0.28002436770E+02  0.00000000000E+00 0. -1.
          2   -1    0    0  501    0 -0.00000000000E+00 -0.00000000000E+00 -0.69447353290E+02  0.69447353290E+02  0.00000000000E+00 0.  1.
          2    1    1    2  501    0  0.17424644403E+02 -0.14133313144E+02  0.21225063952E+02  0.30884820103E+02  0.00000000000E+00 0. -1.
          2    1    1    2  502    0 -0.17424644403E+02  0.14133313144E+02 -0.62669980472E+02  0.66564969957E+02  0.00000000000E+00 0.  1.
</event>
<event>
 4    1  0.9360795E+003  0.2943064E+02  0.7546771E-02  0.1424610E+00
          2   -1    0    0  501    0  0.00000000000E+00  0.00000000000E+00  0.43111061032E+00  0.43111061032E+00  0.00000000000E+00 0. -1.
          2   -1    0    0  502    0 -0.00000000000E+00 -0.00000000000E+00 -0.20823585888E+04  0.20823585888E+04  0.00000000000E+00 0. -1.
          2    1    1    2  501    0  0.26054709900E+02  0.13686300423E+02 -0.12362359275E+04  0.12365862004E+04  0.00000000000E+00 0. -1.
          2    1    1    2  502    0 -0.26054709900E+02 -0.13686300423E+02 -0.84569155072E+03  0.84620349898E+03  0.00000000000E+00 0. -1.
</event>
<event>
 4    1  0.9360795E+003  0.3495443E+02  0.7546771E-02  0.1380884E+00
          2   -1    0    0  502    0  0.00000000000E+00  0.00000000000E+00  0.34029775191E+03  0.34029775191E+03  0.00000000000E+00 0. -1.
          2   -1    0    0  501    0 -0.00000000000E+00 -0.00000000000E+00 -0.81799260569E+03  0.81799260569E+03  0.00000000000E+00 0.  1.
          2    1    1    2  501    0  0.31375298674E+02 -0.15407878116E+02  0.33902533113E+03  0.34082251572E+03  0.00000000000E+00 0. -1.
          2    1    1    2  502    0 -0.31375298674E+02  0.15407878116E+02 -0.81672018491E+03  0.81746784188E+03  0.00000000000E+00 0.  1.
</event>
<event>
 4    1  0.9360795E+003  0.3612571E+02  0.7546771E-02  0.1372817E+00
          2   -1    0    0  501    0  0.00000000000E+00  0.00000000000E+00  0.16561760091E+01  0.16561760091E+01  0.00000000000E+00 0. -1.
          2   -1    0    0  502    0 -0.00000000000E+00 -0.00000000000E+00 -0.26463060748E+04  0.26463060748E+04  0.00000000000E+00 0.  1.
          2    1    1    2  501    0 -0.16460731543E+02  0.32157600580E+02 -0.24318072075E+04  0.24320755255E+04  0.00000000000E+00 0.  1.
          2    1    1    2  502    0  0.16460731543E+02 -0.32157600580E+02 -0.21284269129E+03  0.21588672537E+03  0.00000000000E+00 0. -1.
</event>
<event>
 4    1  0.9360795E+003  0.4017841E+02  0.7546771E-02  0.1347443E+00
          2   -1    0    0  501    0  0.00000000000E+00  0.00000000000E+00  0.27032000011E+02  0.27032000011E+02  0.00000000000E+00 0. -1.
          2   -1    0    0  502    0 -0.00000000000E+00 -0.00000000000E+00 -0.87149183556E+03  0.87149183556E+03  0.00000000000E+00 0.  1.
          2    1    1    2  501    0 -0.37208952190E+02  0.15159103907E+02 -0.85582604541E+03  0.85676865288E+03  0.00000000000E+00 0.  1.
          2    1    1    2  502    0  0.37208952190E+02 -0.15159103907E+02  0.11366209867E+02  0.41755182685E+02  0.00000000000E+00 0. -1.
</event>
<event>
 4    1  0.9360795E+003  0.2447617E+02  0.7546771E-02  0.1474749E+00
          2   -1    0    0  501    0  0.00000000000E+00  0.00000000000E+00  0.79887472980E+01  0.79887472980E+01  0.00000000000E+00 0.  1.
          2   -1    0    0  502    0 -0.00000000000E+00 -0.00000000000E+00 -0.13004425618E+04  0.13004425618E+04  0.00000000000E+00 0. -1.
          2    1    1    2  501    0 -0.16132242321E+02  0.18407439999E+02 -0.12812996055E+04  0.12815333636E+04  0.00000000000E+00 0. -1.
          2    1    1    2  502    0  0.16132242321E+02 -0.18407439999E+02 -0.11154208959E+02  0.26897945407E+02  0.00000000000E+00 0.  1.
</event>
<event>
 4    1  0.9360795E+003  0.2629325E+02  0.7546771E-02  0.1454840E+00
          2   -1    0    0  501    0  0.00000000000E+00  0.00000000000E+00  0.85124309459E+00  0.85124309459E+00  0.00000000000E+00 0. -1.
          2   -1    0    0  502    0 -0.00000000000E+00 -0.00000000000E+00 -0.10936183566E+04  0.10936183566E+04  0.00000000000E+00 0. -1.
          2    1    1    2  501    0  0.19909897309E+02 -0.17173550445E+02 -0.82400795143E+03  0.82442733996E+03  0.00000000000E+00 0. -1.
          2    1    1    2  502    0 -0.19909897309E+02  0.17173550445E+02 -0.26875916209E+03  0.27004225976E+03  0.00000000000E+00 0. -1.
</event>
<event>
 4    1  0.9360795E+003  0.3995656E+02  0.7546771E-02  0.1348741E+00
          2   -1    0    0  502    0  0.00000000000E+00  0.00000000000E+00  0.19140978055E+03  0.19140978055E+03  0.00000000000E+00 0. -1.
          2   -1    0    0  501    0 -0.00000000000E+00 -0.00000000000E+00 -0.20337656157E+03  0.20337656157E+03  0.00000000000E+00 0. -1.
          2    1    1    2  501    0  0.38770310967E+02  0.96638188427E+01  0.18731965991E+03  0.19153376046E+03  0.00000000000E+00 0. -1.
          2    1    1    2  502    0 -0.38770310967E+02 -0.96638188427E+01 -0.19928644094E+03  0.20325258166E+03  0.00000000000E+00 0. -1.
</event>
<event>
 4    1  0.9360795E+003  0.2255339E+02  0.7546771E-02  0.1498184E+00
          2   -1    0    0  501    0  0.00000000000E+00  0.00000000000E+00  0.68916193613E+01  0.68916193613E+01  0.00000000000E+00 0.  1.
          2   -1    0    0  502    0 -0.00000000000E+00 -0.00000000000E+00 -0.92015121603E+03  0.92015121603E+03  0.00000000000E+00 0. -1.
          2    1    1    2  501    0 -0.50205281239E+01 -0.21987493555E+02 -0.90117251823E+03  0.90145469281E+03  0.00000000000E+00 0. -1.
          2    1    1    2  502    0  0.50205281239E+01  0.21987493555E+02 -0.12087078434E+02  0.25588142577E+02  0.00000000000E+00 0.  1.
</event>
<event>
 4    1  0.9360795E+003  0.2094436E+02  0.7546771E-02  0.1520061E+00
          2   -1    0    0  502    0  0.00000000000E+00  0.00000000000E+00  0.28099290651E+03  0.28099290651E+03  0.00000000000E+00 0.  1.
          2   -1    0    0  501    0 -0.00000000000E+00 -0.00000000000E+00 -0.33919963237E+02  0.33919963237E+02  0.00000000000E+00 0. -1.
          2    1    1    2  501    0  0.14437700138E+02 -0.15172966546E+02  0.27732684912E+03  0.27811660746E+03  0.00000000000E+00 0.  1.
          2    1    1    2  502    0 -0.14437700138E+02  0.15172966546E+02 -0.30253905851E+02  0.36796262287E+02  0.00000000000E+00 0. -1.
</event>
<event>
 4    1  0.9581325E+003  0.2743727E+02  0.7546771E-02  0.1443264E+00
          2   -1    0    0  502    0  0.00000000000E+00  0.00000000000E+00  0.68860842646E+03  0.68860842646E+03  0.00000000000E+00 0.  1.
          2   -1    0    0  501    0 -0.00000000000E+00 -0.00000000000E+00 -0.40180903444E+03  0.40180903444E+03  0.00000000000E+00 0.  1.
          2    1    1    2  501    0 -0.27373255067E+02 -0.18731845937E+01  0.68786623091E+03  0.68841321569E+03  0.00000000000E+00 0.  1.
          2    1    1    2  502    0  0.27373255067E+02  0.18731845937E+01 -0.40106683889E+03  0.40200424521E+03  0.00000000000E+00 0.  1.
</event>
<event>
 4    1  0.9360795E+003  0.2591048E+02  0.7546771E-02  0.1458871E+00
          2   -1    0    0  501    0  0.00000000000E+00  0.00000000000E+00  0.22291419657E+03  0.22291419657E+03  0.00000000000E+00 0.  1.
          2   -1    0    0  502    0 -0.00000000000E+00 -0.00000000000E+00 -0.84799194839E+01  0.84799194839E+01  0.00000000000E+00 0.  1.
          2    1    1    2  501    0  0.11041340982E+02  0.23440174052E+02  0.14310015181E+02  0.29599484873E+02  0.00000000000E+00 0.  1.
          2    1    1    2  502    0 -0.11041340982E+02 -0.23440174052E+02  0.20012426191E+03  0.20179463119E+03  0.00000000000E+00 0.  1.
</event>
<event>
 4    1  0.9360795E+003  0.2490919E+02  0.7546771E-02  0.1469822E+00
          2   -1    0    0  502    0  0.00000000000E+00  0.00000000000E+00  0.19789409927E+04  0.19789409927E+04  0.00000000000E+00 0. -1.
          2   -1    0    0  501    0 -0.00000000000E+00 -0.00000000000E+00 -0.83895915135E+00  0.83895915135E+00  0.00000000000E+00 0.  1.
          2    1    1    2  501    0  0.23695622001E+02  0.76801815854E+01  0.17724291507E+04  0.17726041752E+04  0.00000000000E+00 0. -1.
          2    1    1    2  502    0 -0.23695622001E+02 -0.76801815854E+01  0.20567288288E+03  0.20717577668E+03  0.00000000000E+00 0.  1.
</event>
<event>
 4    1  0.9360795E+003  0.2178398E+02  0.7546771E-02  0.1508360E+00
          2   -1    0    0  502    0  0.00000000000E+00  0.00000000000E+00  0.54419871401E+02  0.54419871401E+02  0.00000000000E+00 0. -1.
          2   -1    0    0  501    0 -0.00000000000E+00 -0.00000000000E+00 -0.38924097791E+03  0.38924097791E+03  0.00000000000E+00 0.  1.
          2    1    1    2  501    0  0.12681777801E+02  0.17711978140E+02  0.51921008586E+02  0.56305708329E+02  0.00000000000E+00 0. -1.
          2    1    1    2  502    0 -0.12681777801E+02 -0.17711978140E+02 -0.38674211509E+03  0.38735514098E+03  0.00000000000E+00 0.  1.
</event>
<event>
 4    1  0.9360795E+003  0.2224997E+02  0.7546771E-02  0.1502137E+00
          2   -1    0    0  501    0  0.00000000000E+00  0.00000000000E+00  0.78613361217E+00  0.78613361217E+00  0.00000000000E+00 0.  1.
          2   -1    0    0  502    0 -0.00000000000E+00 -0.00000000000E+00 -0.11802867420E+04  0.11802867420E+04  0.00000000000E+00 0. -1.
          2    1    1    2  501    0 -0.21431357176E+02 -0.59797926307E+01 -0.99306999659E+03  0.99331922317E+03  0.00000000000E+00 0. -1.
          2    1    1    2  502    0  0.21431357176E+02  0.59797926307E+01 -0.18643061179E+03  0.18775365244E+03  0.00000000000E+00 0.  1.
</event>
<event>
 4    1  0.9360795E+003  0.2367520E+02  0.7546771E-02  0.1484189E+00
          2   -1    0    0  501    0  0.00000000000E+00  0.00000000000E+00  0.39255381890E+02  0.39255381890E+02  0.00000000000E+00 0. -1.
          2   -1    0    0  502    0 -0.00000000000E+00 -0.00000000000E+00 -0.56725731030E+02  0.56725731030E+02  0.00000000000E+00 0.  1.
          2    1    1    2  501    0 -0.14614553923E+02  0.18626057592E+02 -0.50248686432E+02  0.55546788349E+02  0.00000000000E+00 0.  1.
          2    1    1    2  502    0  0.14614553923E+02 -0.18626057592E+02  0.32778337292E+02  0.40434324570E+02  0.00000000000E+00 0. -1.
</event>
<event>
 4    1  0.9360795E+003  0.3249716E+02  0.7546771E-02  0.1399068E+00
          2   -1    0    0  502    0  0.00000000000E+00  0.00000000000E+00  0.12083295569E+03  0.12083295569E+03  0.00000000000E+00 0. -1.
          2   -1    0    0  501    0 -0.00000000000E+00 -0.00000000000E+00 -0.90748793468E+01  0.90748793468E+01  0.00000000000E+00 0.  1.
          2    1    1    2  501    0 -0.27641331278E+02  0.17088649555E+02  0.68358878109E+02  0.75690166830E+02  0.00000000000E+00 0. -1.
          2    1    1    2  502    0  0.27641331278E+02 -0.17088649555E+02  0.43399198236E+02  0.54217668208E+02  0.00000000000E+00 0.  1.
</event>
<event>
 4    1  0.9360795E+003  0.3164714E+02  0.7546771E-02  0.1405803E+00
          2   -1    0    0  501    0  0.00000000000E+00  0.00000000000E+00  0.93880196379E+01  0.93880196379E+01  0.00000000000E+00 0. -1.
          2   -1    0    0  502    0 -0.00000000000E+00 -0.00000000000E+00 -0.38365089430E+03  0.38365089430E+03  0.00000000000E+00 0.  1.
          2    1    1    2  501    0 -0.26583172650E+02  0.17171959139E+02 -0.35410673777E+03  0.35551810500E+03  0.00000000000E+00 0.  1.
          2    1    1    2  502    0  0.26583172650E+02 -0.17171959139E+02 -0.20156136889E+02  0.37520808935E+02  0.00000000000E+00 0. -1.
</event>
<event>
 4    1  0.9360795E+003  0.2548785E+02  0.7546771E-02  0.1463419E+00
          2   -1    0    0  502    0  0.00000000000E+00  0.00000000000E+00  0.63714699809E+01  0.63714699809E+01  0.00000000000E+00 0. -1.
          2   -1    0    0  501    0 -0.00000000000E+00 -0.00000000000E+00 -0.57037616173E+03  0.57037616173E+03  0.00000000000E+00 0.  1.
          2    1    1    2  501    0 -0.15442765848E+02  0.20276868595E+02 -0.20671053753E+02  0.32816503170E+02  0.00000000000E+00 0. -1.
          2    1    1    2  502    0  0.15442765848E+02 -0.20276868595E+02 -0.54333363800E+03  0.54393112854E+03  0.00000000000E+00 0.  1.
</event>
<event>
 4    1  0.9360795E+003  0.2020142E+02  0.7546771E-02  0.1530979E+00
          2   -1    0    0  501    0  0.00000000000E+00  0.00000000000E+00  0.36804999747E+03  0.36804999747E+03  0.00000000000E+00 0.  1.
          2   -1    0    0  502    0 -0.00000000000E+00 -0.00000000000E+00 -0.11614964768E+01  0.11614964768E+01  0.00000000000E+00 0.  1.
          2    1    1    2  501    0 -0.23647521571E+01  0.20062533652E+02  0.14412654356E+03  0.14553541792E+03  0.00000000000E+00 0.  1.
          2    1    1    2  502    0  0.23647521571E+01 -0.20062533652E+02  0.22276195743E+03  0.22367607603E+03  0.00000000000E+00 0.  1.
</event>
<event>
 4    1  0.9360795E+003  0.3403934E+02  0.7546771E-02  0.1387446E+00
          2   -1    0    0  501    0  0.00000000000E+00  0.00000000000E+00  0.16955072905E+02  0.16955072905E+02  0.00000000000E+00 0.  1.
          2   -1    0    0  502    0 -0.00000000000E+00 -0.00000000000E+00 -0.11097593728E+04  0.11097593728E+04  0.00000000000E+00 0.  1.
          2    1    1    2  501    0  0.19286250003E+02  0.28048482266E+02 -0.10921382545E+04  0.10926685883E+04  0.00000000000E+00 0.  1.
          2    1    1    2  502    0 -0.19286250003E+02 -0.28048482266E+02 -0.66604543946E+00  0.34045857503E+02  0.00000000000E+00 0.  1.
</event>
<event>
 4    1  0.9360795E+003  0.2176484E+02  0.7546771E-02  0.1508619E+00
          2   -1    0    0  501    0  0.00000000000E+00  0.00000000000E+00  0.31552030256E+03  0.31552030256E+03  0.00000000000E+00 0.  1.
          2   -1    0    0  502    0 -0.00000000000E+00 -0.00000000000E+00 -0.44492204946E+03  0.44492204946E+03  0.00000000000E+00 0.  1.
          2    1    1    2  501    0 -0.31603886619E+01 -0.21534158770E+02 -0.44427999381E+03  0.44481279315E+03  0.00000000000E+00 0.  1.
          2    1    1    2  502    0  0.31603886619E+01  0.21534158770E+02  0.31487824691E+03  0.31562955887E+03  0.00000000000E+00 0.  1.
</event>
<event>
 4    1  0.9360795E+003  0.3270365E+02  0.7546771E-02  0.1397468E+00
          2   -1    0    0  502    0  0.00000000000E+00  0.00000000000E+00  0.15496712569E+04  0.15496712569E+04  0.00000000000E+00 0. -1.
          2   -1    0    0  501    0 -0.00000000000E+00 -0.00000000000E+00 -0.98643439916E+00  0.98643439916E+00  0.00000000000E+00 0. -1.
          2    1    1    2  501    0 -0.97324951402E+01  0.31221902869E+02  0.11992508167E+04  0.11996966492E+04  0.00000000000E+00 0. -1.
          2    1    1    2  502    0  0.97324951402E+01 -0.31221902869E+02  0.34943400577E+03  0.35096104209E+03  0.00000000000E+00 0. -1.
</event>
<event>
 4    1  0.9360795E+003  0.2061417E+02  0.7546771E-02  0.1524845E+00
          2   -1    0    0  502    0  0.00000000000E+00  0.00000000000E+00  0.97112144939E+01  0.97112144939E+01  0.00000000000E+00 0.  1.
          2   -1    0    0  501    0 -0.00000000000E+00 -0.00000000000E+00 -0.94841940644E+02  0.94841940644E+02  0.00000000000E+00 0.  1.
          2    1    1    2  501    0 -0.83370691855E+01  0.18853040315E+02 -0.41991533633E+01  0.21037507948E+02  0.00000000000E+00 0.  1.
          2    1    1    2  502    0  0.83370691855E+01 -0.18853040315E+02 -0.80931572787E+02  0.83515647189E+02  0.00000000000E+00 0.  1.
</event>
<event>
 4    1  0.9360795E+003  0.2571427E+02  0.7546771E-02  0.1460969E+00
          2   -1    0    0  501    0  0.00000000000E+00  0.00000000000E+00  0.11150632690E+02  0.11150632690E+02  0.00000000000E+00 0.  1.
          2   -1    0    0  502    0 -0.00000000000E+00 -0.00000000000E+00 -0.30116978197E+03  0.30116978197E+03  0.00000000000E+00 0. -1.
          2    1    1    2  501    0  0.10017276231E+02  0.23682854812E+02 -0.28495419798E+03  0.28611207311E+03  0.00000000000E+00 0. -1.
          2    1    1    2  502    0 -0.10017276231E+02 -0.23682854812E+02 -0.50649513054E+01  0.26208341551E+02  0.00000000000E+00 0.  1.
</event>
<event>
 4    1  0.9360795E+003  0.2041104E+02  0.7546771E-02  0.1527842E+00
          2   -1    0    0  501    0  0.00000000000E+00  0.00000000000E+00  0.14141192560E+04  0.14141192560E+04  0.00000000000E+00 0. -1.
          2   -1    0    0  502    0 -0.00000000000E+00 -0.00000000000E+00 -0.13065586580E+02  0.13065586580E+02  0.00000000000E+00 0. -1.
          2    1    1    2  501    0  0.17678938411E+02 -0.10201259172E+02 -0.49745405142E+01  0.21008488888E+02  0.00000000000E+00 0. -1.
          2    1    1    2  502    0 -0.17678938411E+02  0.10201259172E+02  0.14060282100E+04  0.14061763537E+04  0.00000000000E+00 0. -1.
</event>
<event>
 4    1  0.9360795E+003  0.3176821E+02  0.7546771E-02  0.1404829E+00
          2   -1    0    0  501    0  0.00000000000E+00  0.00000000000E+00  0.18695595817E+03  0.18695595817E+03  0.00000000000E+00 0.  1.
          2   -1    0    0  502    0 -0.00000000000E+00 -0.00000000000E+00 -0.51778729777E+02  0.51778729777E+02  0.00000000000E+00 0.  1.
          2    1    1    2  501    0  0.17420892641E+02 -0.26565609887E+02 -0.45385215289E+02  0.55398888941E+02  0.00000000000E+00 0.  1.
          2    1    1    2  502    0 -0.17420892641E+02  0.26565609887E+02  0.18056244368E+03  0.18333579901E+03  0.00000000000E+00 0.  1.
</event>
<event>
 4    1  0.9360795E+003  0.4062822E+02  0.7546771E-02  0.1344843E+00
          2   -1    0    0  501    0  0.00000000000E+00  0.00000000000E+00  0.33572537680E+03  0.33572537680E+03  0.00000000000E+00 0. -1.
          2   -1    0    0  502    0 -0.00000000000E+00 -0.00000000000E+00 -0.30211749088E+03  0.30211749088E+03  0.00000000000E+00 0. -1.
          2    1    1    2  501    0  0.33069716637E+02  0.23601825681E+02 -0.29951177478E+03  0.30225478584E+03  0.00000000000E+00 0. -1.
          2    1    1    2  502    0 -0.33069716637E+02 -0.23601825681E+02  0.33311966069E+03  0.33558808184E+03  0.00000000000E+00 0. -1.
</event>
<event>
 4    1  0.9360795E+003  0.2280669E+02  0.7546771E-02  0.1494940E+00
          2   -1    0    0  501    0  0.00000000000E+00  0.00000000000E+00  0.91067296829E+01  0.91067296829E+01  0.00000000000E+00 0.  1.
          2   -1    0    0  502    0 -0.00000000000E+00 -0.00000000000E+00 -0.78996554472E+03  0.78996554472E+03  0.00000000000E+00 0. -1.
          2    1    1    2  501    0 -0.22437809434E+02  0.40853398917E+01 -0.77525082038E+03  0.77558621687E+03  0.00000000000E+00 0. -1.
          2    1    1    2  502    0  0.22437809434E+02 -0.40853398917E+01 -0.56079946496E+01  0.23486057528E+02  0.00000000000E+00 0.  1.
</event>
<event>
 4    1  0.9360795E+003  0.2080822E+02  0.7546771E-02  0.1522021E+00
          2   -1    0    0  501    0  0.00000000000E+00  0.00000000000E+00  0.68859514344E+03  0.68859514344E+03  0.00000000000E+00 0. -1.
          2   -1    0    0  502    0 -0.00000000000E+00 -0.00000000000E+00 -0.80549220162E+00  0.80549220162E+00  0.00000000000E+00 0.  1.
          2    1    1    2  501    0 -0.20621209252E+02 -0.27835087711E+01  0.18244737643E+03  0.18363013739E+03  0.00000000000E+00 0.  1.
          2    1    1    2  502    0  0.20621209252E+02  0.27835087711E+01  0.50534227481E+03  0.50577049825E+03  0.00000000000E+00 0. -1.
</event>
