<event>
 4    1  0.6629728E+001  0.4232696E+02  0.7546771E-02  0.1335364E+00
          2   -1    0    0  502    0  0.00000000000E+00  0.00000000000E+00  0.13758644778E+04  0.13758644778E+04  0.00000000000E+00 0. -1.
         -2   -1    0    0    0  501 -0.00000000000E+00 -0.00000000000E+00 -0.33841330487E+01  0.33841330487E+01  0.00000000000E+00 0.  1.
          1    1    1    2  502    0 -0.19882324491E+02  0.37366626355E+02  0.12271541738E+04  0.12278839269E+04  0.00000000000E+00 0. -1.
         -1    1    1    2    0  501  0.19882324491E+02 -0.37366626355E+02  0.14532617094E+03  0.15136468396E+03  0.00000000000E+00 0.  1.
</event>
<event>
 4    1  0.6629728E+001  0.2640596E+02  0.7546771E-02  0.1453668E+00
          2   -1    0    0  502    0  0.00000000000E+00  0.00000000000E+00  0.19332444610E+03  0.19332444610E+03  0.00000000000E+00 0.  1.
         -2   -1    0    0    0  501 -0.00000000000E+00 -0.00000000000E+00 -0.36076385447E+01  0.36076385447E+01  0.00000000000E+00 0. -1.
          1    1    1    2  502    0  0.69871337279E+00  0.26396711974E+02  0.93320570561E+02  0.96984552859E+02  0.00000000000E+00 0.  1.
         -1    1    1    2    0  501 -0.69871337279E+00 -0.26396711974E+02  0.96396236994E+02  0.99947531785E+02  0.00000000000E+00 0. -1.
</event>
<event>
 4    1  0.6629728E+001  0.2936328E+02  0.7546771E-02  0.1425211E+00
          2   -1    0    0  502    0  0.00000000000E+00  0.00000000000E+00  0.41524717434E+02  0.41524717434E+02  0.00000000000E+00 0. -1.
         -2   -1    0    0    0  501 -0.00000000000E+00 -0.00000000000E+00 -0.33983039393E+02  0.33983039393E+02  0.00000000000E+00 0.  1.
          1    1    1    2  502    0  0.10722440149E+01 -0.29343693505E+02  0.27317927017E+02  0.40105750114E+02  0.00000000000E+00 0. -1.
         -1    1    1    2    0  501 -0.10722440149E+01  0.29343693505E+02 -0.19776248977E+02  0.35402006713E+02  0.00000000000E+00 0.  1.
</event>
<event>
 4    1  0.6629728E+001  0.5162599E+02  0.7546771E-02  0.1291273E+00
          2   -1    0    0  502    0  0.00000000000E+00  0.00000000000E+00  0.11901734027E+03  0.11901734027E+03  0.00000000000E+00 0.  1.
         -2   -1    0    0    0  501 -0.00000000000E+00 -0.00000000000E+00 -0.28522674709E+02  0.28522674709E+02  0.00000000000E+00 0. -1.
          1    1    1    2  502    0  0.33560180743E+00 -0.51624903138E+02  0.79443484602E+02  0.94744448377E+02  0.00000000000E+00 0.  1.
         -1    1    1    2    0  501 -0.33560180743E+00  0.51624903138E+02  0.11051180964E+02  0.52795566606E+02  0.00000000000E+00 0. -1.
</event>
<event>
 4    1  0.6629728E+001  0.2141262E+02  0.7546771E-02  0.1513455E+00
          2   -1    0    0  502    0  0.00000000000E+00  0.00000000000E+00  0.68160880651E+03  0.68160880651E+03  0.00000000000E+00 0. -1.
         -2   -1    0    0    0  501 -0.00000000000E+00 -0.00000000000E+00 -0.69166555828E+00  0.69166555828E+00  0.00000000000E+00 0.  1.
          1    1    1    2  502    0 -0.15669966701E+02  0.14592889050E+02  0.39698898622E+03  0.39756603910E+03  0.00000000000E+00 0. -1.
         -1    1    1    2    0  501  0.15669966701E+02 -0.14592889050E+02  0.28392815473E+03  0.28473443296E+03  0.00000000000E+00 0.  1.
</event>
<event>
 4    1  0.6629728E+001  0.2966456E+02  0.7546771E-02  0.1422534E+00
          2   -1    0    0  502    0  0.00000000000E+00  0.00000000000E+00  0.18825045358E+04  0.18825045358E+04  0.00000000000E+00 0.  1.
         -2   -1    0    0    0  501 -0.00000000000E+00 -0.00000000000E+00 -0.61055450227E+00  0.61055450227E+00  0.00000000000E+00 0. -1.
          1    1    1    2  502    0  0.11702462146E+02 -0.27258735007E+02  0.13967777548E+04  0.13970927252E+04  0.00000000000E+00 0.  1.
         -1    1    1    2    0  501 -0.11702462146E+02  0.27258735007E+02  0.48511622645E+03  0.48602236514E+03  0.00000000000E+00 0. -1.
</event>
<event>
 4    1  0.6629728E+001  0.1337865E+03  0.7546771E-02  0.1115502E+00
          2   -1    0    0  502    0  0.00000000000E+00  0.00000000000E+00  0.13889026511E+04  0.13889026511E+04  0.00000000000E+00 0. -1.
         -2   -1    0    0    0  501 -0.00000000000E+00 -0.00000000000E+00 -0.18407695909E+02  0.18407695909E+02  0.00000000000E+00 0.  1.
          1    1    1    2  502    0  0.11666929659E+03  0.65475947090E+02  0.10705980997E+04  0.10789249814E+04  0.00000000000E+00 0. -1.
         -1    1    1    2    0  501 -0.11666929659E+03 -0.65475947090E+02  0.29989685555E+03  0.32838536567E+03  0.00000000000E+00 0.  1.
</event>
<event>
 4    1  0.6629728E+001  0.2314461E+02  0.7546771E-02  0.1490690E+00
          2   -1    0    0  502    0  0.00000000000E+00  0.00000000000E+00  0.56484342382E+03  0.56484342382E+03  0.00000000000E+00 0. -1.
         -2   -1    0    0    0  501 -0.00000000000E+00 -0.00000000000E+00 -0.96372439185E+00  0.96372439185E+00  0.00000000000E+00 0.  1.
          1    1    1    2  502    0 -0.17560535916E+02 -0.15076491704E+02  0.31766440845E+03  0.31850643544E+03  0.00000000000E+00 0.  1.
         -1    1    1    2    0  501  0.17560535916E+02  0.15076491704E+02  0.24621529098E+03  0.24730071277E+03  0.00000000000E+00 0. -1.
</event>
<event>
 4    1  0.6629728E+001  0.2537178E+02  0.7546771E-02  0.1464687E+00
          2   -1    0    0  502    0  0.00000000000E+00  0.00000000000E+00  0.18235719101E+04  0.18235719101E+04  0.00000000000E+00 0. -1.
         -2   -1    0    0    0  501 -0.00000000000E+00 -0.00000000000E+00 -0.35328941365E+00  0.35328941365E+00  0.00000000000E+00 0.  1.
          1    1    1    2  502    0  0.64499217059E+01  0.24538251538E+02  0.93755255300E+03  0.93789579214E+03  0.00000000000E+00 0. -1.
         -1    1    1    2    0  501 -0.64499217059E+01 -0.24538251538E+02  0.88566606773E+03  0.88602940741E+03  0.00000000000E+00 0.  1.
</event>
<event>
 4    1  0.6629728E+001  0.2437488E+02  0.7546771E-02  0.1475919E+00
          2   -1    0    0  502    0  0.00000000000E+00  0.00000000000E+00  0.56009539472E+02  0.56009539472E+02  0.00000000000E+00 0.  1.
         -2   -1    0    0    0  501 -0.00000000000E+00 -0.00000000000E+00 -0.21805818725E+02  0.21805818725E+02  0.00000000000E+00 0. -1.
          1    1    1    2  502    0 -0.24303634837E+02 -0.18623271125E+01  0.44983658737E+02  0.51163116421E+02  0.00000000000E+00 0.  1.
         -1    1    1    2    0  501  0.24303634837E+02  0.18623271125E+01 -0.10779937990E+02  0.26652241775E+02  0.00000000000E+00 0. -1.
</event>
<event>
 4    1  0.6629728E+001  0.2329101E+02  0.7546771E-02  0.1488876E+00
          2   -1    0    0  502    0  0.00000000000E+00  0.00000000000E+00  0.84579758315E+00  0.84579758315E+00  0.00000000000E+00 0. -1.
         -2   -1    0    0    0  501 -0.00000000000E+00 -0.00000000000E+00 -0.80026763367E+03  0.80026763367E+03  0.00000000000E+00 0.  1.
          1    1    1    2  502    0  0.14300042550E+02  0.18384231601E+02 -0.22122585110E+03  0.22244852974E+03  0.00000000000E+00 0. -1.
         -1    1    1    2    0  501 -0.14300042550E+02 -0.18384231601E+02 -0.57819598499E+03  0.57866490151E+03  0.00000000000E+00 0.  1.
</event>
<event>
 4    1  0.6629728E+001  0.2790529E+02  0.7546771E-02  0.1438720E+00
          2   -1    0    0  502    0  0.00000000000E+00  0.00000000000E+00  0.10804571444E+03  0.10804571444E+03  0.00000000000E+00 0.  1.
         -2   -1    0    0    0  501 -0.00000000000E+00 -0.00000000000E+00 -0.73508790740E+01  0.73508790740E+01  0.00000000000E+00 0. -1.
          1    1    1    2  502    0  0.70914838821E+01 -0.26989182194E+02  0.42280312417E+02  0.50658956930E+02  0.00000000000E+00 0.  1.
         -1    1    1    2    0  501 -0.70914838821E+01  0.26989182194E+02  0.58414522953E+02  0.64737636588E+02  0.00000000000E+00 0. -1.
</event>
<event>
 4    1  0.6629728E+001  0.2232185E+02  0.7546771E-02  0.1501194E+00
          2   -1    0    0  502    0  0.00000000000E+00  0.00000000000E+00  0.29321765617E+02  0.29321765617E+02  0.00000000000E+00 0. -1.
         -2   -1    0    0    0  501 -0.00000000000E+00 -0.00000000000E+00 -0.21532028667E+02  0.21532028667E+02  0.00000000000E+00 0.  1.
          1    1    1    2  502    0  0.13305591899E+02  0.17922787174E+02  0.15569195215E+02  0.27215159663E+02  0.00000000000E+00 0. -1.
         -1    1    1    2    0  501 -0.13305591899E+02 -0.17922787174E+02 -0.77794582653E+01  0.23638634621E+02  0.00000000000E+00 0.  1.
</event>
<event>
 4    1  0.6629728E+001  0.2342281E+02  0.7546771E-02  0.1487256E+00
          2   -1    0    0  502    0  0.00000000000E+00  0.00000000000E+00  0.42870691581E+03  0.42870691581E+03  0.00000000000E+00 0.  1.
         -2   -1    0    0    0  501 -0.00000000000E+00 -0.00000000000E+00 -0.12855569620E+01  0.12855569620E+01  0.00000000000E+00 0. -1.
          1    1    1    2  502    0 -0.86573302309E+01 -0.21764160039E+02  0.22818837663E+03  0.22938736508E+03  0.00000000000E+00 0. -1.
         -1    1    1    2    0  501  0.86573302309E+01  0.21764160039E+02  0.19923298222E+03  0.20060510769E+03  0.00000000000E+00 0.  1.
</event>
<event>
 4    1  0.6629728E+001  0.2571899E+02  0.7546771E-02  0.1460918E+00
          2   -1    0    0  502    0  0.00000000000E+00  0.00000000000E+00  0.23470012161E+03  0.23470012161E+03  0.00000000000E+00 0. -1.
         -2   -1    0    0    0  501 -0.00000000000E+00 -0.00000000000E+00 -0.54701937317E+01  0.54701937317E+01  0.00000000000E+00 0.  1.
          1    1    1    2  502    0  0.10252565069E+02 -0.23587100906E+02  0.31004202969E+02  0.40283086046E+02  0.00000000000E+00 0.  1.
         -1    1    1    2    0  501 -0.10252565069E+02  0.23587100906E+02  0.19822572491E+03  0.19988722930E+03  0.00000000000E+00 0. -1.
</event>
<event>
 4    1  0.6629728E+001  0.2404181E+02  0.7546771E-02  0.1479815E+00
          2   -1    0    0  502    0  0.00000000000E+00  0.00000000000E+00  0.25638391702E+03  0.25638391702E+03  0.00000000000E+00 0.  1.
         -2   -1    0    0    0  501 -0.00000000000E+00 -0.00000000000E+00 -0.24824526675E+01  0.24824526675E+01  0.00000000000E+00 0. -1.
          1    1    1    2  502    0  0.13405388625E+02  0.19957558129E+02  0.16617553915E+03  0.16790568300E+03  0.00000000000E+00 0.  1.
         -1    1    1    2    0  501 -0.13405388625E+02 -0.19957558129E+02  0.87725925199E+02  0.90960686687E+02  0.00000000000E+00 0. -1.
</event>
<event>
 4    1  0.6629728E+001  0.2636502E+02  0.7546771E-02  0.1454093E+00
          2   -1    0    0  502    0  0.00000000000E+00  0.00000000000E+00  0.12830173703E+02  0.12830173703E+02  0.00000000000E+00 0. -1.
         -2   -1    0    0    0  501 -0.00000000000E+00 -0.00000000000E+00 -0.57185193543E+02  0.57185193543E+02  0.00000000000E+00 0.  1.
          1    1    1    2  502    0  0.21109024196E+02  0.15796315592E+02 -0.30205276534E+02  0.40093306415E+02  0.00000000000E+00 0.  1.
         -1    1    1    2    0  501 -0.21109024196E+02 -0.15796315592E+02 -0.14149743306E+02  0.29922060832E+02  0.00000000000E+00 0. -1.
</event>
<event>
 4    1  0.6629728E+001  0.3105186E+02  0.7546771E-02  0.1410671E+00
          2   -1    0    0  502    0  0.00000000000E+00  0.00000000000E+00  0.10301026541E+03  0.10301026541E+03  0.00000000000E+00 0.  1.
         -2   -1    0    0    0  501 -0.00000000000E+00 -0.00000000000E+00 -0.28127598740E+02  0.28127598740E+02  0.00000000000E+00 0. -1.
          1    1    1    2  502    0 -0.29229876231E+02 -0.10480084082E+02 -0.16117541828E+02  0.34985611063E+02  0.00000000000E+00 0. -1.
         -1    1    1    2    0  501  0.29229876231E+02  0.10480084082E+02  0.91000208498E+02  0.96152253086E+02  0.00000000000E+00 0.  1.
</event>
<event>
 4    1  0.6629728E+001  0.2640555E+02  0.7546771E-02  0.1453673E+00
          2   -1    0    0  502    0  0.00000000000E+00  0.00000000000E+00  0.24020062388E+04  0.24020062388E+04  0.00000000000E+00 0.  1.
         -2   -1    0    0    0  501 -0.00000000000E+00 -0.00000000000E+00 -0.29589124092E+00  0.29589124092E+00  0.00000000000E+00 0. -1.
          1    1    1    2  502    0 -0.15353021576E+02  0.21483428982E+02  0.13662733562E+04  0.13665284984E+04  0.00000000000E+00 0.  1.
         -1    1    1    2    0  501  0.15353021576E+02 -0.21483428982E+02  0.10354369914E+04  0.10357736317E+04  0.00000000000E+00 0. -1.
</event>
<event>
 4    1  0.6629728E+001  0.2322184E+02  0.7546771E-02  0.1489731E+00
          2   -1    0    0  502    0  0.00000000000E+00  0.00000000000E+00  0.77800981767E+02  0.77800981767E+02  0.00000000000E+00 0. -1.
         -2   -1    0    0    0  501 -0.00000000000E+00 -0.00000000000E+00 -0.13695567470E+02  0.13695567470E+02  0.00000000000E+00 0.  1.
          1    1    1    2  502    0  0.23172903589E+02 -0.15067576906E+01  0.64204001294E+02  0.68274501548E+02  0.00000000000E+00 0. -1.
         -1    1    1    2    0  501 -0.23172903589E+02  0.15067576906E+01 -0.98586997022E-01  0.23222047689E+02  0.00000000000E+00 0.  1.
</event>
<event>
 4    1  0.6629728E+001  0.2037058E+02  0.7546771E-02  0.1528444E+00
          2   -1    0    0  502    0  0.00000000000E+00  0.00000000000E+00  0.11742706827E+02  0.11742706827E+02  0.00000000000E+00 0.  1.
         -2   -1    0    0    0  501 -0.00000000000E+00 -0.00000000000E+00 -0.57792705678E+02  0.57792705678E+02  0.00000000000E+00 0. -1.
          1    1    1    2  502    0  0.15872558719E+02 -0.12768024846E+02 -0.44696842174E+02  0.49119937694E+02  0.00000000000E+00 0. -1.
         -1    1    1    2    0  501 -0.15872558719E+02  0.12768024846E+02 -0.13531566766E+01  0.20415474810E+02  0.00000000000E+00 0.  1.
</event>
<event>
 4    1  0.6629728E+001  0.2521403E+02  0.7546771E-02  0.1466423E+00
          2   -1    0    0  502    0  0.00000000000E+00  0.00000000000E+00  0.34440544694E+03  0.34440544694E+03  0.00000000000E+00 0. -1.
         -2   -1    0    0    0  501 -0.00000000000E+00 -0.00000000000E+00 -0.21417836893E+01  0.21417836893E+01  0.00000000000E+00 0.  1.
          1    1    1    2  502    0  0.20526479466E+02  0.14642777057E+02  0.10673190048E+03  0.10966971259E+03  0.00000000000E+00 0.  1.
         -1    1    1    2    0  501 -0.20526479466E+02 -0.14642777057E+02  0.23553176277E+03  0.23687751804E+03  0.00000000000E+00 0. -1.
</event>
<event>
 4    1  0.6629728E+001  0.2790512E+02  0.7546771E-02  0.1438722E+00
          2   -1    0    0  502    0  0.00000000000E+00  0.00000000000E+00  0.20410461480E+03  0.20410461480E+03  0.00000000000E+00 0. -1.
         -2   -1    0    0    0  501 -0.00000000000E+00 -0.00000000000E+00 -0.41636286918E+01  0.41636286918E+01  0.00000000000E+00 0.  1.
          1    1    1    2  502    0 -0.19191187005E+02  0.20258188554E+02  0.69845536670E+02  0.75213661359E+02  0.00000000000E+00 0.  1.
         -1    1    1    2    0  501  0.19191187005E+02 -0.20258188554E+02  0.13009544944E+03  0.13305458213E+03  0.00000000000E+00 0. -1.
</event>
<event>
 4    1  0.6629728E+001  0.2365253E+02  0.7546771E-02  0.1484463E+00
          2   -1    0    0  502    0  0.00000000000E+00  0.00000000000E+00  0.10977840700E+04  0.10977840700E+04  0.00000000000E+00 0. -1.
         -2   -1    0    0    0  501 -0.00000000000E+00 -0.00000000000E+00 -0.30805422994E+01  0.30805422994E+01  0.00000000000E+00 0.  1.
          1    1    1    2  502    0 -0.70096409491E+01  0.22589973729E+02  0.44505034995E+02  0.50399802770E+02  0.00000000000E+00 0.  1.
         -1    1    1    2    0  501  0.70096409491E+01 -0.22589973729E+02  0.10501984927E+04  0.10504648095E+04  0.00000000000E+00 0. -1.
</event>
<event>
 4    1  0.6629728E+001  0.2241746E+02  0.7546771E-02  0.1499946E+00
          2   -1    0    0  502    0  0.00000000000E+00  0.00000000000E+00  0.24296918140E+03  0.24296918140E+03  0.00000000000E+00 0. -1.
         -2   -1    0    0    0  501 -0.00000000000E+00 -0.00000000000E+00 -0.27826788442E+01  0.27826788442E+01  0.00000000000E+00 0.  1.
          1    1    1    2  502    0 -0.21379508427E+02  0.67423270584E+01  0.18235023296E+03  0.18372302473E+03  0.00000000000E+00 0. -1.
         -1    1    1    2    0  501  0.21379508427E+02 -0.67423270584E+01  0.57836269597E+02  0.62028835517E+02  0.00000000000E+00 0.  1.
</event>
<event>
 4    1  0.6629728E+001  0.2478115E+02  0.7546771E-02  0.1471267E+00
          2   -1    0    0  502    0  0.00000000000E+00  0.00000000000E+00  0.65158392428E+02  0.65158392428E+02  0.00000000000E+00 0.  1.
         -2   -1    0    0    0  501 -0.00000000000E+00 -0.00000000000E+00 -0.12836847077E+02  0.12836847077E+02  0.00000000000E+00 0. -1.
          1    1    1    2  502    0  0.15590076236E+02  0.19262779757E+02  0.46266328687E+02  0.52485029591E+02  0.00000000000E+00 0.  1.
         -1    1    1    2    0  501 -0.15590076236E+02 -0.19262779757E+02  0.60552166633E+01  0.25510209914E+02  0.00000000000E+00 0. -1.
</event>
<event>
 4    1  0.6629728E+001  0.3347033E+02  0.7546771E-02  0.1391648E+00
          2   -1    0    0  502    0  0.00000000000E+00  0.00000000000E+00  0.22151608902E+02  0.22151608902E+02  0.00000000000E+00 0. -1.
         -2   -1    0    0    0  501 -0.00000000000E+00 -0.00000000000E+00 -0.78814015395E+02  0.78814015395E+02  0.00000000000E+00 0.  1.
          1    1    1    2  502    0 -0.27839269337E+02 -0.18580584369E+02 -0.58550582260E+02  0.67442076745E+02  0.00000000000E+00 0.  1.
         -1    1    1    2    0  501  0.27839269337E+02  0.18580584369E+02  0.18881757667E+01  0.33523547551E+02  0.00000000000E+00 0. -1.
</event>
<event>
 4    1  0.6629728E+001  0.2275985E+02  0.7546771E-02  0.1495536E+00
          2   -1    0    0  502    0  0.00000000000E+00  0.00000000000E+00  0.11214488627E+04  0.11214488627E+04  0.00000000000E+00 0.  1.
         -2   -1    0    0    0  501 -0.00000000000E+00 -0.00000000000E+00 -0.74355241623E+00  0.74355241623E+00  0.00000000000E+00 0. -1.
          1    1    1    2  502    0 -0.11457667235E+02  0.19665517551E+02  0.90567843831E+03  0.90596437255E+03  0.00000000000E+00 0.  1.
         -1    1    1    2    0  501  0.11457667235E+02 -0.19665517551E+02  0.21502687194E+03  0.21622804252E+03  0.00000000000E+00 0. -1.
</event>
<event>
 4    1  0.6629728E+001  0.2472502E+02  0.7546771E-02  0.1471903E+00
          2   -1    0    0  502    0  0.00000000000E+00  0.00000000000E+00  0.19132170062E+04  0.19132170062E+04  0.00000000000E+00 0.  1.
         -2   -1    0    0    0  501 -0.00000000000E+00 -0.00000000000E+00 -0.77791096252E+00  0.77791096252E+00  0.00000000000E+00 0. -1.
          1    1    1    2  502    0 -0.16588667286E+02 -0.18334193878E+02  0.22160413384E+03  0.22297918890E+03  0.00000000000E+00 0. -1.
         -1    1    1    2    0  501  0.16588667286E+02  0.18334193878E+02  0.16908349614E+04  0.16910157282E+04  0.00000000000E+00 0.  1.
</event>
<event>
 4    1  0.6629728E+001  0.3553353E+02  0.7546771E-02  0.1376851E+00
          2   -1    0    0  502    0  0.00000000000E+00  0.00000000000E+00  0.73102155977E+03  0.73102155977E+03  0.00000000000E+00 0.  1.
         -2   -1    0    0    0  501 -0.00000000000E+00 -0.00000000000E+00 -0.48673473850E+01  0.48673473850E+01  0.00000000000E+00 0. -1.
          1    1    1    2  502    0 -0.19931831283E+02 -0.29416895670E+02  0.65861287065E+03  0.65957072785E+03  0.00000000000E+00 0.  1.
         -1    1    1    2    0  501  0.19931831283E+02  0.29416895670E+02  0.67541341729E+02  0.76318179300E+02  0.00000000000E+00 0. -1.
</event>
<event>
 4    1  0.6629728E+001  0.2062197E+02  0.7546771E-02  0.1524731E+00
          2   -1    0    0  502    0  0.00000000000E+00  0.00000000000E+00  0.15906734012E+04  0.15906734012E+04  0.00000000000E+00 0. -1.
         -2   -1    0    0    0  501 -0.00000000000E+00 -0.00000000000E+00 -0.30887852551E+00  0.30887852551E+00  0.00000000000E+00 0.  1.
          1    1    1    2  502    0  0.19159074338E+01  0.20532773849E+02  0.50349455015E+03  0.50391668710E+03  0.00000000000E+00 0.  1.
         -1    1    1    2    0  501 -0.19159074338E+01 -0.20532773849E+02  0.10868699726E+04  0.10870655927E+04  0.00000000000E+00 0. -1.
</event>
<event>
 4    1  0.6629728E+001  0.2769432E+02  0.7546771E-02  0.1440755E+00
          2   -1    0    0  502    0  0.00000000000E+00  0.00000000000E+00  0.85009640145E+03  0.85009640145E+03  0.00000000000E+00 0. -1.
         -2   -1    0    0    0  501 -0.00000000000E+00 -0.00000000000E+00 -0.95059004451E+00  0.95059004451E+00  0.00000000000E+00 0.  1.
          1    1    1    2  502    0  0.92716615427E+01  0.26096201281E+02  0.52055881439E+03  0.52129497856E+03  0.00000000000E+00 0.  1.
         -1    1    1    2    0  501 -0.92716615427E+01 -0.26096201281E+02  0.32858699702E+03  0.32975201294E+03  0.00000000000E+00 0. -1.
</event>
<event>
 4    1  0.6629728E+001  0.2355680E+02  0.7546771E-02  0.1485622E+00
          2   -1    0    0  502    0  0.00000000000E+00  0.00000000000E+00  0.36689840127E+03  0.36689840127E+03  0.00000000000E+00 0.  1.
         -2   -1    0    0    0  501 -0.00000000000E+00 -0.00000000000E+00 -0.25243418644E+01  0.25243418644E+01  0.00000000000E+00 0. -1.
          1    1    1    2  502    0 -0.14940061280E+02 -0.18213113831E+02  0.65241873760E+02  0.69364436408E+02  0.00000000000E+00 0. -1.
         -1    1    1    2    0  501  0.14940061280E+02  0.18213113831E+02  0.29913218564E+03  0.30005830672E+03  0.00000000000E+00 0.  1.
</event>
<event>
 4    1  0.6629728E+001  0.6427470E+02  0.7546771E-02  0.1245962E+00
          2   -1    0    0  502    0  0.00000000000E+00  0.00000000000E+00  0.15227442292E+04  0.15227442292E+04  0.00000000000E+00 0.  1.
         -2   -1    0    0    0  501 -0.00000000000E+00 -0.00000000000E+00 -0.31516247906E+01  0.31516247906E+01  0.00000000000E+00 0. -1.
          1    1    1    2  502    0 -0.56721477272E+02 -0.30230971319E+02  0.47517745300E+03  0.47950479606E+03  0.00000000000E+00 0. -1.
         -1    1    1    2    0  501  0.56721477272E+02  0.30230971319E+02  0.10444151514E+04  0.10463910579E+04  0.00000000000E+00 0.  1.
</event>
<event>
 4    1  0.6629728E+001  0.2252212E+02  0.7546771E-02  0.1498588E+00
          2   -1    0    0  502    0  0.00000000000E+00  0.00000000000E+00  0.11043940896E+01  0.11043940896E+01  0.00000000000E+00 0.  1.
         -2   -1    0    0    0  501 -0.00000000000E+00 -0.00000000000E+00 -0.53061279192E+03  0.53061279192E+03  0.00000000000E+00 0. -1.
          1    1    1    2  502    0  0.21644271411E+02 -0.62266861119E+01 -0.16728860009E+03  0.16879787270E+03  0.00000000000E+00 0.  1.
         -1    1    1    2    0  501 -0.21644271411E+02  0.62266861119E+01 -0.36221979773E+03  0.36291931331E+03  0.00000000000E+00 0. -1.
</event>
<event>
 4    1  0.6629728E+001  0.2210469E+02  0.7546771E-02  0.1504057E+00
          2   -1    0    0  502    0  0.00000000000E+00  0.00000000000E+00  0.61019562323E+02  0.61019562323E+02  0.00000000000E+00 0.  1.
         -2   -1    0    0    0  501 -0.00000000000E+00 -0.00000000000E+00 -0.13992053608E+02  0.13992053608E+02  0.00000000000E+00 0. -1.
          1    1    1    2  502    0  0.97828301315E+01  0.19822049432E+02 -0.10147877220E+01  0.22127973318E+02  0.00000000000E+00 0. -1.
         -1    1    1    2    0  501 -0.97828301315E+01 -0.19822049432E+02  0.48042296437E+02  0.52883642613E+02  0.00000000000E+00 0.  1.
</event>
<event>
 4    1  0.6629728E+001  0.2259648E+02  0.7546771E-02  0.1497628E+00
          2   -1    0    0  502    0  0.00000000000E+00  0.00000000000E+00  0.11666990666E+04  0.11666990666E+04  0.00000000000E+00 0. -1.
         -2   -1    0    0    0  501 -0.00000000000E+00 -0.00000000000E+00 -0.53269752859E+00  0.53269752859E+00  0.00000000000E+00 0.  1.
          1    1    1    2  502    0  0.31499663853E+01 -0.22375848435E+02  0.82961155083E+03  0.82991922869E+03  0.00000000000E+00 0. -1.
         -1    1    1    2    0  501 -0.31499663853E+01  0.22375848435E+02  0.33655481820E+03  0.33731253539E+03  0.00000000000E+00 0.  1.
</event>
<event>
 4    1  0.6629728E+001  0.3098095E+02  0.7546771E-02  0.1411259E+00
          2   -1    0    0  502    0  0.00000000000E+00  0.00000000000E+00  0.12714092319E+04  0.12714092319E+04  0.00000000000E+00 0.  1.
         -2   -1    0    0    0  501 -0.00000000000E+00 -0.00000000000E+00 -0.76540053329E+00  0.76540053329E+00  0.00000000000E+00 0. -1.
          1    1    1    2  502    0  0.28749644998E+02 -0.11544573428E+02  0.70973509291E+03  0.71041095246E+03  0.00000000000E+00 0.  1.
         -1    1    1    2    0  501 -0.28749644998E+02  0.11544573428E+02  0.56090873842E+03  0.56176367994E+03  0.00000000000E+00 0. -1.
</event>
<event>
 4    1  0.6629728E+001  0.2481260E+02  0.7546771E-02  0.1470911E+00
          2   -1    0    0  502    0  0.00000000000E+00  0.00000000000E+00  0.56714376321E+02  0.56714376321E+02  0.00000000000E+00 0. -1.
         -2   -1    0    0    0  501 -0.00000000000E+00 -0.00000000000E+00 -0.14659439642E+02  0.14659439642E+02  0.00000000000E+00 0.  1.
          1    1    1    2  502    0  0.15675361606E+02  0.19234031632E+02  0.28486768009E+01  0.24975585955E+02  0.00000000000E+00 0. -1.
         -1    1    1    2    0  501 -0.15675361606E+02 -0.19234031632E+02  0.39206259878E+02  0.46398230009E+02  0.00000000000E+00 0.  1.
</event>
<event>
 4    1  0.6629728E+001  0.3110888E+02  0.7546771E-02  0.1410199E+00
          2   -1    0    0  502    0  0.00000000000E+00  0.00000000000E+00  0.54502201390E+01  0.54502201390E+01  0.00000000000E+00 0.  1.
         -2   -1    0    0    0  501 -0.00000000000E+00 -0.00000000000E+00 -0.27289719822E+03  0.27289719822E+03  0.00000000000E+00 0. -1.
          1    1    1    2  502    0 -0.17036055574E+02 -0.26029502286E+02 -0.21598184810E+03  0.21821072588E+03  0.00000000000E+00 0. -1.
         -1    1    1    2    0  501  0.17036055574E+02  0.26029502286E+02 -0.51465129979E+02  0.60136692481E+02  0.00000000000E+00 0.  1.
</event>
<event>
 4    1  0.6629728E+001  0.2199476E+02  0.7546771E-02  0.1505522E+00
          2   -1    0    0  502    0  0.00000000000E+00  0.00000000000E+00  0.26044798504E+02  0.26044798504E+02  0.00000000000E+00 0. -1.
         -2   -1    0    0    0  501 -0.00000000000E+00 -0.00000000000E+00 -0.22300378291E+02  0.22300378291E+02  0.00000000000E+00 0.  1.
          1    1    1    2  502    0 -0.15223389905E+02  0.15875070958E+02  0.11752747132E+02  0.24937853622E+02  0.00000000000E+00 0. -1.
         -1    1    1    2    0  501  0.15223389905E+02 -0.15875070958E+02 -0.80083269193E+01  0.23407323174E+02  0.00000000000E+00 0.  1.
</event>
<event>
 4    1  0.6629728E+001  0.3073448E+02  0.7546771E-02  0.1413319E+00
          2   -1    0    0  502    0  0.00000000000E+00  0.00000000000E+00  0.37096323028E+03  0.37096323028E+03  0.00000000000E+00 0.  1.
         -2   -1    0    0    0  501 -0.00000000000E+00 -0.00000000000E+00 -0.37089324424E+01  0.37089324424E+01  0.00000000000E+00 0. -1.
          1    1    1    2  502    0  0.30293936848E+02 -0.51851503687E+01  0.78743994119E+02  0.84529432767E+02  0.00000000000E+00 0. -1.
         -1    1    1    2    0  501 -0.30293936848E+02  0.51851503687E+01  0.28851030372E+03  0.29014272996E+03  0.00000000000E+00 0.  1.
</event>
<event>
 4    1  0.6629728E+001  0.2474026E+02  0.7546771E-02  0.1471730E+00
          2   -1    0    0  502    0  0.00000000000E+00  0.00000000000E+00  0.58957299694E+01  0.58957299694E+01  0.00000000000E+00 0.  1.
         -2   -1    0    0    0  501 -0.00000000000E+00 -0.00000000000E+00 -0.11141327320E+03  0.11141327320E+03  0.00000000000E+00 0. -1.
          1    1    1    2  502    0  0.19208728048E+02 -0.15591836730E+02 -0.37443818298E+02  0.44878949794E+02  0.00000000000E+00 0.  1.
         -1    1    1    2    0  501 -0.19208728048E+02  0.15591836730E+02 -0.68073724932E+02  0.72430053376E+02  0.00000000000E+00 0. -1.
</event>
<event>
 4    1  0.6629728E+001  0.2316683E+02  0.7546771E-02  0.1490414E+00
          2   -1    0    0  502    0  0.00000000000E+00  0.00000000000E+00  0.12603438142E+01  0.12603438142E+01  0.00000000000E+00 0. -1.
         -2   -1    0    0    0  501 -0.00000000000E+00 -0.00000000000E+00 -0.45142576827E+03  0.45142576827E+03  0.00000000000E+00 0.  1.
          1    1    1    2  502    0 -0.14430609389E+00  0.23166383568E+02 -0.17119482817E+03  0.17275523536E+03  0.00000000000E+00 0. -1.
         -1    1    1    2    0  501  0.14430609389E+00 -0.23166383568E+02 -0.27897059629E+03  0.27993087673E+03  0.00000000000E+00 0.  1.
</event>
<event>
 4    1  0.6629728E+001  0.2444678E+02  0.7546771E-02  0.1475088E+00
          2   -1    0    0  502    0  0.00000000000E+00  0.00000000000E+00  0.24786162309E+02  0.24786162309E+02  0.00000000000E+00 0.  1.
         -2   -1    0    0    0  501 -0.00000000000E+00 -0.00000000000E+00 -0.37723416869E+02  0.37723416869E+02  0.00000000000E+00 0. -1.
          1    1    1    2  502    0 -0.72118147595E+01 -0.23358826994E+02  0.12305597423E+02  0.27369194336E+02  0.00000000000E+00 0.  1.
         -1    1    1    2    0  501  0.72118147595E+01  0.23358826994E+02 -0.25242851983E+02  0.35140384843E+02  0.00000000000E+00 0. -1.
</event>
<event>
 4    1  0.6629728E+001  0.2253280E+02  0.7546771E-02  0.1498450E+00
          2   -1    0    0  502    0  0.00000000000E+00  0.00000000000E+00  0.15508892705E+03  0.15508892705E+03  0.00000000000E+00 0. -1.
         -2   -1    0    0    0  501 -0.00000000000E+00 -0.00000000000E+00 -0.35413403279E+01  0.35413403279E+01  0.00000000000E+00 0.  1.
          1    1    1    2  502    0 -0.16712374467E+01  0.22470738979E+02  0.97575097526E+02  0.10014303172E+03  0.00000000000E+00 0. -1.
         -1    1    1    2    0  501  0.16712374467E+01 -0.22470738979E+02  0.53972489192E+02  0.58487235654E+02  0.00000000000E+00 0.  1.
</event>
<event>
 4    1  0.6629728E+001  0.2037522E+02  0.7546771E-02  0.1528375E+00
          2   -1    0    0  502    0  0.00000000000E+00  0.00000000000E+00  0.19719024977E+03  0.19719024977E+03  0.00000000000E+00 0. -1.
         -2   -1    0    0    0  501 -0.00000000000E+00 -0.00000000000E+00 -0.21164337889E+01  0.21164337889E+01  0.00000000000E+00 0.  1.
          1    1    1    2  502    0 -0.14272265244E+02 -0.14541387955E+02  0.90317073871E+02  0.92586842215E+02  0.00000000000E+00 0. -1.
         -1    1    1    2    0  501  0.14272265244E+02  0.14541387955E+02  0.10475674211E+03  0.10671984134E+03  0.00000000000E+00 0.  1.
</event>
<event>
 4    1  0.6629728E+001  0.2880598E+02  0.7546771E-02  0.1430264E+00
          2   -1    0    0  502    0  0.00000000000E+00  0.00000000000E+00  0.84833580904E+02  0.84833580904E+02  0.00000000000E+00 0. -1.
         -2   -1    0    0    0  501 -0.00000000000E+00 -0.00000000000E+00 -0.10990369363E+02  0.10990369363E+02  0.00000000000E+00 0.  1.
          1    1    1    2  502    0 -0.13522957048E+02 -0.25434511330E+02  0.52812899063E+02  0.60158017266E+02  0.00000000000E+00 0. -1.
         -1    1    1    2    0  501  0.13522957048E+02  0.25434511330E+02  0.21030312478E+02  0.35665933001E+02  0.00000000000E+00 0.  1.
</event>
<event>
 4    1  0.6629728E+001  0.2036346E+02  0.7546771E-02  0.1528550E+00
          2   -1    0    0  502    0  0.00000000000E+00  0.00000000000E+00  0.30524078665E+03  0.30524078665E+03  0.00000000000E+00 0. -1.
         -2   -1    0    0    0  501 -0.00000000000E+00 -0.00000000000E+00 -0.14893104452E+01  0.14893104452E+01  0.00000000000E+00 0.  1.
          1    1    1    2  502    0  0.23311676801E+01 -0.20229589258E+02  0.19732736855E+03  0.19837530341E+03  0.00000000000E+00 0. -1.
         -1    1    1    2    0  501 -0.23311676801E+01  0.20229589258E+02  0.10642410765E+03  0.10835479368E+03  0.00000000000E+00 0.  1.
</event>
<event>
 4    1  0.6629728E+001  0.2130175E+02  0.7546771E-02  0.1515000E+00
          2   -1    0    0  502    0  0.00000000000E+00  0.00000000000E+00  0.48669733168E+02  0.48669733168E+02  0.00000000000E+00 0. -1.
         -2   -1    0    0    0  501 -0.00000000000E+00 -0.00000000000E+00 -0.97492201730E+01  0.97492201730E+01  0.00000000000E+00 0.  1.
          1    1    1    2  502    0 -0.27830132951E+01 -0.21119171622E+02  0.25565197468E+02  0.33276777106E+02  0.00000000000E+00 0.  1.
         -1    1    1    2    0  501  0.27830132951E+01  0.21119171622E+02  0.13355315527E+02  0.25142176235E+02  0.00000000000E+00 0. -1.
</event>
<event>
 4    1  0.6629728E+001  0.2912934E+02  0.7546771E-02  0.1427316E+00
          2   -1    0    0  502    0  0.00000000000E+00  0.00000000000E+00  0.87912727052E+03  0.87912727052E+03  0.00000000000E+00 0.  1.
         -2   -1    0    0    0  501 -0.00000000000E+00 -0.00000000000E+00 -0.74766927990E+01  0.74766927990E+01  0.00000000000E+00 0. -1.
          1    1    1    2  502    0  0.18945345092E+02  0.22126734282E+02  0.84952551862E+03  0.85002477920E+03  0.00000000000E+00 0.  1.
         -1    1    1    2    0  501 -0.18945345092E+02 -0.22126734282E+02  0.22125059108E+02  0.36579184124E+02  0.00000000000E+00 0. -1.
</event>
<event>
 4    1  0.6629728E+001  0.2109281E+02  0.7546771E-02  0.1517944E+00
          2   -1    0    0  502    0  0.00000000000E+00  0.00000000000E+00  0.10486615071E+04  0.10486615071E+04  0.00000000000E+00 0.  1.
         -2   -1    0    0    0  501 -0.00000000000E+00 -0.00000000000E+00 -0.61135512786E+00  0.61135512786E+00  0.00000000000E+00 0. -1.
          1    1    1    2  502    0  0.21010177996E+02 -0.18652526274E+01  0.23379586836E+03  0.23474542553E+03  0.00000000000E+00 0. -1.
         -1    1    1    2    0  501 -0.21010177996E+02  0.18652526274E+01  0.81425428362E+03  0.81452743670E+03  0.00000000000E+00 0.  1.
</event>
<event>
 4    1  0.6629728E+001  0.2197096E+02  0.7546771E-02  0.1505840E+00
          2   -1    0    0  502    0  0.00000000000E+00  0.00000000000E+00  0.10885629590E+03  0.10885629590E+03  0.00000000000E+00 0. -1.
         -2   -1    0    0    0  501 -0.00000000000E+00 -0.00000000000E+00 -0.48465156568E+01  0.48465156568E+01  0.00000000000E+00 0.  1.
          1    1    1    2  502    0  0.21489417211E+02 -0.45747227487E+01  0.68581043662E+02  0.72014461674E+02  0.00000000000E+00 0. -1.
         -1    1    1    2    0  501 -0.21489417211E+02  0.45747227487E+01  0.35428736582E+02  0.41688349884E+02  0.00000000000E+00 0.  1.
</event>
<event>
 4    1  0.6629728E+001  0.4661053E+02  0.7546771E-02  0.1313577E+00
          2   -1    0    0  502    0  0.00000000000E+00  0.00000000000E+00  0.46824363042E+03  0.46824363042E+03  0.00000000000E+00 0.  1.
         -2   -1    0    0    0  501 -0.00000000000E+00 -0.00000000000E+00 -0.48918421543E+01  0.48918421543E+01  0.00000000000E+00 0. -1.
          1    1    1    2  502    0 -0.17438592707E+02 -0.43225416851E+02  0.17797461575E+03  0.18397691439E+03  0.00000000000E+00 0.  1.
         -1    1    1    2    0  501  0.17438592707E+02  0.43225416851E+02  0.28537717251E+03  0.28915855818E+03  0.00000000000E+00 0. -1.
</event>
<event>
 4    1  0.6629728E+001  0.2710973E+02  0.7546771E-02  0.1446509E+00
          2   -1    0    0  502    0  0.00000000000E+00  0.00000000000E+00  0.12147887754E+01  0.12147887754E+01  0.00000000000E+00 0. -1.
         -2   -1    0    0    0  501 -0.00000000000E+00 -0.00000000000E+00 -0.11716466195E+04  0.11716466195E+04  0.00000000000E+00 0.  1.
          1    1    1    2  502    0 -0.21983052385E+02 -0.15864514784E+02 -0.99304445825E+03  0.99341443189E+03  0.00000000000E+00 0.  1.
         -1    1    1    2    0  501  0.21983052385E+02  0.15864514784E+02 -0.17738737252E+03  0.17944697643E+03  0.00000000000E+00 0. -1.
</event>
<event>
 4    1  0.6629728E+001  0.2151642E+02  0.7546771E-02  0.1512018E+00
          2   -1    0    0  502    0  0.00000000000E+00  0.00000000000E+00  0.25183937083E+01  0.25183937083E+01  0.00000000000E+00 0. -1.
         -2   -1    0    0    0  501 -0.00000000000E+00 -0.00000000000E+00 -0.18759608623E+03  0.18759608623E+03  0.00000000000E+00 0.  1.
          1    1    1    2  502    0  0.20809090778E+02 -0.54715833280E+01 -0.10600720275E+03  0.10816877330E+03  0.00000000000E+00 0.  1.
         -1    1    1    2    0  501 -0.20809090778E+02  0.54715833280E+01 -0.79070489774E+02  0.81945706637E+02  0.00000000000E+00 0. -1.
</event>
<event>
 4    1  0.6629728E+001  0.2025357E+02  0.7546771E-02  0.1530194E+00
          2   -1    0    0  502    0  0.00000000000E+00  0.00000000000E+00  0.55185625556E+02  0.55185625556E+02  0.00000000000E+00 0.  1.
         -2   -1    0    0    0  501 -0.00000000000E+00 -0.00000000000E+00 -0.74608988668E+01  0.74608988668E+01  0.00000000000E+00 0. -1.
          1    1    1    2  502    0 -0.76860734825E+01  0.18738505004E+02  0.25769969538E+02  0.32776495013E+02  0.00000000000E+00 0. -1.
         -1    1    1    2    0  501  0.76860734825E+01 -0.18738505004E+02  0.21954757151E+02  0.29870029410E+02  0.00000000000E+00 0.  1.
</event>
<event>
 4    1  0.6629728E+001  0.2125551E+02  0.7546771E-02  0.1515648E+00
          2   -1    0    0  502    0  0.00000000000E+00  0.00000000000E+00  0.91379318617E+03  0.91379318617E+03  0.00000000000E+00 0.  1.
         -2   -1    0    0    0  501 -0.00000000000E+00 -0.00000000000E+00 -0.75058199804E+00  0.75058199804E+00  0.00000000000E+00 0. -1.
          1    1    1    2  502    0  0.21075921168E+02  0.27572486490E+01  0.18938465087E+03  0.19057372027E+03  0.00000000000E+00 0. -1.
         -1    1    1    2    0  501 -0.21075921168E+02 -0.27572486490E+01  0.72365795331E+03  0.72397004790E+03  0.00000000000E+00 0.  1.
</event>
<event>
 4    1  0.6629728E+001  0.2087413E+02  0.7546771E-02  0.1521070E+00
          2   -1    0    0  502    0  0.00000000000E+00  0.00000000000E+00  0.60037529122E+03  0.60037529122E+03  0.00000000000E+00 0. -1.
         -2   -1    0    0    0  501 -0.00000000000E+00 -0.00000000000E+00 -0.77740364179E+00  0.77740364179E+00  0.00000000000E+00 0.  1.
          1    1    1    2  502    0 -0.94992951267E+00  0.20852508744E+02  0.22232919749E+03  0.22330696708E+03  0.00000000000E+00 0. -1.
         -1    1    1    2    0  501  0.94992951267E+00 -0.20852508744E+02  0.37726869008E+03  0.37784572778E+03  0.00000000000E+00 0.  1.
</event>
<event>
 4    1  0.6629728E+001  0.2726530E+02  0.7546771E-02  0.1444961E+00
          2   -1    0    0  502    0  0.00000000000E+00  0.00000000000E+00  0.11468414235E+04  0.11468414235E+04  0.00000000000E+00 0. -1.
         -2   -1    0    0    0  501 -0.00000000000E+00 -0.00000000000E+00 -0.75459385048E+00  0.75459385048E+00  0.00000000000E+00 0.  1.
          1    1    1    2  502    0  0.44252468958E+01 -0.26903783785E+02  0.78848827713E+03  0.78895954241E+03  0.00000000000E+00 0.  1.
         -1    1    1    2    0  501 -0.44252468958E+01  0.26903783785E+02  0.35759855255E+03  0.35863647497E+03  0.00000000000E+00 0. -1.
</event>
<event>
 4    1  0.6629728E+001  0.2525757E+02  0.7546771E-02  0.1465943E+00
          2   -1    0    0  502    0  0.00000000000E+00  0.00000000000E+00  0.18447690390E+04  0.18447690390E+04  0.00000000000E+00 0. -1.
         -2   -1    0    0    0  501 -0.00000000000E+00 -0.00000000000E+00 -0.49627222039E+00  0.49627222039E+00  0.00000000000E+00 0.  1.
          1    1    1    2  502    0  0.14378084171E+02 -0.20765724354E+02  0.14301538407E+04  0.14303768569E+04  0.00000000000E+00 0. -1.
         -1    1    1    2    0  501 -0.14378084171E+02  0.20765724354E+02  0.41411892604E+03  0.41488845430E+03  0.00000000000E+00 0.  1.
</event>
<event>
 4    1  0.6629728E+001  0.2783133E+02  0.7546771E-02  0.1439431E+00
          2   -1    0    0  502    0  0.00000000000E+00  0.00000000000E+00  0.77057909620E+01  0.77057909620E+01  0.00000000000E+00 0.  1.
         -2   -1    0    0    0  501 -0.00000000000E+00 -0.00000000000E+00 -0.15060560346E+03  0.15060560346E+03  0.00000000000E+00 0. -1.
          1    1    1    2  502    0 -0.27128332955E+02 -0.62158425566E+01 -0.11709769389E+03  0.12035968205E+03  0.00000000000E+00 0. -1.
         -1    1    1    2    0  501  0.27128332955E+02  0.62158425566E+01 -0.25802118604E+02  0.37951712373E+02  0.00000000000E+00 0.  1.
</event>
<event>
 4    1  0.6629728E+001  0.4463861E+02  0.7546771E-02  0.1323256E+00
          2   -1    0    0  502    0  0.00000000000E+00  0.00000000000E+00  0.34910989335E+03  0.34910989335E+03  0.00000000000E+00 0. -1.
         -2   -1    0    0    0  501 -0.00000000000E+00 -0.00000000000E+00 -0.78378262992E+01  0.78378262992E+01  0.00000000000E+00 0.  1.
          1    1    1    2  502    0  0.22621144520E+00  0.44638040323E+02  0.26367867322E+03  0.26743045549E+03  0.00000000000E+00 0. -1.
         -1    1    1    2    0  501 -0.22621144520E+00 -0.44638040323E+02  0.77593393835E+02  0.89517264157E+02  0.00000000000E+00 0.  1.
</event>
<event>
 4    1  0.6629728E+001  0.2270534E+02  0.7546771E-02  0.1496232E+00
          2   -1    0    0  502    0  0.00000000000E+00  0.00000000000E+00  0.42856164099E+03  0.42856164099E+03  0.00000000000E+00 0. -1.
         -2   -1    0    0    0  501 -0.00000000000E+00 -0.00000000000E+00 -0.20956932207E+01  0.20956932207E+01  0.00000000000E+00 0.  1.
          1    1    1    2  502    0 -0.22355658228E+02  0.39695256689E+01  0.35377443935E+03  0.35450230821E+03  0.00000000000E+00 0. -1.
         -1    1    1    2    0  501  0.22355658228E+02 -0.39695256689E+01  0.72691508413E+02  0.76155025994E+02  0.00000000000E+00 0.  1.
</event>
<event>
 4    1  0.6629728E+001  0.2526431E+02  0.7546771E-02  0.1465868E+00
          2   -1    0    0  502    0  0.00000000000E+00  0.00000000000E+00  0.51953601897E+02  0.51953601897E+02  0.00000000000E+00 0.  1.
         -2   -1    0    0    0  501 -0.00000000000E+00 -0.00000000000E+00 -0.12289274291E+02  0.12289274291E+02  0.00000000000E+00 0. -1.
          1    1    1    2  502    0  0.12215478228E+02  0.22114873154E+02  0.20381213157E+02  0.32460427796E+02  0.00000000000E+00 0.  1.
         -1    1    1    2    0  501 -0.12215478228E+02 -0.22114873154E+02  0.19283114448E+02  0.31782448392E+02  0.00000000000E+00 0. -1.
</event>
<event>
 4    1  0.6629728E+001  0.2778616E+02  0.7546771E-02  0.1439867E+00
          2   -1    0    0  502    0  0.00000000000E+00  0.00000000000E+00  0.44962466797E+03  0.44962466797E+03  0.00000000000E+00 0. -1.
         -2   -1    0    0    0  501 -0.00000000000E+00 -0.00000000000E+00 -0.50376376603E+01  0.50376376603E+01  0.00000000000E+00 0.  1.
          1    1    1    2  502    0  0.22894578543E+02  0.15745129995E+02  0.40685740694E+03  0.40780512555E+03  0.00000000000E+00 0. -1.
         -1    1    1    2    0  501 -0.22894578543E+02 -0.15745129995E+02  0.37729623373E+02  0.46857180081E+02  0.00000000000E+00 0.  1.
</event>
<event>
 4    1  0.6629728E+001  0.2458632E+02  0.7546771E-02  0.1473485E+00
          2   -1    0    0  502    0  0.00000000000E+00  0.00000000000E+00  0.98455711868E+03  0.98455711868E+03  0.00000000000E+00 0. -1.
         -2   -1    0    0    0  501 -0.00000000000E+00 -0.00000000000E+00 -0.68913248604E+00  0.68913248604E+00  0.00000000000E+00 0.  1.
          1    1    1    2  502    0  0.20621633881E+02  0.13387885056E+02  0.32924140445E+03  0.33015812826E+03  0.00000000000E+00 0.  1.
         -1    1    1    2    0  501 -0.20621633881E+02 -0.13387885056E+02  0.65462658174E+03  0.65508812291E+03  0.00000000000E+00 0. -1.
</event>
<event>
 4    1  0.6629728E+001  0.2416277E+02  0.7546771E-02  0.1478392E+00
          2   -1    0    0  502    0  0.00000000000E+00  0.00000000000E+00  0.79100506241E+02  0.79100506241E+02  0.00000000000E+00 0.  1.
         -2   -1    0    0    0  501 -0.00000000000E+00 -0.00000000000E+00 -0.96135410555E+01  0.96135410555E+01  0.00000000000E+00 0. -1.
          1    1    1    2  502    0  0.48047546095E+01  0.23680238866E+02  0.13367690180E+02  0.27614027601E+02  0.00000000000E+00 0. -1.
         -1    1    1    2    0  501 -0.48047546095E+01 -0.23680238866E+02  0.56119275006E+02  0.61100019695E+02  0.00000000000E+00 0.  1.
</event>
<event>
 4    1  0.6629728E+001  0.4495719E+02  0.7546771E-02  0.1321654E+00
          2   -1    0    0  502    0  0.00000000000E+00  0.00000000000E+00  0.13571661711E+04  0.13571661711E+04  0.00000000000E+00 0.  1.
         -2   -1    0    0    0  501 -0.00000000000E+00 -0.00000000000E+00 -0.19117964559E+01  0.19117964559E+01  0.00000000000E+00 0. -1.
          1    1    1    2  502    0  0.29180924971E+02  0.34199750531E+02  0.99710059976E+03  0.99811359842E+03  0.00000000000E+00 0.  1.
         -1    1    1    2    0  501 -0.29180924971E+02 -0.34199750531E+02  0.35815377488E+03  0.36096436913E+03  0.00000000000E+00 0. -1.
</event>
<event>
 4    1  0.6629728E+001  0.3804416E+02  0.7546771E-02  0.1360344E+00
          2   -1    0    0  502    0  0.00000000000E+00  0.00000000000E+00  0.17078119940E+02  0.17078119940E+02  0.00000000000E+00 0. -1.
         -2   -1    0    0    0  501 -0.00000000000E+00 -0.00000000000E+00 -0.85065651277E+02  0.85065651277E+02  0.00000000000E+00 0.  1.
          1    1    1    2  502    0  0.36667312107E+02 -0.10142308988E+02 -0.37108419098E+02  0.53145018362E+02  0.00000000000E+00 0.  1.
         -1    1    1    2    0  501 -0.36667312107E+02  0.10142308988E+02 -0.30879112239E+02  0.48998752856E+02  0.00000000000E+00 0. -1.
</event>
<event>
 4    1  0.6629728E+001  0.2568329E+02  0.7546771E-02  0.1461303E+00
          2   -1    0    0  502    0  0.00000000000E+00  0.00000000000E+00  0.40006996250E+01  0.40006996250E+01  0.00000000000E+00 0. -1.
         -2   -1    0    0    0  501 -0.00000000000E+00 -0.00000000000E+00 -0.19215730541E+03  0.19215730541E+03  0.00000000000E+00 0.  1.
          1    1    1    2  502    0 -0.15745810929E+02 -0.20290414981E+02 -0.13103183781E+03  0.13352518123E+03  0.00000000000E+00 0.  1.
         -1    1    1    2    0  501  0.15745810929E+02  0.20290414981E+02 -0.57124767973E+02  0.62632823805E+02  0.00000000000E+00 0. -1.
</event>
<event>
 4    1  0.6629728E+001  0.2032920E+02  0.7546771E-02  0.1529061E+00
          2   -1    0    0  502    0  0.00000000000E+00  0.00000000000E+00  0.38850728010E+03  0.38850728010E+03  0.00000000000E+00 0. -1.
         -2   -1    0    0    0  501 -0.00000000000E+00 -0.00000000000E+00 -0.12269485043E+01  0.12269485043E+01  0.00000000000E+00 0.  1.
          1    1    1    2  502    0 -0.18887031169E+02 -0.75204110533E+01  0.26470863045E+03  0.26548810814E+03  0.00000000000E+00 0. -1.
         -1    1    1    2    0  501  0.18887031169E+02  0.75204110533E+01  0.12257170115E+03  0.12424612047E+03  0.00000000000E+00 0.  1.
</event>
<event>
 4    1  0.6629728E+001  0.2717793E+02  0.7546771E-02  0.1445829E+00
          2   -1    0    0  502    0  0.00000000000E+00  0.00000000000E+00  0.19986177348E+04  0.19986177348E+04  0.00000000000E+00 0.  1.
         -2   -1    0    0    0  501 -0.00000000000E+00 -0.00000000000E+00 -0.11027834247E+01  0.11027834247E+01  0.00000000000E+00 0. -1.
          1    1    1    2  502    0 -0.69271492122E+01  0.26280303315E+02  0.18347552434E+03  0.18547751284E+03  0.00000000000E+00 0. -1.
         -1    1    1    2    0  501  0.69271492122E+01 -0.26280303315E+02  0.18140394271E+04  0.18142430054E+04  0.00000000000E+00 0.  1.
</event>
<event>
 4    1  0.6629728E+001  0.2102929E+02  0.7546771E-02  0.1518847E+00
          2   -1    0    0  502    0  0.00000000000E+00  0.00000000000E+00  0.67852512681E+03  0.67852512681E+03  0.00000000000E+00 0.  1.
         -2   -1    0    0    0  501 -0.00000000000E+00 -0.00000000000E+00 -0.12801620922E+01  0.12801620922E+01  0.00000000000E+00 0. -1.
          1    1    1    2  502    0  0.13654959324E+02 -0.15992910678E+02  0.10047657109E+03  0.10265365285E+03  0.00000000000E+00 0. -1.
         -1    1    1    2    0  501 -0.13654959324E+02  0.15992910678E+02  0.57676839363E+03  0.57715163605E+03  0.00000000000E+00 0.  1.
</event>
<event>
 4    1  0.6629728E+001  0.2402295E+02  0.7546771E-02  0.1480037E+00
          2   -1    0    0  502    0  0.00000000000E+00  0.00000000000E+00  0.56232331730E+03  0.56232331730E+03  0.00000000000E+00 0. -1.
         -2   -1    0    0    0  501 -0.00000000000E+00 -0.00000000000E+00 -0.11706010449E+01  0.11706010449E+01  0.00000000000E+00 0.  1.
          1    1    1    2  502    0  0.18627281182E+02  0.15169922294E+02  0.37950385347E+03  0.38026343099E+03  0.00000000000E+00 0.  1.
         -1    1    1    2    0  501 -0.18627281182E+02 -0.15169922294E+02  0.18164886278E+03  0.18323048736E+03  0.00000000000E+00 0. -1.
</event>
<event>
 4    1  0.6629728E+001  0.2089033E+02  0.7546771E-02  0.1520836E+00
          2   -1    0    0  502    0  0.00000000000E+00  0.00000000000E+00  0.20156419917E+03  0.20156419917E+03  0.00000000000E+00 0. -1.
         -2   -1    0    0    0  501 -0.00000000000E+00 -0.00000000000E+00 -0.24456050658E+01  0.24456050658E+01  0.00000000000E+00 0.  1.
          1    1    1    2  502    0 -0.27591599318E+01 -0.20707320282E+02  0.65013085552E+02  0.68286948752E+02  0.00000000000E+00 0.  1.
         -1    1    1    2    0  501  0.27591599318E+01  0.20707320282E+02  0.13410550855E+03  0.13572285548E+03  0.00000000000E+00 0. -1.
</event>
<event>
 4    1  0.6629728E+001  0.2612928E+02  0.7546771E-02  0.1456556E+00
          2   -1    0    0  502    0  0.00000000000E+00  0.00000000000E+00  0.10580211600E+03  0.10580211600E+03  0.00000000000E+00 0.  1.
         -2   -1    0    0    0  501 -0.00000000000E+00 -0.00000000000E+00 -0.74673660242E+01  0.74673660242E+01  0.00000000000E+00 0. -1.
          1    1    1    2  502    0 -0.18972892690E+02  0.17965768907E+02  0.28293663688E+02  0.38513256346E+02  0.00000000000E+00 0. -1.
         -1    1    1    2    0  501  0.18972892690E+02 -0.17965768907E+02  0.70041086290E+02  0.74756225681E+02  0.00000000000E+00 0.  1.
</event>
<event>
 4    1  0.6629728E+001  0.2610832E+02  0.7546771E-02  0.1456777E+00
          2   -1    0    0  502    0  0.00000000000E+00  0.00000000000E+00  0.52343627020E+03  0.52343627020E+03  0.00000000000E+00 0. -1.
         -2   -1    0    0    0  501 -0.00000000000E+00 -0.00000000000E+00 -0.13208210296E+01  0.13208210296E+01  0.00000000000E+00 0.  1.
          1    1    1    2  502    0 -0.24198198003E+02 -0.98026419602E+01  0.29216995733E+03  0.29333415850E+03  0.00000000000E+00 0. -1.
         -1    1    1    2    0  501  0.24198198003E+02  0.98026419602E+01  0.22994549184E+03  0.23142293273E+03  0.00000000000E+00 0.  1.
</event>
<event>
 4    1  0.6629728E+001  0.4760853E+02  0.7546771E-02  0.1308888E+00
          2   -1    0    0  502    0  0.00000000000E+00  0.00000000000E+00  0.23948136600E+02  0.23948136600E+02  0.00000000000E+00 0. -1.
         -2   -1    0    0    0  501 -0.00000000000E+00 -0.00000000000E+00 -0.20924556072E+03  0.20924556072E+03  0.00000000000E+00 0.  1.
          1    1    1    2  502    0 -0.78480805500E+01 -0.46957209433E+02 -0.63603911565E+01  0.48031515297E+02  0.00000000000E+00 0. -1.
         -1    1    1    2    0  501  0.78480805500E+01  0.46957209433E+02 -0.17893703296E+03  0.18516218202E+03  0.00000000000E+00 0.  1.
</event>
<event>
 4    1  0.6629728E+001  0.2327886E+02  0.7546771E-02  0.1489026E+00
          2   -1    0    0  502    0  0.00000000000E+00  0.00000000000E+00  0.11324813676E+04  0.11324813676E+04  0.00000000000E+00 0.  1.
         -2   -1    0    0    0  501 -0.00000000000E+00 -0.00000000000E+00 -0.49561248612E+00  0.49561248612E+00  0.00000000000E+00 0. -1.
          1    1    1    2  502    0 -0.11554197522E+02 -0.20209050136E+02  0.46076460142E+03  0.46135227659E+03  0.00000000000E+00 0. -1.
         -1    1    1    2    0  501  0.11554197522E+02  0.20209050136E+02  0.67122115372E+03  0.67162470353E+03  0.00000000000E+00 0.  1.
</event>
<event>
 4    1  0.6629728E+001  0.2048902E+02  0.7546771E-02  0.1526687E+00
          2   -1    0    0  502    0  0.00000000000E+00  0.00000000000E+00  0.33758353637E+03  0.33758353637E+03  0.00000000000E+00 0. -1.
         -2   -1    0    0    0  501 -0.00000000000E+00 -0.00000000000E+00 -0.30361843824E+01  0.30361843824E+01  0.00000000000E+00 0.  1.
          1    1    1    2  502    0  0.86668910075E+00  0.20470685341E+02  0.29813830069E+03  0.29884150723E+03  0.00000000000E+00 0. -1.
         -1    1    1    2    0  501 -0.86668910075E+00 -0.20470685341E+02  0.36409051303E+02  0.41778213522E+02  0.00000000000E+00 0.  1.
</event>
<event>
 4    1  0.6629728E+001  0.2645114E+02  0.7546771E-02  0.1453201E+00
          2   -1    0    0  502    0  0.00000000000E+00  0.00000000000E+00  0.72714496743E+03  0.72714496743E+03  0.00000000000E+00 0. -1.
         -2   -1    0    0    0  501 -0.00000000000E+00 -0.00000000000E+00 -0.96247229162E+00  0.96247229162E+00  0.00000000000E+00 0.  1.
          1    1    1    2  502    0  0.23833222200E+02  0.11473470890E+02  0.35703206010E+03  0.35801055146E+03  0.00000000000E+00 0.  1.
         -1    1    1    2    0  501 -0.23833222200E+02 -0.11473470890E+02  0.36915043503E+03  0.37009688826E+03  0.00000000000E+00 0. -1.
</event>
<event>
 4    1  0.6629728E+001  0.3098814E+02  0.7546771E-02  0.1411199E+00
          2   -1    0    0  502    0  0.00000000000E+00  0.00000000000E+00  0.17097298663E+01  0.17097298663E+01  0.00000000000E+00 0.  1.
         -2   -1    0    0    0  501 -0.00000000000E+00 -0.00000000000E+00 -0.75528586390E+03  0.75528586390E+03  0.00000000000E+00 0. -1.
          1    1    1    2  502    0  0.30796009357E+02 -0.34453900514E+01 -0.56843583852E+03  0.56927986740E+03  0.00000000000E+00 0. -1.
         -1    1    1    2    0  501 -0.30796009357E+02  0.34453900514E+01 -0.18514029551E+03  0.18771572637E+03  0.00000000000E+00 0.  1.
</event>
<event>
 4    1  0.6629728E+001  0.2359946E+02  0.7546771E-02  0.1485105E+00
          2   -1    0    0  502    0  0.00000000000E+00  0.00000000000E+00  0.10986334680E+04  0.10986334680E+04  0.00000000000E+00 0.  1.
         -2   -1    0    0    0  501 -0.00000000000E+00 -0.00000000000E+00 -0.51652564071E+00  0.51652564071E+00  0.00000000000E+00 0. -1.
          1    1    1    2  502    0  0.16284340357E+02 -0.17080834116E+02  0.62394918293E+03  0.62439532150E+03  0.00000000000E+00 0.  1.
         -1    1    1    2    0  501 -0.16284340357E+02  0.17080834116E+02  0.47416775938E+03  0.47475467209E+03  0.00000000000E+00 0. -1.
</event>
<event>
 4    1  0.6629728E+001  0.6962387E+02  0.7546771E-02  0.1230230E+00
          2   -1    0    0  502    0  0.00000000000E+00  0.00000000000E+00  0.18023564638E+03  0.18023564638E+03  0.00000000000E+00 0. -1.
         -2   -1    0    0    0  501 -0.00000000000E+00 -0.00000000000E+00 -0.28400142654E+02  0.28400142654E+02  0.00000000000E+00 0.  1.
          1    1    1    2  502    0 -0.28760282601E+02 -0.63406063180E+02  0.99931025257E+02  0.12179364726E+03  0.00000000000E+00 0.  1.
         -1    1    1    2    0  501  0.28760282601E+02  0.63406063180E+02  0.51904478468E+02  0.86842141776E+02  0.00000000000E+00 0. -1.
</event>
<event>
 4    1  0.6629728E+001  0.2050541E+02  0.7546771E-02  0.1526445E+00
          2   -1    0    0  502    0  0.00000000000E+00  0.00000000000E+00  0.31047887500E+02  0.31047887500E+02  0.00000000000E+00 0.  1.
         -2   -1    0    0    0  501 -0.00000000000E+00 -0.00000000000E+00 -0.14637131546E+02  0.14637131546E+02  0.00000000000E+00 0. -1.
          1    1    1    2  502    0 -0.14497360232E+02 -0.14501663837E+02  0.19592131544E+01  0.20598791808E+02  0.00000000000E+00 0. -1.
         -1    1    1    2    0  501  0.14497360232E+02  0.14501663837E+02  0.14451542800E+02  0.25086227238E+02  0.00000000000E+00 0.  1.
</event>
<event>
 4    1  0.6629728E+001  0.3306341E+02  0.7546771E-02  0.1394714E+00
          2   -1    0    0  502    0  0.00000000000E+00  0.00000000000E+00  0.83426711273E+03  0.83426711273E+03  0.00000000000E+00 0. -1.
         -2   -1    0    0    0  501 -0.00000000000E+00 -0.00000000000E+00 -0.13787110484E+01  0.13787110484E+01  0.00000000000E+00 0.  1.
          1    1    1    2  502    0  0.13611697422E+02  0.30131558149E+02  0.50947625184E+03  0.51054798040E+03  0.00000000000E+00 0. -1.
         -1    1    1    2    0  501 -0.13611697422E+02 -0.30131558149E+02  0.32341214985E+03  0.32509784338E+03  0.00000000000E+00 0.  1.
</event>
<event>
 4    1  0.6629728E+001  0.2020571E+02  0.7546771E-02  0.1530914E+00
          2   -1    0    0  502    0  0.00000000000E+00  0.00000000000E+00  0.19288937802E+02  0.19288937802E+02  0.00000000000E+00 0.  1.
         -2   -1    0    0    0  501 -0.00000000000E+00 -0.00000000000E+00 -0.21246354293E+02  0.21246354293E+02  0.00000000000E+00 0. -1.
          1    1    1    2  502    0 -0.17626783446E+02  0.98776054423E+01 -0.22247592267E+01  0.20327816842E+02  0.00000000000E+00 0. -1.
         -1    1    1    2    0  501  0.17626783446E+02 -0.98776054423E+01  0.26734273572E+00  0.20207475252E+02  0.00000000000E+00 0.  1.
</event>
<event>
 4    1  0.6629728E+001  0.2270188E+02  0.7546771E-02  0.1496276E+00
          2   -1    0    0  502    0  0.00000000000E+00  0.00000000000E+00  0.17076741726E+03  0.17076741726E+03  0.00000000000E+00 0. -1.
         -2   -1    0    0    0  501 -0.00000000000E+00 -0.00000000000E+00 -0.36861952699E+01  0.36861952699E+01  0.00000000000E+00 0.  1.
          1    1    1    2  502    0 -0.13436070156E+02  0.18298838793E+02  0.46403030132E+02  0.51658655497E+02  0.00000000000E+00 0. -1.
         -1    1    1    2    0  501  0.13436070156E+02 -0.18298838793E+02  0.12067819186E+03  0.12279495704E+03  0.00000000000E+00 0.  1.
</event>
<event>
 4    1  0.6629728E+001  0.3745181E+02  0.7546771E-02  0.1364102E+00
          2   -1    0    0  502    0  0.00000000000E+00  0.00000000000E+00  0.21032694270E+03  0.21032694270E+03  0.00000000000E+00 0. -1.
         -2   -1    0    0    0  501 -0.00000000000E+00 -0.00000000000E+00 -0.66801365324E+01  0.66801365324E+01  0.00000000000E+00 0.  1.
          1    1    1    2  502    0  0.25051347582E+02  0.27840049542E+02  0.97363007667E+02  0.10431775322E+03  0.00000000000E+00 0.  1.
         -1    1    1    2    0  501 -0.25051347582E+02 -0.27840049542E+02  0.10628379850E+03  0.11268932601E+03  0.00000000000E+00 0. -1.
</event>
<event>
 4    1  0.6629728E+001  0.2075511E+02  0.7546771E-02  0.1522790E+00
          2   -1    0    0  502    0  0.00000000000E+00  0.00000000000E+00  0.25689003378E+01  0.25689003378E+01  0.00000000000E+00 0. -1.
         -2   -1    0    0    0  501 -0.00000000000E+00 -0.00000000000E+00 -0.20615851677E+03  0.20615851677E+03  0.00000000000E+00 0.  1.
          1    1    1    2  502    0  0.20680048712E+02 -0.17635847818E+01 -0.56712003609E+02  0.60390611848E+02  0.00000000000E+00 0. -1.
         -1    1    1    2    0  501 -0.20680048712E+02  0.17635847818E+01 -0.14687761283E+03  0.14833680526E+03  0.00000000000E+00 0.  1.
</event>
<event>
 4    1  0.6629728E+001  0.2078804E+02  0.7546771E-02  0.1522313E+00
          2   -1    0    0  502    0  0.00000000000E+00  0.00000000000E+00  0.18333167714E+01  0.18333167714E+01  0.00000000000E+00 0.  1.
         -2   -1    0    0    0  501 -0.00000000000E+00 -0.00000000000E+00 -0.25697709996E+03  0.25697709996E+03  0.00000000000E+00 0. -1.
          1    1    1    2  502    0  0.17741178630E+02  0.10834816144E+02 -0.16479342557E+03  0.16609941532E+03  0.00000000000E+00 0. -1.
         -1    1    1    2    0  501 -0.17741178630E+02 -0.10834816144E+02 -0.90350357618E+02  0.92711001406E+02  0.00000000000E+00 0.  1.
</event>
<event>
 4    1  0.6629728E+001  0.2838112E+02  0.7546771E-02  0.1434207E+00
          2   -1    0    0  502    0  0.00000000000E+00  0.00000000000E+00  0.16605518222E+04  0.16605518222E+04  0.00000000000E+00 0.  1.
         -2   -1    0    0    0  501 -0.00000000000E+00 -0.00000000000E+00 -0.19300277113E+01  0.19300277113E+01  0.00000000000E+00 0. -1.
          1    1    1    2  502    0  0.24554435358E+02  0.14232620433E+02  0.15485484580E+04  0.15488085145E+04  0.00000000000E+00 0.  1.
         -1    1    1    2    0  501 -0.24554435358E+02 -0.14232620433E+02  0.11007333648E+03  0.11367333541E+03  0.00000000000E+00 0. -1.
</event>
<event>
 4    1  0.6629728E+001  0.2729652E+02  0.7546771E-02  0.1444652E+00
          2   -1    0    0  502    0  0.00000000000E+00  0.00000000000E+00  0.63004543985E+03  0.63004543985E+03  0.00000000000E+00 0. -1.
         -2   -1    0    0    0  501 -0.00000000000E+00 -0.00000000000E+00 -0.12319608444E+01  0.12319608444E+01  0.00000000000E+00 0.  1.
          1    1    1    2  502    0  0.20630859208E+02 -0.17873656072E+02  0.25123456148E+03  0.25271308794E+03  0.00000000000E+00 0. -1.
         -1    1    1    2    0  501 -0.20630859208E+02  0.17873656072E+02  0.37757891752E+03  0.37856431275E+03  0.00000000000E+00 0.  1.
</event>
<event>
 4    1  0.6629728E+001  0.2908446E+02  0.7546771E-02  0.1427723E+00
          2   -1    0    0  502    0  0.00000000000E+00  0.00000000000E+00  0.41902017351E+03  0.41902017351E+03  0.00000000000E+00 0.  1.
         -2   -1    0    0    0  501 -0.00000000000E+00 -0.00000000000E+00 -0.22976517173E+01  0.22976517173E+01  0.00000000000E+00 0. -1.
          1    1    1    2  502    0 -0.16251509998E+02 -0.24120410039E+02  0.28175297215E+03  0.28325014223E+03  0.00000000000E+00 0.  1.
         -1    1    1    2    0  501  0.16251509998E+02  0.24120410039E+02  0.13496954964E+03  0.13806768300E+03  0.00000000000E+00 0. -1.
</event>
<event>
 4    1  0.6629728E+001  0.2064093E+02  0.7546771E-02  0.1524454E+00
          2   -1    0    0  502    0  0.00000000000E+00  0.00000000000E+00  0.10017872307E+02  0.10017872307E+02  0.00000000000E+00 0.  1.
         -2   -1    0    0    0  501 -0.00000000000E+00 -0.00000000000E+00 -0.43698268449E+02  0.43698268449E+02  0.00000000000E+00 0. -1.
          1    1    1    2  502    0 -0.19493313693E+02  0.67866567772E+01 -0.21233982845E+02  0.29613004178E+02  0.00000000000E+00 0. -1.
         -1    1    1    2    0  501  0.19493313693E+02 -0.67866567772E+01 -0.12446413297E+02  0.24103136578E+02  0.00000000000E+00 0.  1.
</event>
<event>
 4    1  0.6629728E+001  0.3276802E+02  0.7546771E-02  0.1396972E+00
          2   -1    0    0  502    0  0.00000000000E+00  0.00000000000E+00  0.15462599531E+02  0.15462599531E+02  0.00000000000E+00 0.  1.
         -2   -1    0    0    0  501 -0.00000000000E+00 -0.00000000000E+00 -0.69632292888E+02  0.69632292888E+02  0.00000000000E+00 0. -1.
          1    1    1    2  502    0 -0.13239440640E+02  0.29974332704E+02 -0.29313012833E+02  0.43965851873E+02  0.00000000000E+00 0. -1.
         -1    1    1    2    0  501  0.13239440640E+02 -0.29974332704E+02 -0.24856680524E+02  0.41129040546E+02  0.00000000000E+00 0.  1.
</event>
<event>
 4    1  0.6629728E+001  0.2028518E+02  0.7546771E-02  0.1529720E+00
          2   -1    0    0  502    0  0.00000000000E+00  0.00000000000E+00  0.84828959990E+02  0.84828959990E+02  0.00000000000E+00 0. -1.
         -2   -1    0    0    0  501 -0.00000000000E+00 -0.00000000000E+00 -0.51282612871E+01  0.51282612871E+01  0.00000000000E+00 0.  1.
          1    1    1    2  502    0  0.63633960504E+00 -0.20275192194E+02  0.50312522631E+02  0.54247933418E+02  0.00000000000E+00 0. -1.
         -1    1    1    2    0  501 -0.63633960504E+00  0.20275192194E+02  0.29388176071E+02  0.35709287859E+02  0.00000000000E+00 0.  1.
</event>
<event>
 4    1  0.6629728E+001  0.2778993E+02  0.7546771E-02  0.1439831E+00
          2   -1    0    0  502    0  0.00000000000E+00  0.00000000000E+00  0.10928524100E+04  0.10928524100E+04  0.00000000000E+00 0.  1.
         -2   -1    0    0    0  501 -0.00000000000E+00 -0.00000000000E+00 -0.74229272505E+00  0.74229272505E+00  0.00000000000E+00 0. -1.
          1    1    1    2  502    0  0.49975799206E+01 -0.27336867107E+02  0.42626099415E+03  0.42716591068E+03  0.00000000000E+00 0. -1.
         -1    1    1    2    0  501 -0.49975799206E+01  0.27336867107E+02  0.66584912316E+03  0.66642879209E+03  0.00000000000E+00 0.  1.
</event>
<event>
 4    1  0.6629728E+001  0.2499630E+02  0.7546771E-02  0.1468845E+00
          2   -1    0    0  502    0  0.00000000000E+00  0.00000000000E+00  0.10485599961E+01  0.10485599961E+01  0.00000000000E+00 0.  1.
         -2   -1    0    0    0  501 -0.00000000000E+00 -0.00000000000E+00 -0.60068034963E+03  0.60068034963E+03  0.00000000000E+00 0. -1.
          1    1    1    2  502    0 -0.24064156312E+02  0.67625010100E+01 -0.27291764249E+03  0.27405994713E+03  0.00000000000E+00 0. -1.
         -1    1    1    2    0  501  0.24064156312E+02 -0.67625010100E+01 -0.32671414714E+03  0.32766896250E+03  0.00000000000E+00 0.  1.
</event>
<event>
 4    1  0.6629728E+001  0.2104101E+02  0.7546771E-02  0.1518680E+00
          2   -1    0    0  502    0  0.00000000000E+00  0.00000000000E+00  0.15248656757E+02  0.15248656757E+02  0.00000000000E+00 0.  1.
         -2   -1    0    0    0  501 -0.00000000000E+00 -0.00000000000E+00 -0.44849671987E+02  0.44849671987E+02  0.00000000000E+00 0. -1.
          1    1    1    2  502    0  0.97473772627E+01 -0.18647053898E+02  0.30438762227E+01  0.21260036807E+02  0.00000000000E+00 0.  1.
         -1    1    1    2    0  501 -0.97473772627E+01  0.18647053898E+02 -0.32644891453E+02  0.38838291937E+02  0.00000000000E+00 0. -1.
</event>
<event>
 4    1  0.6629728E+001  0.2178935E+02  0.7546771E-02  0.1508287E+00
          2   -1    0    0  502    0  0.00000000000E+00  0.00000000000E+00  0.93427959229E+02  0.93427959229E+02  0.00000000000E+00 0. -1.
         -2   -1    0    0    0  501 -0.00000000000E+00 -0.00000000000E+00 -0.75472309642E+02  0.75472309642E+02  0.00000000000E+00 0.  1.
          1    1    1    2  502    0 -0.72342740800E+01 -0.20553375805E+02 -0.72579652757E+02  0.75779825632E+02  0.00000000000E+00 0.  1.
         -1    1    1    2    0  501  0.72342740800E+01  0.20553375805E+02  0.90535302344E+02  0.93120443239E+02  0.00000000000E+00 0. -1.
</event>
<event>
 4    1  0.6629728E+001  0.2205429E+02  0.7546771E-02  0.1504728E+00
          2   -1    0    0  502    0  0.00000000000E+00  0.00000000000E+00  0.43302655762E+03  0.43302655762E+03  0.00000000000E+00 0.  1.
         -2   -1    0    0    0  501 -0.00000000000E+00 -0.00000000000E+00 -0.16834199964E+01  0.16834199964E+01  0.00000000000E+00 0. -1.
          1    1    1    2  502    0 -0.46804666778E+01  0.21551914177E+02  0.34105439223E+03  0.34176671903E+03  0.00000000000E+00 0.  1.
         -1    1    1    2    0  501  0.46804666778E+01 -0.21551914177E+02  0.90288745392E+02  0.92943258591E+02  0.00000000000E+00 0. -1.
</event>
<event>
 4    1  0.6629728E+001  0.2120770E+02  0.7546771E-02  0.1516320E+00
          2   -1    0    0  502    0  0.00000000000E+00  0.00000000000E+00  0.29981222393E+02  0.29981222393E+02  0.00000000000E+00 0.  1.
         -2   -1    0    0    0  501 -0.00000000000E+00 -0.00000000000E+00 -0.18745727485E+02  0.18745727485E+02  0.00000000000E+00 0. -1.
          1    1    1    2  502    0 -0.12799915255E+02 -0.16909430346E+02 -0.52706182908E+01  0.21852827788E+02  0.00000000000E+00 0. -1.
         -1    1    1    2    0  501  0.12799915255E+02  0.16909430346E+02  0.16506113199E+02  0.26874122090E+02  0.00000000000E+00 0.  1.
</event>
<event>
 4    1  0.6629728E+001  0.2643637E+02  0.7546771E-02  0.1453353E+00
          2   -1    0    0  502    0  0.00000000000E+00  0.00000000000E+00  0.34557190124E+02  0.34557190124E+02  0.00000000000E+00 0. -1.
         -2   -1    0    0    0  501 -0.00000000000E+00 -0.00000000000E+00 -0.26741249902E+02  0.26741249902E+02  0.00000000000E+00 0.  1.
          1    1    1    2  502    0 -0.10802692761E+02 -0.24128480120E+02  0.19038827857E+02  0.32578500425E+02  0.00000000000E+00 0. -1.
         -1    1    1    2    0  501  0.10802692761E+02  0.24128480120E+02 -0.11222887635E+02  0.28719939601E+02  0.00000000000E+00 0.  1.
</event>
<event>
 4    1  0.6629728E+001  0.2311905E+02  0.7546771E-02  0.1491009E+00
          2   -1    0    0  502    0  0.00000000000E+00  0.00000000000E+00  0.44407809769E+03  0.44407809769E+03  0.00000000000E+00 0.  1.
         -2   -1    0    0    0  501 -0.00000000000E+00 -0.00000000000E+00 -0.16497506463E+01  0.16497506463E+01  0.00000000000E+00 0. -1.
          1    1    1    2  502    0  0.17687878832E+02 -0.14887223174E+02  0.33711152057E+03  0.33790334087E+03  0.00000000000E+00 0.  1.
         -1    1    1    2    0  501 -0.17687878832E+02  0.14887223174E+02  0.10531682647E+03  0.10782450746E+03  0.00000000000E+00 0. -1.
</event>
<event>
 4    1  0.6629728E+001  0.3062706E+02  0.7546771E-02  0.1414224E+00
          2   -1    0    0  502    0  0.00000000000E+00  0.00000000000E+00  0.95960786774E+03  0.95960786774E+03  0.00000000000E+00 0. -1.
         -2   -1    0    0    0  501 -0.00000000000E+00 -0.00000000000E+00 -0.10149205980E+01  0.10149205980E+01  0.00000000000E+00 0.  1.
          1    1    1    2  502    0  0.30418377233E+02 -0.35692110142E+01  0.38706891641E+03  0.38827871818E+03  0.00000000000E+00 0. -1.
         -1    1    1    2    0  501 -0.30418377233E+02  0.35692110142E+01  0.57152403073E+03  0.57234407016E+03  0.00000000000E+00 0.  1.
</event>
<event>
 4    1  0.6629728E+001  0.2474691E+02  0.7546771E-02  0.1471655E+00
          2   -1    0    0  502    0  0.00000000000E+00  0.00000000000E+00  0.10455149848E+04  0.10455149848E+04  0.00000000000E+00 0.  1.
         -2   -1    0    0    0  501 -0.00000000000E+00 -0.00000000000E+00 -0.11134085728E+01  0.11134085728E+01  0.00000000000E+00 0. -1.
          1    1    1    2  502    0 -0.18911881249E+02  0.15960896205E+02  0.88245752109E+03  0.88280444380E+03  0.00000000000E+00 0.  1.
         -1    1    1    2    0  501  0.18911881249E+02 -0.15960896205E+02  0.16194405509E+03  0.16382394953E+03  0.00000000000E+00 0. -1.
</event>
<event>
 4    1  0.6629728E+001  0.2223355E+02  0.7546771E-02  0.1502353E+00
          2   -1    0    0  502    0  0.00000000000E+00  0.00000000000E+00  0.23147630464E+01  0.23147630464E+01  0.00000000000E+00 0. -1.
         -2   -1    0    0    0  501 -0.00000000000E+00 -0.00000000000E+00 -0.21499266359E+03  0.21499266359E+03  0.00000000000E+00 0.  1.
          1    1    1    2  502    0  0.21671976612E+02 -0.49655148125E+01 -0.97456119343E+02  0.99960122574E+02  0.00000000000E+00 0.  1.
         -1    1    1    2    0  501 -0.21671976612E+02  0.49655148125E+01 -0.11522178120E+03  0.11734730406E+03  0.00000000000E+00 0. -1.
</event>
<event>
 4    1  0.6629728E+001  0.6141924E+02  0.7546771E-02  0.1255085E+00
          2   -1    0    0  502    0  0.00000000000E+00  0.00000000000E+00  0.10275553713E+04  0.10275553713E+04  0.00000000000E+00 0. -1.
         -2   -1    0    0    0  501 -0.00000000000E+00 -0.00000000000E+00 -0.40879006359E+01  0.40879006359E+01  0.00000000000E+00 0.  1.
          1    1    1    2  502    0  0.16593677669E+02 -0.59135207542E+02  0.67642893020E+03  0.67921161689E+03  0.00000000000E+00 0. -1.
         -1    1    1    2    0  501 -0.16593677669E+02  0.59135207542E+02  0.34703854048E+03  0.35243165506E+03  0.00000000000E+00 0.  1.
</event>
<event>
 4    1  0.6629728E+001  0.2647055E+02  0.7546771E-02  0.1453000E+00
          2   -1    0    0  502    0  0.00000000000E+00  0.00000000000E+00  0.80032713702E+03  0.80032713702E+03  0.00000000000E+00 0.  1.
         -2   -1    0    0    0  501 -0.00000000000E+00 -0.00000000000E+00 -0.90924945472E+00  0.90924945472E+00  0.00000000000E+00 0. -1.
          1    1    1    2  502    0 -0.12914359481E+02  0.23106472969E+02  0.32253059797E+03  0.32361501263E+03  0.00000000000E+00 0. -1.
         -1    1    1    2    0  501  0.12914359481E+02 -0.23106472969E+02  0.47688728959E+03  0.47762137384E+03  0.00000000000E+00 0.  1.
</event>
<event>
 4    1  0.6629728E+001  0.2315255E+02  0.7546771E-02  0.1490591E+00
          2   -1    0    0  502    0  0.00000000000E+00  0.00000000000E+00  0.12934169959E+02  0.12934169959E+02  0.00000000000E+00 0.  1.
         -2   -1    0    0    0  501 -0.00000000000E+00 -0.00000000000E+00 -0.49605301886E+02  0.49605301886E+02  0.00000000000E+00 0. -1.
          1    1    1    2  502    0  0.12504668195E+02  0.19485219208E+02 -0.31019283525E+02  0.38707059365E+02  0.00000000000E+00 0. -1.
         -1    1    1    2    0  501 -0.12504668195E+02 -0.19485219208E+02 -0.56518484025E+01  0.23832412480E+02  0.00000000000E+00 0.  1.
</event>
<event>
 4    1  0.6629728E+001  0.2296152E+02  0.7546771E-02  0.1492982E+00
          2   -1    0    0  502    0  0.00000000000E+00  0.00000000000E+00  0.44927976480E+03  0.44927976480E+03  0.00000000000E+00 0.  1.
         -2   -1    0    0    0  501 -0.00000000000E+00 -0.00000000000E+00 -0.11781194205E+01  0.11781194205E+01  0.00000000000E+00 0. -1.
          1    1    1    2  502    0 -0.10787172225E+02 -0.20269881879E+02  0.20995217050E+03  0.21120403664E+03  0.00000000000E+00 0. -1.
         -1    1    1    2    0  501  0.10787172225E+02  0.20269881879E+02  0.23814947487E+03  0.23925384757E+03  0.00000000000E+00 0.  1.
</event>
<event>
 4    1  0.6629728E+001  0.3025663E+02  0.7546771E-02  0.1417379E+00
          2   -1    0    0  502    0  0.00000000000E+00  0.00000000000E+00  0.99963473132E+03  0.99963473132E+03  0.00000000000E+00 0. -1.
         -2   -1    0    0    0  501 -0.00000000000E+00 -0.00000000000E+00 -0.91586955315E+00  0.91586955315E+00  0.00000000000E+00 0.  1.
          1    1    1    2  502    0 -0.27012698045E+02  0.13630038048E+02  0.49494699805E+03  0.49587094558E+03  0.00000000000E+00 0. -1.
         -1    1    1    2    0  501  0.27012698045E+02 -0.13630038048E+02  0.50377186372E+03  0.50467965529E+03  0.00000000000E+00 0.  1.
</event>
<event>
 4    1  0.6629728E+001  0.5029322E+02  0.7546771E-02  0.1296906E+00
          2   -1    0    0  502    0  0.00000000000E+00  0.00000000000E+00  0.26295784017E+03  0.26295784017E+03  0.00000000000E+00 0.  1.
         -2   -1    0    0    0  501 -0.00000000000E+00 -0.00000000000E+00 -0.96291700950E+01  0.96291700950E+01  0.00000000000E+00 0. -1.
          1    1    1    2  502    0  0.14824547418E+02  0.48058718851E+02  0.12224838755E+03  0.13218954543E+03  0.00000000000E+00 0. -1.
         -1    1    1    2    0  501 -0.14824547418E+02 -0.48058718851E+02  0.13108028252E+03  0.14039746483E+03  0.00000000000E+00 0.  1.
</event>
<event>
 4    1  0.6629728E+001  0.2442808E+02  0.7546771E-02  0.1475304E+00
          2   -1    0    0  502    0  0.00000000000E+00  0.00000000000E+00  0.57132377104E+03  0.57132377104E+03  0.00000000000E+00 0.  1.
         -2   -1    0    0    0  501 -0.00000000000E+00 -0.00000000000E+00 -0.34194282215E+01  0.34194282215E+01  0.00000000000E+00 0. -1.
          1    1    1    2  502    0 -0.13464019722E+01 -0.24390951465E+02  0.44457991914E+02  0.50727156008E+02  0.00000000000E+00 0. -1.
         -1    1    1    2    0  501  0.13464019722E+01  0.24390951465E+02  0.52344635090E+03  0.52401604325E+03  0.00000000000E+00 0.  1.
</event>
<event>
 4    1  0.6629728E+001  0.2301731E+02  0.7546771E-02  0.1492281E+00
          2   -1    0    0  502    0  0.00000000000E+00  0.00000000000E+00  0.35007606483E+02  0.35007606483E+02  0.00000000000E+00 0.  1.
         -2   -1    0    0    0  501 -0.00000000000E+00 -0.00000000000E+00 -0.17674183508E+02  0.17674183508E+02  0.00000000000E+00 0. -1.
          1    1    1    2  502    0  0.16993430901E+01 -0.22954490675E+02  0.18653242495E+02  0.29626674883E+02  0.00000000000E+00 0.  1.
         -1    1    1    2    0  501 -0.16993430901E+01  0.22954490675E+02 -0.13198195202E+01  0.23055115108E+02  0.00000000000E+00 0. -1.
</event>
<event>
 4    1  0.6629728E+001  0.2388632E+02  0.7546771E-02  0.1481659E+00
          2   -1    0    0  502    0  0.00000000000E+00  0.00000000000E+00  0.13541640761E+01  0.13541640761E+01  0.00000000000E+00 0. -1.
         -2   -1    0    0    0  501 -0.00000000000E+00 -0.00000000000E+00 -0.83693063369E+03  0.83693063369E+03  0.00000000000E+00 0.  1.
          1    1    1    2  502    0  0.21624729862E+02 -0.10145305489E+02 -0.12242763245E+03  0.12473604672E+03  0.00000000000E+00 0.  1.
         -1    1    1    2    0  501 -0.21624729862E+02  0.10145305489E+02 -0.71314883717E+03  0.71354875105E+03  0.00000000000E+00 0. -1.
</event>
<event>
 4    1  0.6629728E+001  0.2125250E+02  0.7546771E-02  0.1515690E+00
          2   -1    0    0  502    0  0.00000000000E+00  0.00000000000E+00  0.19410295170E+04  0.19410295170E+04  0.00000000000E+00 0. -1.
         -2   -1    0    0    0  501 -0.00000000000E+00 -0.00000000000E+00 -0.29085881428E+00  0.29085881428E+00  0.00000000000E+00 0.  1.
          1    1    1    2  502    0  0.19232787758E+02  0.90426007489E+01  0.53630826514E+03  0.53672919057E+03  0.00000000000E+00 0.  1.
         -1    1    1    2    0  501 -0.19232787758E+02 -0.90426007489E+01  0.14044303931E+04  0.14045911853E+04  0.00000000000E+00 0. -1.
</event>
<event>
 4    1  0.6629728E+001  0.2875877E+02  0.7546771E-02  0.1430698E+00
          2   -1    0    0  502    0  0.00000000000E+00  0.00000000000E+00  0.13215579526E+04  0.13215579526E+04  0.00000000000E+00 0. -1.
         -2   -1    0    0    0  501 -0.00000000000E+00 -0.00000000000E+00 -0.94953452506E+00  0.94953452506E+00  0.00000000000E+00 0.  1.
          1    1    1    2  502    0  0.26973106454E+02 -0.99758854986E+01  0.27421372018E+03  0.27571766555E+03  0.00000000000E+00 0.  1.
         -1    1    1    2    0  501 -0.26973106454E+02  0.99758854986E+01  0.10463946979E+04  0.10467898216E+04  0.00000000000E+00 0. -1.
</event>
<event>
 4    1  0.6629728E+001  0.2660195E+02  0.7546771E-02  0.1451648E+00
          2   -1    0    0  502    0  0.00000000000E+00  0.00000000000E+00  0.47839487022E+01  0.47839487022E+01  0.00000000000E+00 0. -1.
         -2   -1    0    0    0  501 -0.00000000000E+00 -0.00000000000E+00 -0.23161469701E+03  0.23161469701E+03  0.00000000000E+00 0.  1.
          1    1    1    2  502    0  0.25442773799E+02 -0.77671681124E+01 -0.18446617858E+03  0.18637444750E+03  0.00000000000E+00 0.  1.
         -1    1    1    2    0  501 -0.25442773799E+02  0.77671681124E+01 -0.42364569726E+02  0.50024198215E+02  0.00000000000E+00 0. -1.
</event>
<event>
 4    1  0.6629728E+001  0.2065232E+02  0.7546771E-02  0.1524287E+00
          2   -1    0    0  502    0  0.00000000000E+00  0.00000000000E+00  0.17577773497E+04  0.17577773497E+04  0.00000000000E+00 0. -1.
         -2   -1    0    0    0  501 -0.00000000000E+00 -0.00000000000E+00 -0.28887943721E+00  0.28887943721E+00  0.00000000000E+00 0.  1.
          1    1    1    2  502    0  0.19523604274E+02 -0.67340304679E+01  0.52708398352E+03  0.52748843018E+03  0.00000000000E+00 0.  1.
         -1    1    1    2    0  501 -0.19523604274E+02  0.67340304679E+01  0.12304044867E+04  0.12305777990E+04  0.00000000000E+00 0. -1.
</event>
<event>
 4    1  0.6629728E+001  0.3947591E+02  0.7546771E-02  0.1351585E+00
          2   -1    0    0  502    0  0.00000000000E+00  0.00000000000E+00  0.14713494688E+04  0.14713494688E+04  0.00000000000E+00 0.  1.
         -2   -1    0    0    0  501 -0.00000000000E+00 -0.00000000000E+00 -0.39610523622E+01  0.39610523622E+01  0.00000000000E+00 0. -1.
          1    1    1    2  502    0 -0.30181254303E+02 -0.25444834461E+02  0.13650747328E+04  0.13656454056E+04  0.00000000000E+00 0.  1.
         -1    1    1    2    0  501  0.30181254303E+02  0.25444834461E+02  0.10231368368E+03  0.10966511561E+03  0.00000000000E+00 0. -1.
</event>
<event>
 4    1  0.6629728E+001  0.2631366E+02  0.7546771E-02  0.1454627E+00
          2   -1    0    0  502    0  0.00000000000E+00  0.00000000000E+00  0.47955971727E+02  0.47955971727E+02  0.00000000000E+00 0. -1.
         -2   -1    0    0    0  501 -0.00000000000E+00 -0.00000000000E+00 -0.19355815577E+02  0.19355815577E+02  0.00000000000E+00 0.  1.
          1    1    1    2  502    0  0.55413502354E+01  0.25723574333E+02  0.31263857405E+02  0.40863646665E+02  0.00000000000E+00 0. -1.
         -1    1    1    2    0  501 -0.55413502354E+01 -0.25723574333E+02 -0.26637012552E+01  0.26448140640E+02  0.00000000000E+00 0.  1.
</event>
<event>
 4    1  0.6629728E+001  0.2899667E+02  0.7546771E-02  0.1428520E+00
          2   -1    0    0  502    0  0.00000000000E+00  0.00000000000E+00  0.21818661062E+03  0.21818661062E+03  0.00000000000E+00 0.  1.
         -2   -1    0    0    0  501 -0.00000000000E+00 -0.00000000000E+00 -0.80960387460E+01  0.80960387460E+01  0.00000000000E+00 0. -1.
          1    1    1    2  502    0  0.28021530241E+02 -0.74565768362E+01  0.23143737973E+02  0.37100394911E+02  0.00000000000E+00 0. -1.
         -1    1    1    2    0  501 -0.28021530241E+02  0.74565768362E+01  0.18694683390E+03  0.18918225446E+03  0.00000000000E+00 0.  1.
</event>
<event>
 4    1  0.6629728E+001  0.2099934E+02  0.7546771E-02  0.1519274E+00
          2   -1    0    0  502    0  0.00000000000E+00  0.00000000000E+00  0.49218109721E+02  0.49218109721E+02  0.00000000000E+00 0.  1.
         -2   -1    0    0    0  501 -0.00000000000E+00 -0.00000000000E+00 -0.11033108007E+02  0.11033108007E+02  0.00000000000E+00 0. -1.
          1    1    1    2  502    0 -0.43796659633E+01  0.20537550568E+02  0.32152533560E+02  0.38402576367E+02  0.00000000000E+00 0.  1.
         -1    1    1    2    0  501  0.43796659633E+01 -0.20537550568E+02  0.60324681536E+01  0.21848641361E+02  0.00000000000E+00 0. -1.
</event>
<event>
 4    1  0.6629728E+001  0.2260291E+02  0.7546771E-02  0.1497545E+00
          2   -1    0    0  502    0  0.00000000000E+00  0.00000000000E+00  0.19931568857E+04  0.19931568857E+04  0.00000000000E+00 0.  1.
         -2   -1    0    0    0  501 -0.00000000000E+00 -0.00000000000E+00 -0.30953708704E+00  0.30953708704E+00  0.00000000000E+00 0. -1.
          1    1    1    2  502    0  0.22117949524E+02 -0.46570347779E+01  0.58315119863E+03  0.58358907814E+03  0.00000000000E+00 0. -1.
         -1    1    1    2    0  501 -0.22117949524E+02  0.46570347779E+01  0.14096961500E+04  0.14098773447E+04  0.00000000000E+00 0.  1.
</event>
<event>
 4    1  0.6629728E+001  0.3884433E+02  0.7546771E-02  0.1355394E+00
          2   -1    0    0  502    0  0.00000000000E+00  0.00000000000E+00  0.13262558262E+03  0.13262558262E+03  0.00000000000E+00 0. -1.
         -2   -1    0    0    0  501 -0.00000000000E+00 -0.00000000000E+00 -0.12890954861E+02  0.12890954861E+02  0.00000000000E+00 0.  1.
          1    1    1    2  502    0  0.56056677085E+01 -0.38437720729E+02  0.34933105025E+02  0.52241781287E+02  0.00000000000E+00 0.  1.
         -1    1    1    2    0  501 -0.56056677085E+01  0.38437720729E+02  0.84801522737E+02  0.93274756198E+02  0.00000000000E+00 0. -1.
</event>
<event>
 4    1  0.6629728E+001  0.2003162E+02  0.7546771E-02  0.1533553E+00
          2   -1    0    0  502    0  0.00000000000E+00  0.00000000000E+00  0.72746695462E+01  0.72746695462E+01  0.00000000000E+00 0.  1.
         -2   -1    0    0    0  501 -0.00000000000E+00 -0.00000000000E+00 -0.19715473497E+03  0.19715473497E+03  0.00000000000E+00 0. -1.
          1    1    1    2  502    0  0.19506916387E+02 -0.45547698829E+01 -0.18168553093E+03  0.18278648163E+03  0.00000000000E+00 0. -1.
         -1    1    1    2    0  501 -0.19506916387E+02  0.45547698829E+01 -0.81945344913E+01  0.21642922888E+02  0.00000000000E+00 0.  1.
</event>
<event>
 4    1  0.6629728E+001  0.4629542E+02  0.7546771E-02  0.1315086E+00
          2   -1    0    0  502    0  0.00000000000E+00  0.00000000000E+00  0.56859046495E+02  0.56859046495E+02  0.00000000000E+00 0. -1.
         -2   -1    0    0    0  501 -0.00000000000E+00 -0.00000000000E+00 -0.37696341380E+02  0.37696341380E+02  0.00000000000E+00 0.  1.
          1    1    1    2  502    0 -0.19083838590E+01  0.46256067019E+02  0.99236605432E+01  0.47347066473E+02  0.00000000000E+00 0. -1.
         -1    1    1    2    0  501  0.19083838590E+01 -0.46256067019E+02  0.92390445722E+01  0.47208321402E+02  0.00000000000E+00 0.  1.
</event>
<event>
 4    1  0.6629728E+001  0.2270242E+02  0.7546771E-02  0.1496269E+00
          2   -1    0    0  502    0  0.00000000000E+00  0.00000000000E+00  0.14521027060E+03  0.14521027060E+03  0.00000000000E+00 0. -1.
         -2   -1    0    0    0  501 -0.00000000000E+00 -0.00000000000E+00 -0.11828307129E+02  0.11828307129E+02  0.00000000000E+00 0.  1.
          1    1    1    2  502    0 -0.18708692740E+02 -0.12860200753E+02  0.10003766534E+01  0.22724451608E+02  0.00000000000E+00 0.  1.
         -1    1    1    2    0  501  0.18708692740E+02  0.12860200753E+02  0.13238158682E+03  0.13431412612E+03  0.00000000000E+00 0. -1.
</event>
<event>
 4    1  0.6629728E+001  0.3714828E+02  0.7546771E-02  0.1366059E+00
          2   -1    0    0  502    0  0.00000000000E+00  0.00000000000E+00  0.31034775331E+02  0.31034775331E+02  0.00000000000E+00 0.  1.
         -2   -1    0    0    0  501 -0.00000000000E+00 -0.00000000000E+00 -0.47345989263E+02  0.47345989263E+02  0.00000000000E+00 0. -1.
          1    1    1    2  502    0 -0.11264882202E+02  0.35399113139E+02  0.15099604621E+01  0.37178955911E+02  0.00000000000E+00 0.  1.
         -1    1    1    2    0  501  0.11264882202E+02 -0.35399113139E+02 -0.17821174394E+02  0.41201808683E+02  0.00000000000E+00 0. -1.
</event>
<event>
 4    1  0.6629728E+001  0.2218926E+02  0.7546771E-02  0.1502938E+00
          2   -1    0    0  502    0  0.00000000000E+00  0.00000000000E+00  0.95167097156E+03  0.95167097156E+03  0.00000000000E+00 0. -1.
         -2   -1    0    0    0  501 -0.00000000000E+00 -0.00000000000E+00 -0.54049871733E+00  0.54049871733E+00  0.00000000000E+00 0.  1.
          1    1    1    2  502    0 -0.22060097451E+02  0.23906618869E+01  0.37707119998E+03  0.37772351399E+03  0.00000000000E+00 0.  1.
         -1    1    1    2    0  501  0.22060097451E+02 -0.23906618869E+01  0.57405927286E+03  0.57448795629E+03  0.00000000000E+00 0. -1.
</event>
<event>
 4    1  0.6629728E+001  0.3872567E+02  0.7546771E-02  0.1356120E+00
          2   -1    0    0  502    0  0.00000000000E+00  0.00000000000E+00  0.14930887935E+02  0.14930887935E+02  0.00000000000E+00 0.  1.
         -2   -1    0    0    0  501 -0.00000000000E+00 -0.00000000000E+00 -0.11892390164E+03  0.11892390164E+03  0.00000000000E+00 0. -1.
          1    1    1    2  502    0 -0.22952504989E+02  0.31190701388E+02 -0.78381151894E+02  0.87425867514E+02  0.00000000000E+00 0.  1.
         -1    1    1    2    0  501  0.22952504989E+02 -0.31190701388E+02 -0.25611861814E+02  0.46428922063E+02  0.00000000000E+00 0. -1.
</event>
<event>
 4    1  0.6629728E+001  0.4383218E+02  0.7546771E-02  0.1327383E+00
          2   -1    0    0  502    0  0.00000000000E+00  0.00000000000E+00  0.13796053332E+04  0.13796053332E+04  0.00000000000E+00 0.  1.
         -2   -1    0    0    0  501 -0.00000000000E+00 -0.00000000000E+00 -0.19734503124E+01  0.19734503124E+01  0.00000000000E+00 0. -1.
          1    1    1    2  502    0 -0.34840630005E+02 -0.26596821356E+02  0.31405121411E+03  0.31709529402E+03  0.00000000000E+00 0. -1.
         -1    1    1    2    0  501  0.34840630005E+02  0.26596821356E+02  0.10635806687E+04  0.10644834894E+04  0.00000000000E+00 0.  1.
</event>
<event>
 4    1  0.6629728E+001  0.2362880E+02  0.7546771E-02  0.1484750E+00
          2   -1    0    0  502    0  0.00000000000E+00  0.00000000000E+00  0.14395650952E+03  0.14395650952E+03  0.00000000000E+00 0. -1.
         -2   -1    0    0    0  501 -0.00000000000E+00 -0.00000000000E+00 -0.43005995695E+01  0.43005995695E+01  0.00000000000E+00 0.  1.
          1    1    1    2  502    0  0.17271347925E+00 -0.23628171507E+02  0.93054365222E+02  0.96007474739E+02  0.00000000000E+00 0. -1.
         -1    1    1    2    0  501 -0.17271347925E+00  0.23628171507E+02  0.46601544725E+02  0.52249634348E+02  0.00000000000E+00 0.  1.
</event>
<event>
 4    1  0.6629728E+001  0.2004052E+02  0.7546771E-02  0.1533417E+00
          2   -1    0    0  502    0  0.00000000000E+00  0.00000000000E+00  0.53860283972E+02  0.53860283972E+02  0.00000000000E+00 0. -1.
         -2   -1    0    0    0  501 -0.00000000000E+00 -0.00000000000E+00 -0.79007304194E+01  0.79007304194E+01  0.00000000000E+00 0.  1.
          1    1    1    2  502    0  0.19372258185E+02 -0.51320491543E+01  0.15659357576E+02  0.25433006024E+02  0.00000000000E+00 0.  1.
         -1    1    1    2    0  501 -0.19372258185E+02  0.51320491543E+01  0.30300195977E+02  0.36328008368E+02  0.00000000000E+00 0. -1.
</event>
<event>
 4    1  0.6629728E+001  0.2263551E+02  0.7546771E-02  0.1497127E+00
          2   -1    0    0  502    0  0.00000000000E+00  0.00000000000E+00  0.10549207667E+04  0.10549207667E+04  0.00000000000E+00 0. -1.
         -2   -1    0    0    0  501 -0.00000000000E+00 -0.00000000000E+00 -0.48785387585E+00  0.48785387585E+00  0.00000000000E+00 0.  1.
          1    1    1    2  502    0 -0.11300091582E+02 -0.19613108977E+02  0.56234864969E+03  0.56280402444E+03  0.00000000000E+00 0. -1.
         -1    1    1    2    0  501  0.11300091582E+02  0.19613108977E+02  0.49208426309E+03  0.49260459610E+03  0.00000000000E+00 0.  1.
</event>
<event>
 4    1  0.6629728E+001  0.2435002E+02  0.7546771E-02  0.1476208E+00
          2   -1    0    0  502    0  0.00000000000E+00  0.00000000000E+00  0.93425522065E+01  0.93425522065E+01  0.00000000000E+00 0.  1.
         -2   -1    0    0    0  501 -0.00000000000E+00 -0.00000000000E+00 -0.12874209405E+03  0.12874209405E+03  0.00000000000E+00 0. -1.
          1    1    1    2  502    0 -0.13795384389E+02  0.20065161172E+02 -0.10886251798E+03  0.11155254880E+03  0.00000000000E+00 0. -1.
         -1    1    1    2    0  501  0.13795384389E+02 -0.20065161172E+02 -0.10537023859E+02  0.26532097450E+02  0.00000000000E+00 0.  1.
</event>
<event>
 4    1  0.6629728E+001  0.2136024E+02  0.7546771E-02  0.1514183E+00
          2   -1    0    0  502    0  0.00000000000E+00  0.00000000000E+00  0.56400620743E+03  0.56400620743E+03  0.00000000000E+00 0.  1.
         -2   -1    0    0    0  501 -0.00000000000E+00 -0.00000000000E+00 -0.84301191429E+00  0.84301191429E+00  0.00000000000E+00 0. -1.
          1    1    1    2  502    0 -0.13464714781E+02  0.16581959091E+02  0.33834129275E+03  0.33901488211E+03  0.00000000000E+00 0.  1.
         -1    1    1    2    0  501  0.13464714781E+02 -0.16581959091E+02  0.22482190276E+03  0.22583433723E+03  0.00000000000E+00 0. -1.
</event>
<event>
 4    1  0.6629728E+001  0.2458734E+02  0.7546771E-02  0.1473473E+00
          2   -1    0    0  502    0  0.00000000000E+00  0.00000000000E+00  0.10841175570E+04  0.10841175570E+04  0.00000000000E+00 0.  1.
         -2   -1    0    0    0  501 -0.00000000000E+00 -0.00000000000E+00 -0.55908703763E+00  0.55908703763E+00  0.00000000000E+00 0. -1.
          1    1    1    2  502    0 -0.19061961514E+02  0.15529935083E+02  0.51409976773E+03  0.51468738904E+03  0.00000000000E+00 0.  1.
         -1    1    1    2    0  501  0.19061961514E+02 -0.15529935083E+02  0.56945870218E+03  0.56998925495E+03  0.00000000000E+00 0. -1.
</event>
<event>
 4    1  0.6629728E+001  0.3607680E+02  0.7546771E-02  0.1373147E+00
          2   -1    0    0  502    0  0.00000000000E+00  0.00000000000E+00  0.50137550330E+03  0.50137550330E+03  0.00000000000E+00 0. -1.
         -2   -1    0    0    0  501 -0.00000000000E+00 -0.00000000000E+00 -0.44685955506E+01  0.44685955506E+01  0.00000000000E+00 0.  1.
          1    1    1    2  502    0 -0.35643116757E+02  0.55770490436E+01  0.41218463147E+03  0.41376044479E+03  0.00000000000E+00 0. -1.
         -1    1    1    2    0  501  0.35643116757E+02 -0.55770490436E+01  0.84722276279E+02  0.92083654065E+02  0.00000000000E+00 0.  1.
</event>
<event>
 4    1  0.6629728E+001  0.4840628E+02  0.7546771E-02  0.1305234E+00
          2   -1    0    0  502    0  0.00000000000E+00  0.00000000000E+00  0.26298967617E+03  0.26298967617E+03  0.00000000000E+00 0.  1.
         -2   -1    0    0    0  501 -0.00000000000E+00 -0.00000000000E+00 -0.14334481041E+02  0.14334481041E+02  0.00000000000E+00 0. -1.
          1    1    1    2  502    0 -0.16528574106E+02 -0.45496967360E+02  0.39026129801E+02  0.62178827653E+02  0.00000000000E+00 0. -1.
         -1    1    1    2    0  501  0.16528574106E+02  0.45496967360E+02  0.20962906532E+03  0.21514532955E+03  0.00000000000E+00 0.  1.
</event>
<event>
 4    1  0.6629728E+001  0.2379388E+02  0.7546771E-02  0.1482763E+00
          2   -1    0    0  502    0  0.00000000000E+00  0.00000000000E+00  0.19665936269E+04  0.19665936269E+04  0.00000000000E+00 0.  1.
         -2   -1    0    0    0  501 -0.00000000000E+00 -0.00000000000E+00 -0.31173191888E+00  0.31173191888E+00  0.00000000000E+00 0. -1.
          1    1    1    2  502    0  0.19164337189E+02  0.14102369891E+02  0.71112260949E+03  0.71152056498E+03  0.00000000000E+00 0.  1.
         -1    1    1    2    0  501 -0.19164337189E+02 -0.14102369891E+02  0.12551592855E+04  0.12553847939E+04  0.00000000000E+00 0. -1.
</event>
<event>
 4    1  0.6629728E+001  0.7055587E+02  0.7546771E-02  0.1227652E+00
          2   -1    0    0  502    0  0.00000000000E+00  0.00000000000E+00  0.99889425326E+02  0.99889425326E+02  0.00000000000E+00 0.  1.
         -2   -1    0    0    0  501 -0.00000000000E+00 -0.00000000000E+00 -0.52688848470E+02  0.52688848470E+02  0.00000000000E+00 0. -1.
          1    1    1    2  502    0  0.43288643840E+02  0.55715570088E+02  0.58497853164E+01  0.70797962005E+02  0.00000000000E+00 0.  1.
         -1    1    1    2    0  501 -0.43288643840E+02 -0.55715570088E+02  0.41350791540E+02  0.81780311792E+02  0.00000000000E+00 0. -1.
</event>
<event>
 4    1  0.6629728E+001  0.2357309E+02  0.7546771E-02  0.1485424E+00
          2   -1    0    0  502    0  0.00000000000E+00  0.00000000000E+00  0.55075004081E+02  0.55075004081E+02  0.00000000000E+00 0.  1.
         -2   -1    0    0    0  501 -0.00000000000E+00 -0.00000000000E+00 -0.10100714689E+02  0.10100714689E+02  0.00000000000E+00 0. -1.
          1    1    1    2  502    0  0.23569919632E+02 -0.38680649266E+00  0.23562867686E+02  0.33330158480E+02  0.00000000000E+00 0.  1.
         -1    1    1    2    0  501 -0.23569919632E+02  0.38680649266E+00  0.21411421706E+02  0.31845560290E+02  0.00000000000E+00 0. -1.
</event>
<event>
 4    1  0.6629728E+001  0.3504210E+02  0.7546771E-02  0.1380267E+00
          2   -1    0    0  502    0  0.00000000000E+00  0.00000000000E+00  0.25836994683E+02  0.25836994683E+02  0.00000000000E+00 0. -1.
         -2   -1    0    0    0  501 -0.00000000000E+00 -0.00000000000E+00 -0.67124028892E+02  0.67124028892E+02  0.00000000000E+00 0.  1.
          1    1    1    2  502    0 -0.59872657211E+01 -0.34526818596E+02 -0.45758316227E+02  0.57634816362E+02  0.00000000000E+00 0.  1.
         -1    1    1    2    0  501  0.59872657211E+01  0.34526818596E+02  0.44712820179E+01  0.35326207213E+02  0.00000000000E+00 0. -1.
</event>
<event>
 4    1  0.6629728E+001  0.2577769E+02  0.7546771E-02  0.1460288E+00
          2   -1    0    0  502    0  0.00000000000E+00  0.00000000000E+00  0.22279786322E+01  0.22279786322E+01  0.00000000000E+00 0. -1.
         -2   -1    0    0    0  501 -0.00000000000E+00 -0.00000000000E+00 -0.32978305596E+03  0.32978305596E+03  0.00000000000E+00 0.  1.
          1    1    1    2  502    0 -0.79878898123E+01  0.24508831824E+02 -0.11244318568E+03  0.11536012841E+03  0.00000000000E+00 0. -1.
         -1    1    1    2    0  501  0.79878898123E+01 -0.24508831824E+02 -0.21511189165E+03  0.21665090618E+03  0.00000000000E+00 0.  1.
</event>
<event>
 4    1  0.6629728E+001  0.2227986E+02  0.7546771E-02  0.1501744E+00
          2   -1    0    0  502    0  0.00000000000E+00  0.00000000000E+00  0.10209465068E+03  0.10209465068E+03  0.00000000000E+00 0.  1.
         -2   -1    0    0    0  501 -0.00000000000E+00 -0.00000000000E+00 -0.52380850153E+01  0.52380850153E+01  0.00000000000E+00 0. -1.
          1    1    1    2  502    0 -0.75139103061E+01 -0.20974588874E+02  0.34049785511E+02  0.40691278180E+02  0.00000000000E+00 0.  1.
         -1    1    1    2    0  501  0.75139103061E+01  0.20974588874E+02  0.62806780152E+02  0.66641457514E+02  0.00000000000E+00 0. -1.
</event>
<event>
 4    1  0.6629728E+001  0.2619605E+02  0.7546771E-02  0.1455855E+00
          2   -1    0    0  502    0  0.00000000000E+00  0.00000000000E+00  0.54754005580E+02  0.54754005580E+02  0.00000000000E+00 0.  1.
         -2   -1    0    0    0  501 -0.00000000000E+00 -0.00000000000E+00 -0.12562485678E+02  0.12562485678E+02  0.00000000000E+00 0. -1.
          1    1    1    2  502    0 -0.17900973419E+02  0.19125587442E+02  0.22725903000E+02  0.34679959797E+02  0.00000000000E+00 0.  1.
         -1    1    1    2    0  501  0.17900973419E+02 -0.19125587442E+02  0.19465616903E+02  0.32636531461E+02  0.00000000000E+00 0. -1.
</event>
<event>
 4    1  0.6629728E+001  0.2339421E+02  0.7546771E-02  0.1487606E+00
          2   -1    0    0  502    0  0.00000000000E+00  0.00000000000E+00  0.28420598323E+03  0.28420598323E+03  0.00000000000E+00 0. -1.
         -2   -1    0    0    0  501 -0.00000000000E+00 -0.00000000000E+00 -0.22977597038E+01  0.22977597038E+01  0.00000000000E+00 0.  1.
          1    1    1    2  502    0 -0.23132327414E+02 -0.34906500345E+01  0.19859984369E+03  0.19997296598E+03  0.00000000000E+00 0.  1.
         -1    1    1    2    0  501  0.23132327414E+02  0.34906500345E+01  0.83308379839E+02  0.86530776956E+02  0.00000000000E+00 0. -1.
</event>
<event>
 4    1  0.6629728E+001  0.2799385E+02  0.7546771E-02  0.1437872E+00
          2   -1    0    0  502    0  0.00000000000E+00  0.00000000000E+00  0.20496269775E+02  0.20496269775E+02  0.00000000000E+00 0.  1.
         -2   -1    0    0    0  501 -0.00000000000E+00 -0.00000000000E+00 -0.39648232404E+02  0.39648232404E+02  0.00000000000E+00 0. -1.
          1    1    1    2  502    0 -0.12098783654E+02 -0.25244312220E+02 -0.38965705890E+01  0.28263742281E+02  0.00000000000E+00 0. -1.
         -1    1    1    2    0  501  0.12098783654E+02  0.25244312220E+02 -0.15255392040E+02  0.31880759898E+02  0.00000000000E+00 0.  1.
</event>
<event>
 4    1  0.6629728E+001  0.2418376E+02  0.7546771E-02  0.1478146E+00
          2   -1    0    0  502    0  0.00000000000E+00  0.00000000000E+00  0.40205241809E+02  0.40205241809E+02  0.00000000000E+00 0. -1.
         -2   -1    0    0    0  501 -0.00000000000E+00 -0.00000000000E+00 -0.15547197005E+02  0.15547197005E+02  0.00000000000E+00 0.  1.
          1    1    1    2  502    0 -0.23445943447E+02  0.59280516031E+01  0.52574956571E+01  0.24748642802E+02  0.00000000000E+00 0.  1.
         -1    1    1    2    0  501  0.23445943447E+02 -0.59280516031E+01  0.19400549147E+02  0.31003796012E+02  0.00000000000E+00 0. -1.
</event>
<event>
 4    1  0.6629728E+001  0.2367177E+02  0.7546771E-02  0.1484231E+00
          2   -1    0    0  502    0  0.00000000000E+00  0.00000000000E+00  0.10952982779E+04  0.10952982779E+04  0.00000000000E+00 0.  1.
         -2   -1    0    0    0  501 -0.00000000000E+00 -0.00000000000E+00 -0.51346907869E+00  0.51346907869E+00  0.00000000000E+00 0. -1.
          1    1    1    2  502    0 -0.20848930937E+02  0.11210471706E+02  0.58046549960E+03  0.58094797428E+03  0.00000000000E+00 0. -1.
         -1    1    1    2    0  501  0.20848930937E+02 -0.11210471706E+02  0.51431930927E+03  0.51486377275E+03  0.00000000000E+00 0.  1.
</event>
<event>
 4    1  0.6629728E+001  0.2658388E+02  0.7546771E-02  0.1451833E+00
          2   -1    0    0  502    0  0.00000000000E+00  0.00000000000E+00  0.60910264896E+01  0.60910264896E+01  0.00000000000E+00 0. -1.
         -2   -1    0    0    0  501 -0.00000000000E+00 -0.00000000000E+00 -0.11640649508E+03  0.11640649508E+03  0.00000000000E+00 0.  1.
          1    1    1    2  502    0 -0.25885084609E+02  0.60551772439E+01 -0.58670528617E+02  0.64412217046E+02  0.00000000000E+00 0. -1.
         -1    1    1    2    0  501  0.25885084609E+02 -0.60551772439E+01 -0.51644939971E+02  0.58085304521E+02  0.00000000000E+00 0.  1.
</event>
<event>
 4    1  0.6629728E+001  0.3543793E+02  0.7546771E-02  0.1377510E+00
          2   -1    0    0  502    0  0.00000000000E+00  0.00000000000E+00  0.11094255413E+03  0.11094255413E+03  0.00000000000E+00 0. -1.
         -2   -1    0    0    0  501 -0.00000000000E+00 -0.00000000000E+00 -0.14289514586E+02  0.14289514586E+02  0.00000000000E+00 0.  1.
          1    1    1    2  502    0 -0.28666197318E+02  0.20834968968E+02  0.19781216980E+02  0.40585013808E+02  0.00000000000E+00 0.  1.
         -1    1    1    2    0  501  0.28666197318E+02 -0.20834968968E+02  0.76871822565E+02  0.84647054910E+02  0.00000000000E+00 0. -1.
</event>
<event>
 4    1  0.6629728E+001  0.5311745E+02  0.7546771E-02  0.1285194E+00
          2   -1    0    0  502    0  0.00000000000E+00  0.00000000000E+00  0.27849436363E+03  0.27849436363E+03  0.00000000000E+00 0.  1.
         -2   -1    0    0    0  501 -0.00000000000E+00 -0.00000000000E+00 -0.12866296467E+02  0.12866296467E+02  0.00000000000E+00 0. -1.
          1    1    1    2  502    0  0.51040842501E+02 -0.14706989845E+02  0.65645500436E+02  0.84444034016E+02  0.00000000000E+00 0. -1.
         -1    1    1    2    0  501 -0.51040842501E+02  0.14706989845E+02  0.19998256673E+03  0.20691662608E+03  0.00000000000E+00 0.  1.
</event>
<event>
 4    1  0.6629728E+001  0.4614144E+02  0.7546771E-02  0.1315828E+00
          2   -1    0    0  502    0  0.00000000000E+00  0.00000000000E+00  0.27056909885E+02  0.27056909885E+02  0.00000000000E+00 0. -1.
         -2   -1    0    0    0  501 -0.00000000000E+00 -0.00000000000E+00 -0.88237109353E+02  0.88237109353E+02  0.00000000000E+00 0.  1.
          1    1    1    2  502    0  0.39485548516E+02  0.23873077508E+02 -0.49555013099E+02  0.67710646833E+02  0.00000000000E+00 0. -1.
         -1    1    1    2    0  501 -0.39485548516E+02 -0.23873077508E+02 -0.11625186369E+02  0.47583372405E+02  0.00000000000E+00 0.  1.
</event>
<event>
 4    1  0.6629728E+001  0.5670929E+02  0.7546771E-02  0.1271443E+00
          2   -1    0    0  502    0  0.00000000000E+00  0.00000000000E+00  0.60657593779E+03  0.60657593779E+03  0.00000000000E+00 0.  1.
         -2   -1    0    0    0  501 -0.00000000000E+00 -0.00000000000E+00 -0.62358108894E+01  0.62358108894E+01  0.00000000000E+00 0. -1.
          1    1    1    2  502    0 -0.19351763799E+01 -0.56676262618E+02  0.18158586018E+03  0.19023503429E+03  0.00000000000E+00 0. -1.
         -1    1    1    2    0  501  0.19351763799E+01  0.56676262618E+02  0.41875426672E+03  0.42257671439E+03  0.00000000000E+00 0.  1.
</event>
<event>
 4    1  0.6629728E+001  0.2414724E+02  0.7546771E-02  0.1478574E+00
          2   -1    0    0  502    0  0.00000000000E+00  0.00000000000E+00  0.45720310829E+00  0.45720310829E+00  0.00000000000E+00 0.  1.
         -2   -1    0    0    0  501 -0.00000000000E+00 -0.00000000000E+00 -0.18610500028E+04  0.18610500028E+04  0.00000000000E+00 0. -1.
          1    1    1    2  502    0 -0.23785655158E+02  0.41631269172E+01 -0.14524488809E+04  0.14526495932E+04  0.00000000000E+00 0. -1.
         -1    1    1    2    0  501  0.23785655158E+02 -0.41631269172E+01 -0.40814391876E+03  0.40885761267E+03  0.00000000000E+00 0.  1.
</event>
<event>
 4    1  0.6629728E+001  0.2448902E+02  0.7546771E-02  0.1474602E+00
          2   -1    0    0  502    0  0.00000000000E+00  0.00000000000E+00  0.78974964712E+03  0.78974964712E+03  0.00000000000E+00 0.  1.
         -2   -1    0    0    0  501 -0.00000000000E+00 -0.00000000000E+00 -0.11070903361E+01  0.11070903361E+01  0.00000000000E+00 0. -1.
          1    1    1    2  502    0 -0.10010699076E+02 -0.22349455121E+02  0.61593227078E+03  0.61641891148E+03  0.00000000000E+00 0.  1.
         -1    1    1    2    0  501  0.10010699076E+02  0.22349455121E+02  0.17271028600E+03  0.17443782597E+03  0.00000000000E+00 0. -1.
</event>
<event>
 4    1  0.6629728E+001  0.2098203E+02  0.7546771E-02  0.1519522E+00
          2   -1    0    0  502    0  0.00000000000E+00  0.00000000000E+00  0.52143117816E+03  0.52143117816E+03  0.00000000000E+00 0.  1.
         -2   -1    0    0    0  501 -0.00000000000E+00 -0.00000000000E+00 -0.13663887479E+01  0.13663887479E+01  0.00000000000E+00 0. -1.
          1    1    1    2  502    0 -0.19494035062E+02 -0.77606749960E+01  0.98452364727E+02  0.10066336771E+03  0.00000000000E+00 0. -1.
         -1    1    1    2    0  501  0.19494035062E+02  0.77606749960E+01  0.42161242468E+03  0.42213419919E+03  0.00000000000E+00 0.  1.
</event>
<event>
 4    1  0.6629728E+001  0.2041993E+02  0.7546771E-02  0.1527710E+00
          2   -1    0    0  502    0  0.00000000000E+00  0.00000000000E+00  0.10480293641E+03  0.10480293641E+03  0.00000000000E+00 0.  1.
         -2   -1    0    0    0  501 -0.00000000000E+00 -0.00000000000E+00 -0.42519575092E+01  0.42519575092E+01  0.00000000000E+00 0. -1.
          1    1    1    2  502    0  0.62383344628E+00 -0.20410394400E+02  0.64100097271E+02  0.67274035391E+02  0.00000000000E+00 0.  1.
         -1    1    1    2    0  501 -0.62383344628E+00  0.20410394400E+02  0.36450881635E+02  0.41780858533E+02  0.00000000000E+00 0. -1.
</event>
<event>
 4    1  0.6629728E+001  0.2017354E+02  0.7546771E-02  0.1531399E+00
          2   -1    0    0  502    0  0.00000000000E+00  0.00000000000E+00  0.10029433612E+04  0.10029433612E+04  0.00000000000E+00 0. -1.
         -2   -1    0    0    0  501 -0.00000000000E+00 -0.00000000000E+00 -0.42504091820E+00  0.42504091820E+00  0.00000000000E+00 0.  1.
          1    1    1    2  502    0 -0.42840349736E+01 -0.19713411931E+02  0.60806252217E+03  0.60839707629E+03  0.00000000000E+00 0. -1.
         -1    1    1    2    0  501  0.42840349736E+01  0.19713411931E+02  0.39445579812E+03  0.39497132584E+03  0.00000000000E+00 0.  1.
</event>
<event>
 4    1  0.6629728E+001  0.2340301E+02  0.7546771E-02  0.1487499E+00
          2   -1    0    0  502    0  0.00000000000E+00  0.00000000000E+00  0.20518886777E+01  0.20518886777E+01  0.00000000000E+00 0. -1.
         -2   -1    0    0    0  501 -0.00000000000E+00 -0.00000000000E+00 -0.27920285647E+03  0.27920285647E+03  0.00000000000E+00 0.  1.
          1    1    1    2  502    0 -0.14391442991E+02  0.18455000305E+02 -0.10908589103E+03  0.11156806124E+03  0.00000000000E+00 0. -1.
         -1    1    1    2    0  501  0.14391442991E+02 -0.18455000305E+02 -0.16806507677E+03  0.16968668391E+03  0.00000000000E+00 0.  1.
</event>
<event>
 4    1  0.6629728E+001  0.3028232E+02  0.7546771E-02  0.1417159E+00
          2   -1    0    0  502    0  0.00000000000E+00  0.00000000000E+00  0.21423235683E+04  0.21423235683E+04  0.00000000000E+00 0.  1.
         -2   -1    0    0    0  501 -0.00000000000E+00 -0.00000000000E+00 -0.47023921098E+00  0.47023921098E+00  0.00000000000E+00 0. -1.
          1    1    1    2  502    0  0.32291199196E+00 -0.30280593834E+02  0.75000517450E+03  0.75061626708E+03  0.00000000000E+00 0. -1.
         -1    1    1    2    0  501 -0.32291199196E+00  0.30280593834E+02  0.13918481546E+04  0.13921775405E+04  0.00000000000E+00 0.  1.
</event>
<event>
 4    1  0.6629728E+001  0.2827979E+02  0.7546771E-02  0.1435159E+00
          2   -1    0    0  502    0  0.00000000000E+00  0.00000000000E+00  0.22485137830E+03  0.22485137830E+03  0.00000000000E+00 0.  1.
         -2   -1    0    0    0  501 -0.00000000000E+00 -0.00000000000E+00 -0.64450799354E+01  0.64450799354E+01  0.00000000000E+00 0. -1.
          1    1    1    2  502    0  0.28252278096E+02  0.12471038733E+01  0.18662189149E+03  0.18875242216E+03  0.00000000000E+00 0.  1.
         -1    1    1    2    0  501 -0.28252278096E+02 -0.12471038733E+01  0.31784406874E+02  0.42544036081E+02  0.00000000000E+00 0. -1.
</event>
<event>
 4    1  0.6629728E+001  0.4859700E+02  0.7546771E-02  0.1304373E+00
          2   -1    0    0  502    0  0.00000000000E+00  0.00000000000E+00  0.13486882544E+04  0.13486882544E+04  0.00000000000E+00 0. -1.
         -2   -1    0    0    0  501 -0.00000000000E+00 -0.00000000000E+00 -0.17527739268E+01  0.17527739268E+01  0.00000000000E+00 0.  1.
          1    1    1    2  502    0  0.41919489503E+02 -0.24585055873E+02  0.69442390343E+03  0.69612227822E+03  0.00000000000E+00 0.  1.
         -1    1    1    2    0  501 -0.41919489503E+02  0.24585055873E+02  0.65251157708E+03  0.65431875015E+03  0.00000000000E+00 0. -1.
</event>
<event>
 4    1  0.6629728E+001  0.3364154E+02  0.7546771E-02  0.1390373E+00
          2   -1    0    0  502    0  0.00000000000E+00  0.00000000000E+00  0.20990438418E+01  0.20990438418E+01  0.00000000000E+00 0. -1.
         -2   -1    0    0    0  501 -0.00000000000E+00 -0.00000000000E+00 -0.64784655365E+03  0.64784655365E+03  0.00000000000E+00 0.  1.
          1    1    1    2  502    0  0.26546670111E+02  0.20664643674E+02 -0.18977692776E+03  0.19273566224E+03  0.00000000000E+00 0. -1.
         -1    1    1    2    0  501 -0.26546670111E+02 -0.20664643674E+02 -0.45597058205E+03  0.45720993525E+03  0.00000000000E+00 0.  1.
</event>
<event>
 4    1  0.6629728E+001  0.2118748E+02  0.7546771E-02  0.1516605E+00
          2   -1    0    0  502    0  0.00000000000E+00  0.00000000000E+00  0.17248368077E+04  0.17248368077E+04  0.00000000000E+00 0. -1.
         -2   -1    0    0    0  501 -0.00000000000E+00 -0.00000000000E+00 -0.27697765757E+00  0.27697765757E+00  0.00000000000E+00 0.  1.
          1    1    1    2  502    0 -0.10224183609E+02  0.18557356489E+02  0.10741782859E+04  0.10743872204E+04  0.00000000000E+00 0.  1.
         -1    1    1    2    0  501  0.10224183609E+02 -0.18557356489E+02  0.65038154418E+03  0.65072656501E+03  0.00000000000E+00 0. -1.
</event>
<event>
 4    1  0.6629728E+001  0.2370573E+02  0.7546771E-02  0.1483821E+00
          2   -1    0    0  502    0  0.00000000000E+00  0.00000000000E+00  0.15495802698E+01  0.15495802698E+01  0.00000000000E+00 0. -1.
         -2   -1    0    0    0  501 -0.00000000000E+00 -0.00000000000E+00 -0.48846174351E+03  0.48846174351E+03  0.00000000000E+00 0.  1.
          1    1    1    2  502    0  0.11209807980E+02  0.20887841359E+02 -0.36779705849E+03  0.36856022296E+03  0.00000000000E+00 0.  1.
         -1    1    1    2    0  501 -0.11209807980E+02 -0.20887841359E+02 -0.11911510474E+03  0.12145110082E+03  0.00000000000E+00 0. -1.
</event>
<event>
 4    1  0.6629728E+001  0.2303068E+02  0.7546771E-02  0.1492113E+00
          2   -1    0    0  502    0  0.00000000000E+00  0.00000000000E+00  0.73710660155E+03  0.73710660155E+03  0.00000000000E+00 0.  1.
         -2   -1    0    0    0  501 -0.00000000000E+00 -0.00000000000E+00 -0.73115834218E+00  0.73115834218E+00  0.00000000000E+00 0. -1.
          1    1    1    2  502    0 -0.22335618877E+02  0.56153608327E+01  0.41459879553E+03  0.41523797201E+03  0.00000000000E+00 0.  1.
         -1    1    1    2    0  501  0.22335618877E+02 -0.56153608327E+01  0.32177664768E+03  0.32259978788E+03  0.00000000000E+00 0. -1.
</event>
<event>
 4    1  0.6629728E+001  0.2254285E+02  0.7546771E-02  0.1498320E+00
          2   -1    0    0  502    0  0.00000000000E+00  0.00000000000E+00  0.60143423453E+03  0.60143423453E+03  0.00000000000E+00 0.  1.
         -2   -1    0    0    0  501 -0.00000000000E+00 -0.00000000000E+00 -0.22183093623E+01  0.22183093623E+01  0.00000000000E+00 0. -1.
          1    1    1    2  502    0 -0.41431595320E+01 -0.22158840838E+02  0.53709426635E+03  0.53756714088E+03  0.00000000000E+00 0.  1.
         -1    1    1    2    0  501  0.41431595320E+01  0.22158840838E+02  0.62121658815E+02  0.66085403019E+02  0.00000000000E+00 0. -1.
</event>
<event>
 4    1  0.6629728E+001  0.5142529E+02  0.7546771E-02  0.1292108E+00
          2   -1    0    0  502    0  0.00000000000E+00  0.00000000000E+00  0.23305044854E+02  0.23305044854E+02  0.00000000000E+00 0. -1.
         -2   -1    0    0    0  501 -0.00000000000E+00 -0.00000000000E+00 -0.13351141995E+03  0.13351141995E+03  0.00000000000E+00 0.  1.
          1    1    1    2  502    0  0.32305277433E+02 -0.40011611155E+02 -0.85477273122E+02  0.99754319193E+02  0.00000000000E+00 0.  1.
         -1    1    1    2    0  501 -0.32305277433E+02  0.40011611155E+02 -0.24729101972E+02  0.57062145609E+02  0.00000000000E+00 0. -1.
</event>
<event>
 4    1  0.6629728E+001  0.2361453E+02  0.7546771E-02  0.1484922E+00
          2   -1    0    0  502    0  0.00000000000E+00  0.00000000000E+00  0.12574883979E+02  0.12574883979E+02  0.00000000000E+00 0. -1.
         -2   -1    0    0    0  501 -0.00000000000E+00 -0.00000000000E+00 -0.55136828969E+02  0.55136828969E+02  0.00000000000E+00 0.  1.
          1    1    1    2  502    0 -0.10755271559E+02 -0.21023089285E+02 -0.36258487578E+02  0.43270360189E+02  0.00000000000E+00 0.  1.
         -1    1    1    2    0  501  0.10755271559E+02  0.21023089285E+02 -0.63034574115E+01  0.24441352760E+02  0.00000000000E+00 0. -1.
</event>
<event>
 4    1  0.6629728E+001  0.2305762E+02  0.7546771E-02  0.1491776E+00
          2   -1    0    0  502    0  0.00000000000E+00  0.00000000000E+00  0.39069010564E+01  0.39069010564E+01  0.00000000000E+00 0. -1.
         -2   -1    0    0    0  501 -0.00000000000E+00 -0.00000000000E+00 -0.13950066579E+03  0.13950066579E+03  0.00000000000E+00 0.  1.
          1    1    1    2  502    0 -0.21296712263E+02  0.88376417897E+01 -0.56569868921E+02  0.61088492659E+02  0.00000000000E+00 0. -1.
         -1    1    1    2    0  501  0.21296712263E+02 -0.88376417897E+01 -0.79023895809E+02  0.82319074183E+02  0.00000000000E+00 0.  1.
</event>
<event>
 4    1  0.6629728E+001  0.6012306E+02  0.7546771E-02  0.1259415E+00
          2   -1    0    0  502    0  0.00000000000E+00  0.00000000000E+00  0.20096486056E+02  0.20096486056E+02  0.00000000000E+00 0. -1.
         -2   -1    0    0    0  501 -0.00000000000E+00 -0.00000000000E+00 -0.24011197775E+03  0.24011197775E+03  0.00000000000E+00 0.  1.
          1    1    1    2  502    0 -0.65687336576E+01  0.59763145729E+02 -0.44840510643E+02  0.75003021565E+02  0.00000000000E+00 0. -1.
         -1    1    1    2    0  501  0.65687336576E+01 -0.59763145729E+02 -0.17517498105E+03  0.18520544224E+03  0.00000000000E+00 0.  1.
</event>
<event>
 4    1  0.6629728E+001  0.3250131E+02  0.7546771E-02  0.1399035E+00
          2   -1    0    0  502    0  0.00000000000E+00  0.00000000000E+00  0.14787717597E+04  0.14787717597E+04  0.00000000000E+00 0. -1.
         -2   -1    0    0    0  501 -0.00000000000E+00 -0.00000000000E+00 -0.22944329730E+01  0.22944329730E+01  0.00000000000E+00 0.  1.
          1    1    1    2  502    0 -0.31878569108E+02 -0.63318311398E+01  0.12370017461E+03  0.12789866478E+03  0.00000000000E+00 0.  1.
         -1    1    1    2    0  501  0.31878569108E+02  0.63318311398E+01  0.13527771521E+04  0.13531675279E+04  0.00000000000E+00 0. -1.
</event>
<event>
 4    1  0.6629728E+001  0.5833278E+02  0.7546771E-02  0.1265605E+00
          2   -1    0    0  502    0  0.00000000000E+00  0.00000000000E+00  0.89368811441E+03  0.89368811441E+03  0.00000000000E+00 0. -1.
         -2   -1    0    0    0  501 -0.00000000000E+00 -0.00000000000E+00 -0.45091767077E+01  0.45091767077E+01  0.00000000000E+00 0.  1.
          1    1    1    2  502    0 -0.53966500271E+02  0.22143397639E+02  0.26743050491E+03  0.27371844688E+03  0.00000000000E+00 0.  1.
         -1    1    1    2    0  501  0.53966500271E+02 -0.22143397639E+02  0.62174843280E+03  0.62447884424E+03  0.00000000000E+00 0. -1.
</event>
<event>
 4    1  0.6629728E+001  0.3447636E+02  0.7546771E-02  0.1384282E+00
          2   -1    0    0  502    0  0.00000000000E+00  0.00000000000E+00  0.22695146361E+04  0.22695146361E+04  0.00000000000E+00 0.  1.
         -2   -1    0    0    0  501 -0.00000000000E+00 -0.00000000000E+00 -0.14996110482E+01  0.14996110482E+01  0.00000000000E+00 0. -1.
          1    1    1    2  502    0 -0.19537452116E+02 -0.28406114246E+02  0.21800143338E+03  0.22071077074E+03  0.00000000000E+00 0. -1.
         -1    1    1    2    0  501  0.19537452116E+02  0.28406114246E+02  0.20500135917E+04  0.20503034764E+04  0.00000000000E+00 0.  1.
</event>
<event>
 4    1  0.6629728E+001  0.3372768E+02  0.7546771E-02  0.1389735E+00
          2   -1    0    0  502    0  0.00000000000E+00  0.00000000000E+00  0.17077289776E+03  0.17077289776E+03  0.00000000000E+00 0.  1.
         -2   -1    0    0    0  501 -0.00000000000E+00 -0.00000000000E+00 -0.68968730911E+01  0.68968730911E+01  0.00000000000E+00 0. -1.
          1    1    1    2  502    0  0.49129471460E+01  0.33367943832E+02  0.65517404315E+02  0.73689123983E+02  0.00000000000E+00 0. -1.
         -1    1    1    2    0  501 -0.49129471460E+01 -0.33367943832E+02  0.98358620358E+02  0.10398064687E+03  0.00000000000E+00 0.  1.
</event>
<event>
 4    1  0.6629728E+001  0.5001164E+02  0.7546771E-02  0.1298122E+00
          2   -1    0    0  502    0  0.00000000000E+00  0.00000000000E+00  0.14419266213E+03  0.14419266213E+03  0.00000000000E+00 0.  1.
         -2   -1    0    0    0  501 -0.00000000000E+00 -0.00000000000E+00 -0.17612071052E+02  0.17612071052E+02  0.00000000000E+00 0. -1.
          1    1    1    2  502    0  0.47977405458E+02 -0.14118515309E+02  0.53346179324E+02  0.73123038486E+02  0.00000000000E+00 0.  1.
         -1    1    1    2    0  501 -0.47977405458E+02  0.14118515309E+02  0.73234411750E+02  0.88681694691E+02  0.00000000000E+00 0. -1.
</event>
<event>
 4    1  0.6629728E+001  0.2336090E+02  0.7546771E-02  0.1488015E+00
          2   -1    0    0  502    0  0.00000000000E+00  0.00000000000E+00  0.29055229642E+01  0.29055229642E+01  0.00000000000E+00 0. -1.
         -2   -1    0    0    0  501 -0.00000000000E+00 -0.00000000000E+00 -0.18919033062E+03  0.18919033062E+03  0.00000000000E+00 0.  1.
          1    1    1    2  502    0  0.19042838936E+02  0.13531508141E+02 -0.84984640020E+02  0.88136941555E+02  0.00000000000E+00 0.  1.
         -1    1    1    2    0  501 -0.19042838936E+02 -0.13531508141E+02 -0.10130016764E+03  0.10395891203E+03  0.00000000000E+00 0. -1.
</event>
<event>
 4    1  0.6629728E+001  0.2149431E+02  0.7546771E-02  0.1512323E+00
          2   -1    0    0  502    0  0.00000000000E+00  0.00000000000E+00  0.12205681115E+04  0.12205681115E+04  0.00000000000E+00 0. -1.
         -2   -1    0    0    0  501 -0.00000000000E+00 -0.00000000000E+00 -0.40054447471E+00  0.40054447471E+00  0.00000000000E+00 0.  1.
          1    1    1    2  502    0  0.17050884219E+02 -0.13087119403E+02  0.75324817091E+03  0.75355478389E+03  0.00000000000E+00 0. -1.
         -1    1    1    2    0  501 -0.17050884219E+02  0.13087119403E+02  0.46691939616E+03  0.46741387213E+03  0.00000000000E+00 0.  1.
</event>
<event>
 4    1  0.6629728E+001  0.3177791E+02  0.7546771E-02  0.1404751E+00
          2   -1    0    0  502    0  0.00000000000E+00  0.00000000000E+00  0.75941975435E+03  0.75941975435E+03  0.00000000000E+00 0.  1.
         -2   -1    0    0    0  501 -0.00000000000E+00 -0.00000000000E+00 -0.20926231948E+02  0.20926231948E+02  0.00000000000E+00 0. -1.
          1    1    1    2  502    0  0.31741503262E+02 -0.15205978085E+01 -0.83261165835E+01  0.32850562619E+02  0.00000000000E+00 0. -1.
         -1    1    1    2    0  501 -0.31741503262E+02  0.15205978085E+01  0.74681963898E+03  0.74749542368E+03  0.00000000000E+00 0.  1.
</event>
<event>
 4    1  0.6629728E+001  0.2929778E+02  0.7546771E-02  0.1425798E+00
          2   -1    0    0  502    0  0.00000000000E+00  0.00000000000E+00  0.22315810571E+03  0.22315810571E+03  0.00000000000E+00 0. -1.
         -2   -1    0    0    0  501 -0.00000000000E+00 -0.00000000000E+00 -0.47643375700E+01  0.47643375700E+01  0.00000000000E+00 0.  1.
          1    1    1    2  502    0  0.20155071993E+02 -0.21263419896E+02  0.59175291556E+02  0.66030864627E+02  0.00000000000E+00 0. -1.
         -1    1    1    2    0  501 -0.20155071993E+02  0.21263419896E+02  0.15921847658E+03  0.16189157865E+03  0.00000000000E+00 0.  1.
</event>
<event>
 4    1  0.6629728E+001  0.2046705E+02  0.7546771E-02  0.1527012E+00
          2   -1    0    0  502    0  0.00000000000E+00  0.00000000000E+00  0.16275979214E+03  0.16275979214E+03  0.00000000000E+00 0.  1.
         -2   -1    0    0    0  501 -0.00000000000E+00 -0.00000000000E+00 -0.36131258529E+01  0.36131258529E+01  0.00000000000E+00 0. -1.
          1    1    1    2  502    0 -0.18836312365E+02  0.80058441760E+01  0.34956266666E+02  0.40507292970E+02  0.00000000000E+00 0. -1.
         -1    1    1    2    0  501  0.18836312365E+02 -0.80058441760E+01  0.12419039962E+03  0.12586562502E+03  0.00000000000E+00 0.  1.
</event>
<event>
 4    1  0.6629728E+001  0.2252146E+02  0.7546771E-02  0.1498596E+00
          2   -1    0    0  502    0  0.00000000000E+00  0.00000000000E+00  0.10213690568E+02  0.10213690568E+02  0.00000000000E+00 0.  1.
         -2   -1    0    0    0  501 -0.00000000000E+00 -0.00000000000E+00 -0.51885782947E+02  0.51885782947E+02  0.00000000000E+00 0. -1.
          1    1    1    2  502    0 -0.19236374919E+02 -0.11712297898E+02 -0.27266406675E+02  0.35364855083E+02  0.00000000000E+00 0.  1.
         -1    1    1    2    0  501  0.19236374919E+02  0.11712297898E+02 -0.14405685704E+02  0.26734618431E+02  0.00000000000E+00 0. -1.
</event>
<event>
 4    1  0.6629728E+001  0.2299468E+02  0.7546771E-02  0.1492565E+00
          2   -1    0    0  502    0  0.00000000000E+00  0.00000000000E+00  0.10544938501E+01  0.10544938501E+01  0.00000000000E+00 0. -1.
         -2   -1    0    0    0  501 -0.00000000000E+00 -0.00000000000E+00 -0.58002556563E+03  0.58002556563E+03  0.00000000000E+00 0.  1.
          1    1    1    2  502    0 -0.10721007076E+02  0.20342454330E+02 -0.18253575837E+03  0.18397841863E+03  0.00000000000E+00 0.  1.
         -1    1    1    2    0  501  0.10721007076E+02 -0.20342454330E+02 -0.39643531341E+03  0.39710164084E+03  0.00000000000E+00 0. -1.
</event>
<event>
 4    1  0.6629728E+001  0.2023612E+02  0.7546771E-02  0.1530456E+00
          2   -1    0    0  502    0  0.00000000000E+00  0.00000000000E+00  0.59797347149E+00  0.59797347149E+00  0.00000000000E+00 0.  1.
         -2   -1    0    0    0  501 -0.00000000000E+00 -0.00000000000E+00 -0.11095940259E+04  0.11095940259E+04  0.00000000000E+00 0. -1.
          1    1    1    2  502    0 -0.63467054713E+00  0.20226160909E+02 -0.21104427163E+03  0.21201222837E+03  0.00000000000E+00 0.  1.
         -1    1    1    2    0  501  0.63467054713E+00 -0.20226160909E+02 -0.89795178080E+03  0.89817977100E+03  0.00000000000E+00 0. -1.
</event>
<event>
 4    1  0.6629728E+001  0.2327418E+02  0.7546771E-02  0.1489084E+00
          2   -1    0    0  502    0  0.00000000000E+00  0.00000000000E+00  0.80054058366E+03  0.80054058366E+03  0.00000000000E+00 0. -1.
         -2   -1    0    0    0  501 -0.00000000000E+00 -0.00000000000E+00 -0.90565973985E+00  0.90565973985E+00  0.00000000000E+00 0.  1.
          1    1    1    2  502    0  0.13517489850E+02  0.18946363840E+02  0.60132306738E+03  0.60177331164E+03  0.00000000000E+00 0. -1.
         -1    1    1    2    0  501 -0.13517489850E+02 -0.18946363840E+02  0.19831185653E+03  0.19967293176E+03  0.00000000000E+00 0.  1.
</event>
<event>
 4    1  0.6629728E+001  0.2051065E+02  0.7546771E-02  0.1526367E+00
          2   -1    0    0  502    0  0.00000000000E+00  0.00000000000E+00  0.14699327466E+04  0.14699327466E+04  0.00000000000E+00 0. -1.
         -2   -1    0    0    0  501 -0.00000000000E+00 -0.00000000000E+00 -0.59255949331E+00  0.59255949331E+00  0.00000000000E+00 0.  1.
          1    1    1    2  502    0  0.13018623929E+02  0.15849360776E+02  0.20598626098E+03  0.20700489491E+03  0.00000000000E+00 0.  1.
         -1    1    1    2    0  501 -0.13018623929E+02 -0.15849360776E+02  0.12633539261E+04  0.12635204112E+04  0.00000000000E+00 0. -1.
</event>
<event>
 4    1  0.6629728E+001  0.2032873E+02  0.7546771E-02  0.1529068E+00
          2   -1    0    0  502    0  0.00000000000E+00  0.00000000000E+00  0.94104081769E+02  0.94104081769E+02  0.00000000000E+00 0. -1.
         -2   -1    0    0    0  501 -0.00000000000E+00 -0.00000000000E+00 -0.46572914391E+01  0.46572914391E+01  0.00000000000E+00 0.  1.
          1    1    1    2  502    0  0.19612616593E+02  0.53481495458E+01  0.56520256739E+02  0.60064938650E+02  0.00000000000E+00 0. -1.
         -1    1    1    2    0  501 -0.19612616593E+02 -0.53481495458E+01  0.32926533591E+02  0.38696434558E+02  0.00000000000E+00 0.  1.
</event>
<event>
 4    1  0.6629728E+001  0.2399603E+02  0.7546771E-02  0.1480356E+00
          2   -1    0    0  502    0  0.00000000000E+00  0.00000000000E+00  0.22511684692E+02  0.22511684692E+02  0.00000000000E+00 0.  1.
         -2   -1    0    0    0  501 -0.00000000000E+00 -0.00000000000E+00 -0.25648180376E+02  0.25648180376E+02  0.00000000000E+00 0. -1.
          1    1    1    2  502    0 -0.45028033085E+01 -0.23569772569E+02 -0.31085414732E+00  0.23998042564E+02  0.00000000000E+00 0. -1.
         -1    1    1    2    0  501  0.45028033085E+01  0.23569772569E+02 -0.28256415358E+01  0.24161822504E+02  0.00000000000E+00 0.  1.
</event>
<event>
 4    1  0.6629728E+001  0.2255041E+02  0.7546771E-02  0.1498222E+00
          2   -1    0    0  502    0  0.00000000000E+00  0.00000000000E+00  0.12964480329E+04  0.12964480329E+04  0.00000000000E+00 0.  1.
         -2   -1    0    0    0  501 -0.00000000000E+00 -0.00000000000E+00 -0.39393419755E+00  0.39393419755E+00  0.00000000000E+00 0. -1.
          1    1    1    2  502    0  0.21623548633E+02 -0.63986875373E+01  0.60552581018E+03  0.60594556509E+03  0.00000000000E+00 0. -1.
         -1    1    1    2    0  501 -0.21623548633E+02  0.63986875373E+01  0.69052828855E+03  0.69089640204E+03  0.00000000000E+00 0.  1.
</event>
<event>
 4    1  0.6629728E+001  0.2487012E+02  0.7546771E-02  0.1470262E+00
          2   -1    0    0  502    0  0.00000000000E+00  0.00000000000E+00  0.30614815519E+03  0.30614815519E+03  0.00000000000E+00 0. -1.
         -2   -1    0    0    0  501 -0.00000000000E+00 -0.00000000000E+00 -0.31384516646E+01  0.31384516646E+01  0.00000000000E+00 0.  1.
          1    1    1    2  502    0 -0.17472180476E+02 -0.17698748559E+02  0.59201738692E+02  0.64213461636E+02  0.00000000000E+00 0.  1.
         -1    1    1    2    0  501  0.17472180476E+02  0.17698748559E+02  0.24380796483E+03  0.24507314522E+03  0.00000000000E+00 0. -1.
</event>
<event>
 4    1  0.6629728E+001  0.2136636E+02  0.7546771E-02  0.1514098E+00
          2   -1    0    0  502    0  0.00000000000E+00  0.00000000000E+00  0.16907380356E+04  0.16907380356E+04  0.00000000000E+00 0. -1.
         -2   -1    0    0    0  501 -0.00000000000E+00 -0.00000000000E+00 -0.28677206157E+00  0.28677206157E+00  0.00000000000E+00 0.  1.
          1    1    1    2  502    0  0.47457743684E+01  0.20832639788E+02  0.10496235031E+04  0.10498409496E+04  0.00000000000E+00 0. -1.
         -1    1    1    2    0  501 -0.47457743684E+01 -0.20832639788E+02  0.64082776044E+03  0.64118385804E+03  0.00000000000E+00 0.  1.
</event>
<event>
 4    1  0.6629728E+001  0.3516575E+02  0.7546771E-02  0.1379402E+00
          2   -1    0    0  502    0  0.00000000000E+00  0.00000000000E+00  0.11811340011E+03  0.11811340011E+03  0.00000000000E+00 0. -1.
         -2   -1    0    0    0  501 -0.00000000000E+00 -0.00000000000E+00 -0.11063179088E+02  0.11063179088E+02  0.00000000000E+00 0.  1.
          1    1    1    2  502    0  0.33373701949E+02  0.11082681804E+02  0.68482675640E+02  0.76983807911E+02  0.00000000000E+00 0. -1.
         -1    1    1    2    0  501 -0.33373701949E+02 -0.11082681804E+02  0.38567545382E+02  0.52192771286E+02  0.00000000000E+00 0.  1.
</event>
<event>
 4    1  0.6629728E+001  0.2048666E+02  0.7546771E-02  0.1526722E+00
          2   -1    0    0  502    0  0.00000000000E+00  0.00000000000E+00  0.11150750651E+03  0.11150750651E+03  0.00000000000E+00 0. -1.
         -2   -1    0    0    0  501 -0.00000000000E+00 -0.00000000000E+00 -0.37703490594E+01  0.37703490594E+01  0.00000000000E+00 0.  1.
          1    1    1    2  502    0 -0.11582655416E+02 -0.16898085957E+02  0.51484944820E+02  0.55411215098E+02  0.00000000000E+00 0. -1.
         -1    1    1    2    0  501  0.11582655416E+02  0.16898085957E+02  0.56252212632E+02  0.59866640473E+02  0.00000000000E+00 0.  1.
</event>
<event>
 4    1  0.6629728E+001  0.3501527E+02  0.7546771E-02  0.1380456E+00
          2   -1    0    0  502    0  0.00000000000E+00  0.00000000000E+00  0.90457580053E+02  0.90457580053E+02  0.00000000000E+00 0. -1.
         -2   -1    0    0    0  501 -0.00000000000E+00 -0.00000000000E+00 -0.16510600149E+02  0.16510600149E+02  0.00000000000E+00 0.  1.
          1    1    1    2  502    0 -0.34330209308E+02  0.68924627918E+01  0.59606044337E+02  0.69129948908E+02  0.00000000000E+00 0. -1.
         -1    1    1    2    0  501  0.34330209308E+02 -0.68924627918E+01  0.14340935567E+02  0.37838231293E+02  0.00000000000E+00 0.  1.
</event>
<event>
 4    1  0.6629728E+001  0.2302808E+02  0.7546771E-02  0.1492146E+00
          2   -1    0    0  502    0  0.00000000000E+00  0.00000000000E+00  0.99372654028E+03  0.99372654028E+03  0.00000000000E+00 0. -1.
         -2   -1    0    0    0  501 -0.00000000000E+00 -0.00000000000E+00 -0.14728727231E+01  0.14728727231E+01  0.00000000000E+00 0.  1.
          1    1    1    2  502    0 -0.23018699467E+02  0.65717193371E+00  0.89348676706E+03  0.89378347227E+03  0.00000000000E+00 0. -1.
         -1    1    1    2    0  501  0.23018699467E+02 -0.65717193371E+00  0.98766900502E+02  0.10141594073E+03  0.00000000000E+00 0.  1.
</event>
<event>
 4    1  0.6629728E+001  0.2055767E+02  0.7546771E-02  0.1525675E+00
          2   -1    0    0  502    0  0.00000000000E+00  0.00000000000E+00  0.96621605151E+00  0.96621605151E+00  0.00000000000E+00 0.  1.
         -2   -1    0    0    0  501 -0.00000000000E+00 -0.00000000000E+00 -0.46169290512E+03  0.46169290512E+03  0.00000000000E+00 0. -1.
          1    1    1    2  502    0 -0.62255039721E+01 -0.19592364389E+02 -0.17729410000E+03  0.17848197539E+03  0.00000000000E+00 0.  1.
         -1    1    1    2    0  501  0.62255039721E+01  0.19592364389E+02 -0.28343258907E+03  0.28417714579E+03  0.00000000000E+00 0. -1.
</event>
<event>
 4    1  0.6629728E+001  0.2346038E+02  0.7546771E-02  0.1486797E+00
          2   -1    0    0  502    0  0.00000000000E+00  0.00000000000E+00  0.64375585458E+03  0.64375585458E+03  0.00000000000E+00 0. -1.
         -2   -1    0    0    0  501 -0.00000000000E+00 -0.00000000000E+00 -0.99298302877E+00  0.99298302877E+00  0.00000000000E+00 0.  1.
          1    1    1    2  502    0 -0.21815478979E+02 -0.86298522989E+01  0.20119492213E+03  0.20255810565E+03  0.00000000000E+00 0.  1.
         -1    1    1    2    0  501  0.21815478979E+02  0.86298522989E+01  0.44156794942E+03  0.44219073195E+03  0.00000000000E+00 0. -1.
</event>
<event>
 4    1  0.6629728E+001  0.2264033E+02  0.7546771E-02  0.1497065E+00
          2   -1    0    0  502    0  0.00000000000E+00  0.00000000000E+00  0.31826451952E+03  0.31826451952E+03  0.00000000000E+00 0.  1.
         -2   -1    0    0    0  501 -0.00000000000E+00 -0.00000000000E+00 -0.18942531886E+01  0.18942531886E+01  0.00000000000E+00 0. -1.
          1    1    1    2  502    0  0.13657391403E+02 -0.18057141778E+02  0.22013486028E+03  0.22129604927E+03  0.00000000000E+00 0.  1.
         -1    1    1    2    0  501 -0.13657391403E+02  0.18057141778E+02  0.96235406051E+02  0.98862723445E+02  0.00000000000E+00 0. -1.
</event>
<event>
 4    1  0.6629728E+001  0.3022867E+02  0.7546771E-02  0.1417619E+00
          2   -1    0    0  502    0  0.00000000000E+00  0.00000000000E+00  0.68681981310E+02  0.68681981310E+02  0.00000000000E+00 0. -1.
         -2   -1    0    0    0  501 -0.00000000000E+00 -0.00000000000E+00 -0.13412776674E+02  0.13412776674E+02  0.00000000000E+00 0.  1.
          1    1    1    2  502    0 -0.47940928926E+01  0.29846091978E+02  0.31324332008E+02  0.43531440463E+02  0.00000000000E+00 0.  1.
         -1    1    1    2    0  501  0.47940928926E+01 -0.29846091978E+02  0.23944872629E+02  0.38563317521E+02  0.00000000000E+00 0. -1.
</event>
<event>
 4    1  0.6629728E+001  0.3896283E+02  0.7546771E-02  0.1354673E+00
          2   -1    0    0  502    0  0.00000000000E+00  0.00000000000E+00  0.37764377411E+02  0.37764377411E+02  0.00000000000E+00 0.  1.
         -2   -1    0    0    0  501 -0.00000000000E+00 -0.00000000000E+00 -0.43119725284E+02  0.43119725284E+02  0.00000000000E+00 0. -1.
          1    1    1    2  502    0  0.69738694460E+01  0.38333627706E+02 -0.13202564317E+02  0.41138905828E+02  0.00000000000E+00 0. -1.
         -1    1    1    2    0  501 -0.69738694460E+01 -0.38333627706E+02  0.78472164429E+01  0.39745196868E+02  0.00000000000E+00 0.  1.
</event>
<event>
 4    1  0.6629728E+001  0.3658644E+02  0.7546771E-02  0.1369740E+00
          2   -1    0    0  502    0  0.00000000000E+00  0.00000000000E+00  0.15804320076E+04  0.15804320076E+04  0.00000000000E+00 0.  1.
         -2   -1    0    0    0  501 -0.00000000000E+00 -0.00000000000E+00 -0.12927620466E+01  0.12927620466E+01  0.00000000000E+00 0. -1.
          1    1    1    2  502    0  0.33770814662E+02 -0.14074786370E+02  0.12539898859E+04  0.12545234958E+04  0.00000000000E+00 0.  1.
         -1    1    1    2    0  501 -0.33770814662E+02  0.14074786370E+02  0.32514935965E+03  0.32720127386E+03  0.00000000000E+00 0. -1.
</event>
<event>
 4    1  0.6629728E+001  0.2228231E+02  0.7546771E-02  0.1501712E+00
          2   -1    0    0  502    0  0.00000000000E+00  0.00000000000E+00  0.20740227393E+02  0.20740227393E+02  0.00000000000E+00 0. -1.
         -2   -1    0    0    0  501 -0.00000000000E+00 -0.00000000000E+00 -0.24202956751E+02  0.24202956751E+02  0.00000000000E+00 0.  1.
          1    1    1    2  502    0  0.17044160914E+02  0.14352627473E+02 -0.40778888761E+01  0.22652384296E+02  0.00000000000E+00 0.  1.
         -1    1    1    2    0  501 -0.17044160914E+02 -0.14352627473E+02  0.61515951816E+00  0.22290799848E+02  0.00000000000E+00 0. -1.
</event>
<event>
 4    1  0.6629728E+001  0.3821002E+02  0.7546771E-02  0.1359307E+00
          2   -1    0    0  502    0  0.00000000000E+00  0.00000000000E+00  0.52607702707E+03  0.52607702707E+03  0.00000000000E+00 0.  1.
         -2   -1    0    0    0  501 -0.00000000000E+00 -0.00000000000E+00 -0.28911847829E+01  0.28911847829E+01  0.00000000000E+00 0. -1.
          1    1    1    2  502    0 -0.19045270726E+01 -0.38162527906E+02  0.20863496954E+03  0.21210505952E+03  0.00000000000E+00 0. -1.
         -1    1    1    2    0  501  0.19045270726E+01  0.38162527906E+02  0.31455087274E+03  0.31686315233E+03  0.00000000000E+00 0.  1.
</event>
<event>
 4    1  0.6629728E+001  0.2023741E+02  0.7546771E-02  0.1530437E+00
          2   -1    0    0  502    0  0.00000000000E+00  0.00000000000E+00  0.14220170864E+01  0.14220170864E+01  0.00000000000E+00 0. -1.
         -2   -1    0    0    0  501 -0.00000000000E+00 -0.00000000000E+00 -0.32646130169E+03  0.32646130169E+03  0.00000000000E+00 0.  1.
          1    1    1    2  502    0  0.13169332895E+02  0.15366249001E+02 -0.10625471684E+03  0.10816477147E+03  0.00000000000E+00 0. -1.
         -1    1    1    2    0  501 -0.13169332895E+02 -0.15366249001E+02 -0.21878456776E+03  0.21971854730E+03  0.00000000000E+00 0.  1.
</event>
<event>
 4    1  0.6629728E+001  0.2971156E+02  0.7546771E-02  0.1422120E+00
          2   -1    0    0  502    0  0.00000000000E+00  0.00000000000E+00  0.24952057477E+02  0.24952057477E+02  0.00000000000E+00 0. -1.
         -2   -1    0    0    0  501 -0.00000000000E+00 -0.00000000000E+00 -0.37915506662E+02  0.37915506662E+02  0.00000000000E+00 0.  1.
          1    1    1    2  502    0  0.29176161994E+02  0.56150151262E+01  0.16486982520E+01  0.29757268515E+02  0.00000000000E+00 0. -1.
         -1    1    1    2    0  501 -0.29176161994E+02 -0.56150151262E+01 -0.14612147437E+02  0.33110295624E+02  0.00000000000E+00 0.  1.
</event>
<event>
 4    1  0.6629728E+001  0.2122110E+02  0.7546771E-02  0.1516131E+00
          2   -1    0    0  502    0  0.00000000000E+00  0.00000000000E+00  0.12829393853E+04  0.12829393853E+04  0.00000000000E+00 0.  1.
         -2   -1    0    0    0  501 -0.00000000000E+00 -0.00000000000E+00 -0.42719164708E+00  0.42719164708E+00  0.00000000000E+00 0. -1.
          1    1    1    2  502    0  0.86169485525E+01  0.19392867906E+02  0.37029244486E+03  0.37090002676E+03  0.00000000000E+00 0.  1.
         -1    1    1    2    0  501 -0.86169485525E+01 -0.19392867906E+02  0.91221974880E+03  0.91246655019E+03  0.00000000000E+00 0. -1.
</event>
<event>
 4    1  0.6629728E+001  0.2136754E+02  0.7546771E-02  0.1514082E+00
          2   -1    0    0  502    0  0.00000000000E+00  0.00000000000E+00  0.98940566390E+01  0.98940566390E+01  0.00000000000E+00 0. -1.
         -2   -1    0    0    0  501 -0.00000000000E+00 -0.00000000000E+00 -0.49010256685E+02  0.49010256685E+02  0.00000000000E+00 0.  1.
          1    1    1    2  502    0  0.33492550950E+01 -0.21103420186E+02 -0.26678003370E+02  0.34180224063E+02  0.00000000000E+00 0. -1.
         -1    1    1    2    0  501 -0.33492550950E+01  0.21103420186E+02 -0.12438196676E+02  0.24724089261E+02  0.00000000000E+00 0.  1.
</event>
<event>
 4    1  0.6629728E+001  0.4405733E+02  0.7546771E-02  0.1326221E+00
          2   -1    0    0  502    0  0.00000000000E+00  0.00000000000E+00  0.34417738960E+02  0.34417738960E+02  0.00000000000E+00 0.  1.
         -2   -1    0    0    0  501 -0.00000000000E+00 -0.00000000000E+00 -0.56520143871E+02  0.56520143871E+02  0.00000000000E+00 0. -1.
          1    1    1    2  502    0  0.39743057704E+02  0.19014141027E+02 -0.89265801198E+01  0.44952553067E+02  0.00000000000E+00 0.  1.
         -1    1    1    2    0  501 -0.39743057704E+02 -0.19014141027E+02 -0.13175824791E+02  0.45985329764E+02  0.00000000000E+00 0. -1.
</event>
<event>
 4    1  0.6629728E+001  0.2108268E+02  0.7546771E-02  0.1518088E+00
          2   -1    0    0  502    0  0.00000000000E+00  0.00000000000E+00  0.71399639445E+03  0.71399639445E+03  0.00000000000E+00 0.  1.
         -2   -1    0    0    0  501 -0.00000000000E+00 -0.00000000000E+00 -0.86008786768E+00  0.86008786768E+00  0.00000000000E+00 0. -1.
          1    1    1    2  502    0  0.20920137981E+02  0.26128640524E+01  0.16871932457E+03  0.17003143743E+03  0.00000000000E+00 0. -1.
         -1    1    1    2    0  501 -0.20920137981E+02 -0.26128640524E+01  0.54441698201E+03  0.54482504488E+03  0.00000000000E+00 0.  1.
</event>
<event>
 4    1  0.6629728E+001  0.3360066E+02  0.7546771E-02  0.1390677E+00
          2   -1    0    0  502    0  0.00000000000E+00  0.00000000000E+00  0.25907461728E+04  0.25907461728E+04  0.00000000000E+00 0. -1.
         -2   -1    0    0    0  501 -0.00000000000E+00 -0.00000000000E+00 -0.43582212923E+00  0.43582212923E+00  0.00000000000E+00 0.  1.
          1    1    1    2  502    0  0.20181998939E+02  0.26864316215E+02  0.12829657118E+04  0.12834056343E+04  0.00000000000E+00 0.  1.
         -1    1    1    2    0  501 -0.20181998939E+02 -0.26864316215E+02  0.13073446388E+04  0.13077763606E+04  0.00000000000E+00 0. -1.
</event>
<event>
 4    1  0.6629728E+001  0.3657632E+02  0.7546771E-02  0.1369807E+00
          2   -1    0    0  502    0  0.00000000000E+00  0.00000000000E+00  0.39705171983E+03  0.39705171983E+03  0.00000000000E+00 0.  1.
         -2   -1    0    0    0  501 -0.00000000000E+00 -0.00000000000E+00 -0.37132867206E+01  0.37132867206E+01  0.00000000000E+00 0. -1.
          1    1    1    2  502    0  0.20447159397E+02 -0.30327226408E+02  0.13568930523E+03  0.14053261025E+03  0.00000000000E+00 0. -1.
         -1    1    1    2    0  501 -0.20447159397E+02  0.30327226408E+02  0.25764912788E+03  0.26023239630E+03  0.00000000000E+00 0.  1.
</event>
<event>
 4    1  0.6629728E+001  0.4390687E+02  0.7546771E-02  0.1326997E+00
          2   -1    0    0  502    0  0.00000000000E+00  0.00000000000E+00  0.47385982560E+03  0.47385982560E+03  0.00000000000E+00 0.  1.
         -2   -1    0    0    0  501 -0.00000000000E+00 -0.00000000000E+00 -0.52846562420E+01  0.52846562420E+01  0.00000000000E+00 0. -1.
          1    1    1    2  502    0 -0.20341880706E+02  0.38910426973E+02  0.11935188725E+03  0.12717187751E+03  0.00000000000E+00 0. -1.
         -1    1    1    2    0  501  0.20341880706E+02 -0.38910426973E+02  0.34922328211E+03  0.35197260434E+03  0.00000000000E+00 0.  1.
</event>
<event>
 4    1  0.6629728E+001  0.6081072E+02  0.7546771E-02  0.1257103E+00
          2   -1    0    0  502    0  0.00000000000E+00  0.00000000000E+00  0.55560689755E+03  0.55560689755E+03  0.00000000000E+00 0.  1.
         -2   -1    0    0    0  501 -0.00000000000E+00 -0.00000000000E+00 -0.73517328642E+01  0.73517328642E+01  0.00000000000E+00 0. -1.
          1    1    1    2  502    0  0.20637121710E+02 -0.57201859646E+02  0.36073831559E+03  0.36582793206E+03  0.00000000000E+00 0.  1.
         -1    1    1    2    0  501 -0.20637121710E+02  0.57201859646E+02  0.18751684909E+03  0.19713069835E+03  0.00000000000E+00 0. -1.
</event>
<event>
 4    1  0.6629728E+001  0.2161561E+02  0.7546771E-02  0.1510654E+00
          2   -1    0    0  502    0  0.00000000000E+00  0.00000000000E+00  0.22424642244E+03  0.22424642244E+03  0.00000000000E+00 0.  1.
         -2   -1    0    0    0  501 -0.00000000000E+00 -0.00000000000E+00 -0.24901737965E+01  0.24901737965E+01  0.00000000000E+00 0. -1.
          1    1    1    2  502    0  0.20858381877E+02 -0.56712090203E+01  0.15668795966E+03  0.15817190461E+03  0.00000000000E+00 0. -1.
         -1    1    1    2    0  501 -0.20858381877E+02  0.56712090203E+01  0.65068288981E+02  0.68564691622E+02  0.00000000000E+00 0.  1.
</event>
<event>
 4    1  0.6629728E+001  0.2152664E+02  0.7546771E-02  0.1511877E+00
          2   -1    0    0  502    0  0.00000000000E+00  0.00000000000E+00  0.47065088887E+01  0.47065088887E+01  0.00000000000E+00 0.  1.
         -2   -1    0    0    0  501 -0.00000000000E+00 -0.00000000000E+00 -0.36353854722E+03  0.36353854722E+03  0.00000000000E+00 0. -1.
          1    1    1    2  502    0 -0.21484473598E+02  0.13467322987E+01 -0.22191552485E+02  0.30917006571E+02  0.00000000000E+00 0.  1.
         -1    1    1    2    0  501  0.21484473598E+02 -0.13467322987E+01 -0.33664048585E+03  0.33732804954E+03  0.00000000000E+00 0. -1.
</event>
<event>
 4    1  0.6629728E+001  0.4825734E+02  0.7546771E-02  0.1305910E+00
          2   -1    0    0  502    0  0.00000000000E+00  0.00000000000E+00  0.21738441577E+04  0.21738441577E+04  0.00000000000E+00 0.  1.
         -2   -1    0    0    0  501 -0.00000000000E+00 -0.00000000000E+00 -0.59300463951E+01  0.59300463951E+01  0.00000000000E+00 0. -1.
          1    1    1    2  502    0  0.35591268915E+02  0.32588843573E+02  0.97414137843E+02  0.10871193771E+03  0.00000000000E+00 0. -1.
         -1    1    1    2    0  501 -0.35591268915E+02 -0.32588843573E+02  0.20704999735E+04  0.20710622664E+04  0.00000000000E+00 0.  1.
</event>
<event>
 4    1  0.6629728E+001  0.2234537E+02  0.7546771E-02  0.1500886E+00
          2   -1    0    0  502    0  0.00000000000E+00  0.00000000000E+00  0.36270224541E+03  0.36270224541E+03  0.00000000000E+00 0.  1.
         -2   -1    0    0    0  501 -0.00000000000E+00 -0.00000000000E+00 -0.26580534658E+01  0.26580534658E+01  0.00000000000E+00 0. -1.
          1    1    1    2  502    0  0.22289229768E+02  0.15829342254E+01  0.30686079997E+03  0.30767331051E+03  0.00000000000E+00 0.  1.
         -1    1    1    2    0  501 -0.22289229768E+02 -0.15829342254E+01  0.53183391979E+02  0.57686988367E+02  0.00000000000E+00 0. -1.
</event>
<event>
 4    1  0.6629728E+001  0.3533801E+02  0.7546771E-02  0.1378202E+00
          2   -1    0    0  502    0  0.00000000000E+00  0.00000000000E+00  0.11314185770E+04  0.11314185770E+04  0.00000000000E+00 0. -1.
         -2   -1    0    0    0  501 -0.00000000000E+00 -0.00000000000E+00 -0.25359773140E+01  0.25359773140E+01  0.00000000000E+00 0.  1.
          1    1    1    2  502    0  0.28818485860E+02 -0.20451651008E+02  0.99053264522E+03  0.99116280015E+03  0.00000000000E+00 0. -1.
         -1    1    1    2    0  501 -0.28818485860E+02  0.20451651008E+02  0.13834995446E+03  0.14279175416E+03  0.00000000000E+00 0.  1.
</event>
<event>
 4    1  0.6629728E+001  0.2045412E+02  0.7546771E-02  0.1527203E+00
          2   -1    0    0  502    0  0.00000000000E+00  0.00000000000E+00  0.16790301710E+04  0.16790301710E+04  0.00000000000E+00 0. -1.
         -2   -1    0    0    0  501 -0.00000000000E+00 -0.00000000000E+00 -0.29911080644E+00  0.29911080644E+00  0.00000000000E+00 0.  1.
          1    1    1    2  502    0 -0.20193803512E+02 -0.32529088811E+01  0.49628266892E+03  0.49670399494E+03  0.00000000000E+00 0.  1.
         -1    1    1    2    0  501  0.20193803512E+02  0.32529088811E+01  0.11824483913E+04  0.11826252869E+04  0.00000000000E+00 0. -1.
</event>
<event>
 4    1  0.6629728E+001  0.2156923E+02  0.7546771E-02  0.1511291E+00
          2   -1    0    0  502    0  0.00000000000E+00  0.00000000000E+00  0.83298864503E+02  0.83298864503E+02  0.00000000000E+00 0. -1.
         -2   -1    0    0    0  501 -0.00000000000E+00 -0.00000000000E+00 -0.12200602314E+02  0.12200602314E+02  0.00000000000E+00 0.  1.
          1    1    1    2  502    0 -0.38539466382E+01 -0.21222126706E+02  0.70710201805E+02  0.73926748920E+02  0.00000000000E+00 0. -1.
         -1    1    1    2    0  501  0.38539466382E+01  0.21222126706E+02  0.38806038448E+00  0.21572717898E+02  0.00000000000E+00 0.  1.
</event>
<event>
 4    1  0.6629728E+001  0.4846876E+02  0.7546771E-02  0.1304951E+00
          2   -1    0    0  502    0  0.00000000000E+00  0.00000000000E+00  0.71414867787E+03  0.71414867787E+03  0.00000000000E+00 0. -1.
         -2   -1    0    0    0  501 -0.00000000000E+00 -0.00000000000E+00 -0.34135803794E+01  0.34135803794E+01  0.00000000000E+00 0.  1.
          1    1    1    2  502    0 -0.13004249575E+01 -0.48451307606E+02  0.28697530175E+03  0.29103959203E+03  0.00000000000E+00 0.  1.
         -1    1    1    2    0  501  0.13004249575E+01  0.48451307606E+02  0.42375979574E+03  0.42652266622E+03  0.00000000000E+00 0. -1.
</event>
<event>
 4    1  0.6629728E+001  0.2051663E+02  0.7546771E-02  0.1526279E+00
          2   -1    0    0  502    0  0.00000000000E+00  0.00000000000E+00  0.17214802889E+02  0.17214802889E+02  0.00000000000E+00 0.  1.
         -2   -1    0    0    0  501 -0.00000000000E+00 -0.00000000000E+00 -0.45652650259E+02  0.45652650259E+02  0.00000000000E+00 0. -1.
          1    1    1    2  502    0  0.18953914065E+02 -0.78537364600E+01  0.72020909672E+01  0.21744014097E+02  0.00000000000E+00 0.  1.
         -1    1    1    2    0  501 -0.18953914065E+02  0.78537364600E+01 -0.35639938337E+02  0.41123439052E+02  0.00000000000E+00 0. -1.
</event>
<event>
 4    1  0.6629728E+001  0.2040336E+02  0.7546771E-02  0.1527956E+00
          2   -1    0    0  502    0  0.00000000000E+00  0.00000000000E+00  0.43790952705E+03  0.43790952705E+03  0.00000000000E+00 0. -1.
         -2   -1    0    0    0  501 -0.00000000000E+00 -0.00000000000E+00 -0.98714676347E+00  0.98714676347E+00  0.00000000000E+00 0.  1.
          1    1    1    2  502    0 -0.10612899542E+01 -0.20375734993E+02  0.26065927850E+03  0.26145660516E+03  0.00000000000E+00 0. -1.
         -1    1    1    2    0  501  0.10612899542E+01  0.20375734993E+02  0.17626310179E+03  0.17744006865E+03  0.00000000000E+00 0.  1.
</event>
<event>
 4    1  0.6629728E+001  0.2166417E+02  0.7546771E-02  0.1509990E+00
          2   -1    0    0  502    0  0.00000000000E+00  0.00000000000E+00  0.72423165355E+01  0.72423165355E+01  0.00000000000E+00 0.  1.
         -2   -1    0    0    0  501 -0.00000000000E+00 -0.00000000000E+00 -0.12840327022E+03  0.12840327022E+03  0.00000000000E+00 0. -1.
          1    1    1    2  502    0  0.17148263163E+02 -0.13239090476E+02 -0.12848308107E+02  0.25187605431E+02  0.00000000000E+00 0.  1.
         -1    1    1    2    0  501 -0.17148263163E+02  0.13239090476E+02 -0.10831264558E+03  0.11045798132E+03  0.00000000000E+00 0. -1.
</event>
<event>
 4    1  0.6629728E+001  0.2546748E+02  0.7546771E-02  0.1463641E+00
          2   -1    0    0  502    0  0.00000000000E+00  0.00000000000E+00  0.72840656718E+03  0.72840656718E+03  0.00000000000E+00 0.  1.
         -2   -1    0    0    0  501 -0.00000000000E+00 -0.00000000000E+00 -0.89943407515E+00  0.89943407515E+00  0.00000000000E+00 0. -1.
          1    1    1    2  502    0  0.21733069484E+02  0.13276535536E+02  0.40024514269E+03  0.40105456854E+03  0.00000000000E+00 0. -1.
         -1    1    1    2    0  501 -0.21733069484E+02 -0.13276535536E+02  0.32726199041E+03  0.32825143271E+03  0.00000000000E+00 0.  1.
</event>
<event>
 4    1  0.6629728E+001  0.2055978E+02  0.7546771E-02  0.1525644E+00
          2   -1    0    0  502    0  0.00000000000E+00  0.00000000000E+00  0.56963529944E+03  0.56963529944E+03  0.00000000000E+00 0.  1.
         -2   -1    0    0    0  501 -0.00000000000E+00 -0.00000000000E+00 -0.98096592320E+00  0.98096592320E+00  0.00000000000E+00 0. -1.
          1    1    1    2  502    0  0.16944887144E+02 -0.11643687913E+02  0.14352838501E+03  0.14499345493E+03  0.00000000000E+00 0.  1.
         -1    1    1    2    0  501 -0.16944887144E+02  0.11643687913E+02  0.42512594851E+03  0.42562281044E+03  0.00000000000E+00 0. -1.
</event>
<event>
 4    1  0.6629728E+001  0.2057466E+02  0.7546771E-02  0.1525425E+00
          2   -1    0    0  502    0  0.00000000000E+00  0.00000000000E+00  0.75830354248E+00  0.75830354248E+00  0.00000000000E+00 0. -1.
         -2   -1    0    0    0  501 -0.00000000000E+00 -0.00000000000E+00 -0.72791658596E+03  0.72791658596E+03  0.00000000000E+00 0.  1.
          1    1    1    2  502    0 -0.17142251774E+02 -0.11378036095E+02 -0.18767662608E+03  0.18880103940E+03  0.00000000000E+00 0. -1.
         -1    1    1    2    0  501  0.17142251774E+02  0.11378036095E+02 -0.53948165634E+03  0.53987385010E+03  0.00000000000E+00 0.  1.
</event>
<event>
 4    1  0.6629728E+001  0.2071607E+02  0.7546771E-02  0.1523358E+00
          2   -1    0    0  502    0  0.00000000000E+00  0.00000000000E+00  0.20849272018E+02  0.20849272018E+02  0.00000000000E+00 0.  1.
         -2   -1    0    0    0  501 -0.00000000000E+00 -0.00000000000E+00 -0.34349423856E+02  0.34349423856E+02  0.00000000000E+00 0. -1.
          1    1    1    2  502    0 -0.25894348450E+01  0.20553596928E+02 -0.24221904011E+02  0.31872498387E+02  0.00000000000E+00 0. -1.
         -1    1    1    2    0  501  0.25894348450E+01 -0.20553596928E+02  0.10721752174E+02  0.23326197487E+02  0.00000000000E+00 0.  1.
</event>
<event>
 4    1  0.6629728E+001  0.2592110E+02  0.7546771E-02  0.1458757E+00
          2   -1    0    0  502    0  0.00000000000E+00  0.00000000000E+00  0.48921210016E+03  0.48921210016E+03  0.00000000000E+00 0. -1.
         -2   -1    0    0    0  501 -0.00000000000E+00 -0.00000000000E+00 -0.13737034960E+01  0.13737034960E+01  0.00000000000E+00 0.  1.
          1    1    1    2  502    0 -0.23750838455E+02  0.10382743156E+02  0.24052481053E+03  0.24191752347E+03  0.00000000000E+00 0. -1.
         -1    1    1    2    0  501  0.23750838455E+02 -0.10382743156E+02  0.24731358614E+03  0.24866828018E+03  0.00000000000E+00 0.  1.
</event>
<event>
 4    1  0.6629728E+001  0.2179195E+02  0.7546771E-02  0.1508252E+00
          2   -1    0    0  502    0  0.00000000000E+00  0.00000000000E+00  0.64763895084E+00  0.64763895084E+00  0.00000000000E+00 0.  1.
         -2   -1    0    0    0  501 -0.00000000000E+00 -0.00000000000E+00 -0.91961607660E+03  0.91961607660E+03  0.00000000000E+00 0. -1.
          1    1    1    2  502    0 -0.16410043811E+02 -0.14338743468E+02 -0.25235167011E+03  0.25329084964E+03  0.00000000000E+00 0.  1.
         -1    1    1    2    0  501  0.16410043811E+02  0.14338743468E+02 -0.66661676754E+03  0.66697286592E+03  0.00000000000E+00 0. -1.
</event>
<event>
 4    1  0.6629728E+001  0.2077689E+02  0.7546771E-02  0.1522474E+00
          2   -1    0    0  502    0  0.00000000000E+00  0.00000000000E+00  0.16277386249E+03  0.16277386249E+03  0.00000000000E+00 0.  1.
         -2   -1    0    0    0  501 -0.00000000000E+00 -0.00000000000E+00 -0.36325079126E+01  0.36325079126E+01  0.00000000000E+00 0. -1.
          1    1    1    2  502    0  0.10769833472E+02 -0.17767662879E+02  0.12279799709E+03  0.12454327459E+03  0.00000000000E+00 0.  1.
         -1    1    1    2    0  501 -0.10769833472E+02  0.17767662879E+02  0.36343357485E+02  0.41863095807E+02  0.00000000000E+00 0. -1.
</event>
<event>
 4    1  0.6629728E+001  0.3374914E+02  0.7546771E-02  0.1389577E+00
          2   -1    0    0  502    0  0.00000000000E+00  0.00000000000E+00  0.85204965444E+03  0.85204965444E+03  0.00000000000E+00 0.  1.
         -2   -1    0    0    0  501 -0.00000000000E+00 -0.00000000000E+00 -0.13778791120E+01  0.13778791120E+01  0.00000000000E+00 0. -1.
          1    1    1    2  502    0  0.11875999264E+02  0.31590583090E+02  0.35164074349E+03  0.35325658774E+03  0.00000000000E+00 0. -1.
         -1    1    1    2    0  501 -0.11875999264E+02 -0.31590583090E+02  0.49903103184E+03  0.50017094581E+03  0.00000000000E+00 0.  1.
</event>
<event>
 4    1  0.6629728E+001  0.2454695E+02  0.7546771E-02  0.1473936E+00
          2   -1    0    0  502    0  0.00000000000E+00  0.00000000000E+00  0.89468021695E+03  0.89468021695E+03  0.00000000000E+00 0. -1.
         -2   -1    0    0    0  501 -0.00000000000E+00 -0.00000000000E+00 -0.67351138698E+00  0.67351138698E+00  0.00000000000E+00 0.  1.
          1    1    1    2  502    0  0.22063796163E+02  0.10758323927E+02  0.44413837003E+03  0.44481619167E+03  0.00000000000E+00 0.  1.
         -1    1    1    2    0  501 -0.22063796163E+02 -0.10758323927E+02  0.44986833553E+03  0.45053753666E+03  0.00000000000E+00 0. -1.
</event>
<event>
 4    1  0.6629728E+001  0.2476370E+02  0.7546771E-02  0.1471464E+00
          2   -1    0    0  502    0  0.00000000000E+00  0.00000000000E+00  0.96598516601E+03  0.96598516601E+03  0.00000000000E+00 0.  1.
         -2   -1    0    0    0  501 -0.00000000000E+00 -0.00000000000E+00 -0.11160934775E+01  0.11160934775E+01  0.00000000000E+00 0. -1.
          1    1    1    2  502    0  0.20950930755E+02  0.13202243878E+02  0.16490723316E+03  0.16675621815E+03  0.00000000000E+00 0. -1.
         -1    1    1    2    0  501 -0.20950930755E+02 -0.13202243878E+02  0.79996183937E+03  0.80034504134E+03  0.00000000000E+00 0.  1.
</event>
<event>
 4    1  0.6629728E+001  0.2374981E+02  0.7546771E-02  0.1483291E+00
          2   -1    0    0  502    0  0.00000000000E+00  0.00000000000E+00  0.51193036585E+03  0.51193036585E+03  0.00000000000E+00 0.  1.
         -2   -1    0    0    0  501 -0.00000000000E+00 -0.00000000000E+00 -0.25034077238E+01  0.25034077238E+01  0.00000000000E+00 0. -1.
          1    1    1    2  502    0  0.84295921045E+01  0.22203499664E+02  0.44717518860E+03  0.44780542954E+03  0.00000000000E+00 0.  1.
         -1    1    1    2    0  501 -0.84295921045E+01 -0.22203499664E+02  0.62251769523E+02  0.66628344037E+02  0.00000000000E+00 0. -1.
</event>
<event>
 4    1  0.6629728E+001  0.2779258E+02  0.7546771E-02  0.1439805E+00
          2   -1    0    0  502    0  0.00000000000E+00  0.00000000000E+00  0.70745749691E+03  0.70745749691E+03  0.00000000000E+00 0. -1.
         -2   -1    0    0    0  501 -0.00000000000E+00 -0.00000000000E+00 -0.11391223427E+01  0.11391223427E+01  0.00000000000E+00 0.  1.
          1    1    1    2  502    0  0.20151147849E+02  0.19140497851E+02  0.28097323246E+03  0.28234444350E+03  0.00000000000E+00 0.  1.
         -1    1    1    2    0  501 -0.20151147849E+02 -0.19140497851E+02  0.42534514212E+03  0.42625217576E+03  0.00000000000E+00 0. -1.
</event>
<event>
 4    1  0.6629728E+001  0.2025143E+02  0.7546771E-02  0.1530226E+00
          2   -1    0    0  502    0  0.00000000000E+00  0.00000000000E+00  0.48566592689E+03  0.48566592689E+03  0.00000000000E+00 0.  1.
         -2   -1    0    0    0  501 -0.00000000000E+00 -0.00000000000E+00 -0.10287696164E+01  0.10287696164E+01  0.00000000000E+00 0. -1.
          1    1    1    2  502    0 -0.19652769628E+02 -0.48876491145E+01  0.34532247027E+03  0.34591578302E+03  0.00000000000E+00 0.  1.
         -1    1    1    2    0  501  0.19652769628E+02  0.48876491145E+01  0.13931468701E+03  0.14077891349E+03  0.00000000000E+00 0. -1.
</event>
<event>
 4    1  0.6629728E+001  0.2332174E+02  0.7546771E-02  0.1488497E+00
          2   -1    0    0  502    0  0.00000000000E+00  0.00000000000E+00  0.57683293447E+02  0.57683293447E+02  0.00000000000E+00 0.  1.
         -2   -1    0    0    0  501 -0.00000000000E+00 -0.00000000000E+00 -0.95124250860E+01  0.95124250860E+01  0.00000000000E+00 0. -1.
          1    1    1    2  502    0 -0.12919289117E+02 -0.19416371381E+02  0.20941561147E+02  0.31344098203E+02  0.00000000000E+00 0. -1.
         -1    1    1    2    0  501  0.12919289117E+02  0.19416371381E+02  0.27229307214E+02  0.35851620330E+02  0.00000000000E+00 0.  1.
</event>
<event>
 4    1  0.6629728E+001  0.2122248E+02  0.7546771E-02  0.1516112E+00
          2   -1    0    0  502    0  0.00000000000E+00  0.00000000000E+00  0.18208840645E+03  0.18208840645E+03  0.00000000000E+00 0.  1.
         -2   -1    0    0    0  501 -0.00000000000E+00 -0.00000000000E+00 -0.58909577176E+01  0.58909577176E+01  0.00000000000E+00 0. -1.
          1    1    1    2  502    0  0.21219338045E+02 -0.36534310847E+00  0.15968659797E+03  0.16109066811E+03  0.00000000000E+00 0.  1.
         -1    1    1    2    0  501 -0.21219338045E+02  0.36534310847E+00  0.16510850770E+02  0.26888696060E+02  0.00000000000E+00 0. -1.
</event>
<event>
 4    1  0.6629728E+001  0.2089874E+02  0.7546771E-02  0.1520716E+00
          2   -1    0    0  502    0  0.00000000000E+00  0.00000000000E+00  0.16728811818E+02  0.16728811818E+02  0.00000000000E+00 0.  1.
         -2   -1    0    0    0  501 -0.00000000000E+00 -0.00000000000E+00 -0.27925568249E+02  0.27925568249E+02  0.00000000000E+00 0. -1.
          1    1    1    2  502    0 -0.50504281729E-01 -0.20898678755E+02  0.97591493562E-01  0.20898967642E+02  0.00000000000E+00 0. -1.
         -1    1    1    2    0  501  0.50504281729E-01  0.20898678755E+02 -0.11294347925E+02  0.23755412424E+02  0.00000000000E+00 0.  1.
</event>
<event>
 4    1  0.6629728E+001  0.2807274E+02  0.7546771E-02  0.1437120E+00
          2   -1    0    0  502    0  0.00000000000E+00  0.00000000000E+00  0.17022450631E+03  0.17022450631E+03  0.00000000000E+00 0.  1.
         -2   -1    0    0    0  501 -0.00000000000E+00 -0.00000000000E+00 -0.46663961935E+01  0.46663961935E+01  0.00000000000E+00 0. -1.
          1    1    1    2  502    0 -0.33534317027E+01  0.27871725966E+02  0.75018428421E+02  0.80098958890E+02  0.00000000000E+00 0. -1.
         -1    1    1    2    0  501  0.33534317027E+01 -0.27871725966E+02  0.90539681694E+02  0.94791943612E+02  0.00000000000E+00 0.  1.
</event>
<event>
 4    1  0.6629728E+001  0.5043961E+02  0.7546771E-02  0.1296278E+00
          2   -1    0    0  502    0  0.00000000000E+00  0.00000000000E+00  0.82477605515E+02  0.82477605515E+02  0.00000000000E+00 0. -1.
         -2   -1    0    0    0  501 -0.00000000000E+00 -0.00000000000E+00 -0.35153484804E+02  0.35153484804E+02  0.00000000000E+00 0.  1.
          1    1    1    2  502    0  0.43338049214E+02  0.25806360263E+02  0.44248864426E+02  0.67097814738E+02  0.00000000000E+00 0. -1.
         -1    1    1    2    0  501 -0.43338049214E+02 -0.25806360263E+02  0.30752562858E+01  0.50533275581E+02  0.00000000000E+00 0.  1.
</event>
<event>
 4    1  0.6629728E+001  0.8605388E+02  0.7546771E-02  0.1190450E+00
          2   -1    0    0  502    0  0.00000000000E+00  0.00000000000E+00  0.25745051428E+02  0.25745051428E+02  0.00000000000E+00 0. -1.
         -2   -1    0    0    0  501 -0.00000000000E+00 -0.00000000000E+00 -0.28843350567E+03  0.28843350567E+03  0.00000000000E+00 0.  1.
          1    1    1    2  502    0 -0.85603353818E+02  0.87940851742E+01 -0.12309741581E+03  0.15019402085E+03  0.00000000000E+00 0.  1.
         -1    1    1    2    0  501  0.85603353818E+02 -0.87940851742E+01 -0.13959103843E+03  0.16398453625E+03  0.00000000000E+00 0. -1.
</event>
<event>
 4    1  0.6629728E+001  0.3696844E+02  0.7546771E-02  0.1367229E+00
          2   -1    0    0  502    0  0.00000000000E+00  0.00000000000E+00  0.21863480820E+04  0.21863480820E+04  0.00000000000E+00 0. -1.
         -2   -1    0    0    0  501 -0.00000000000E+00 -0.00000000000E+00 -0.19529265148E+01  0.19529265148E+01  0.00000000000E+00 0.  1.
          1    1    1    2  502    0 -0.32710355821E+02  0.17224920310E+02  0.19944049003E+04  0.19947474957E+04  0.00000000000E+00 0. -1.
         -1    1    1    2    0  501  0.32710355821E+02 -0.17224920310E+02  0.18999025515E+03  0.19355351278E+03  0.00000000000E+00 0.  1.
</event>
<event>
 4    1  0.6629728E+001  0.2226581E+02  0.7546771E-02  0.1501929E+00
          2   -1    0    0  502    0  0.00000000000E+00  0.00000000000E+00  0.11621812987E+03  0.11621812987E+03  0.00000000000E+00 0.  1.
         -2   -1    0    0    0  501 -0.00000000000E+00 -0.00000000000E+00 -0.47223104968E+01  0.47223104968E+01  0.00000000000E+00 0. -1.
          1    1    1    2  502    0 -0.19829218079E+02 -0.10127611027E+02  0.74548738321E+02  0.77802832725E+02  0.00000000000E+00 0.  1.
         -1    1    1    2    0  501  0.19829218079E+02  0.10127611027E+02  0.36947081048E+02  0.43137607638E+02  0.00000000000E+00 0. -1.
</event>
<event>
 4    1  0.6629728E+001  0.2171170E+02  0.7546771E-02  0.1509342E+00
          2   -1    0    0  502    0  0.00000000000E+00  0.00000000000E+00  0.64851307420E+03  0.64851307420E+03  0.00000000000E+00 0.  1.
         -2   -1    0    0    0  501 -0.00000000000E+00 -0.00000000000E+00 -0.12965527502E+01  0.12965527502E+01  0.00000000000E+00 0. -1.
          1    1    1    2  502    0  0.15603495800E+02 -0.15097306971E+02  0.10824584797E+03  0.11040181775E+03  0.00000000000E+00 0. -1.
         -1    1    1    2    0  501 -0.15603495800E+02  0.15097306971E+02  0.53897067347E+03  0.53940780920E+03  0.00000000000E+00 0.  1.
</event>
<event>
 4    1  0.6629728E+001  0.2104174E+02  0.7546771E-02  0.1518670E+00
          2   -1    0    0  502    0  0.00000000000E+00  0.00000000000E+00  0.14035740740E+03  0.14035740740E+03  0.00000000000E+00 0. -1.
         -2   -1    0    0    0  501 -0.00000000000E+00 -0.00000000000E+00 -0.33437073922E+01  0.33437073922E+01  0.00000000000E+00 0.  1.
          1    1    1    2  502    0 -0.20261410538E+02  0.56771529537E+01  0.51414315211E+02  0.55553457420E+02  0.00000000000E+00 0.  1.
         -1    1    1    2    0  501  0.20261410538E+02 -0.56771529537E+01  0.85599384796E+02  0.88147657372E+02  0.00000000000E+00 0. -1.
</event>
<event>
 4    1  0.6629728E+001  0.2042370E+02  0.7546771E-02  0.1527654E+00
          2   -1    0    0  502    0  0.00000000000E+00  0.00000000000E+00  0.77352340192E+02  0.77352340192E+02  0.00000000000E+00 0.  1.
         -2   -1    0    0    0  501 -0.00000000000E+00 -0.00000000000E+00 -0.66104730714E+01  0.66104730714E+01  0.00000000000E+00 0. -1.
          1    1    1    2  502    0  0.10747922909E+02 -0.17366910843E+02  0.53390658694E+02  0.57163711171E+02  0.00000000000E+00 0.  1.
         -1    1    1    2    0  501 -0.10747922909E+02  0.17366910843E+02  0.17351208426E+02  0.26799102092E+02  0.00000000000E+00 0. -1.
</event>
<event>
 4    1  0.6629728E+001  0.2028788E+02  0.7546771E-02  0.1529680E+00
          2   -1    0    0  502    0  0.00000000000E+00  0.00000000000E+00  0.10807535896E+03  0.10807535896E+03  0.00000000000E+00 0.  1.
         -2   -1    0    0    0  501 -0.00000000000E+00 -0.00000000000E+00 -0.43496746957E+01  0.43496746957E+01  0.00000000000E+00 0. -1.
          1    1    1    2  502    0  0.34194569784E+01 -0.19997633111E+02  0.32033909963E+02  0.37917929843E+02  0.00000000000E+00 0.  1.
         -1    1    1    2    0  501 -0.34194569784E+01  0.19997633111E+02  0.71691774302E+02  0.74507103813E+02  0.00000000000E+00 0. -1.
</event>
<event>
 4    1  0.6629728E+001  0.2358963E+02  0.7546771E-02  0.1485224E+00
          2   -1    0    0  502    0  0.00000000000E+00  0.00000000000E+00  0.12487099129E+02  0.12487099129E+02  0.00000000000E+00 0.  1.
         -2   -1    0    0    0  501 -0.00000000000E+00 -0.00000000000E+00 -0.44563722748E+02  0.44563722748E+02  0.00000000000E+00 0. -1.
          1    1    1    2  502    0 -0.21764867180E+02 -0.90973080041E+01 -0.16079624537E+02  0.28548638873E+02  0.00000000000E+00 0. -1.
         -1    1    1    2    0  501  0.21764867180E+02  0.90973080041E+01 -0.15996999082E+02  0.28502183003E+02  0.00000000000E+00 0.  1.
</event>
<event>
 4    1  0.6629728E+001  0.2089653E+02  0.7546771E-02  0.1520747E+00
          2   -1    0    0  502    0  0.00000000000E+00  0.00000000000E+00  0.19668475313E+04  0.19668475313E+04  0.00000000000E+00 0. -1.
         -2   -1    0    0    0  501 -0.00000000000E+00 -0.00000000000E+00 -0.31181170527E+00  0.31181170527E+00  0.00000000000E+00 0.  1.
          1    1    1    2  502    0  0.47602496843E+01  0.20347110398E+02  0.15111043497E+04  0.15112488282E+04  0.00000000000E+00 0. -1.
         -1    1    1    2    0  501 -0.47602496843E+01 -0.20347110398E+02  0.45543136986E+03  0.45591051483E+03  0.00000000000E+00 0.  1.
</event>
<event>
 4    1  0.6629728E+001  0.2472153E+02  0.7546771E-02  0.1471943E+00
          2   -1    0    0  502    0  0.00000000000E+00  0.00000000000E+00  0.91910406807E+02  0.91910406807E+02  0.00000000000E+00 0.  1.
         -2   -1    0    0    0  501 -0.00000000000E+00 -0.00000000000E+00 -0.27757124025E+02  0.27757124025E+02  0.00000000000E+00 0. -1.
          1    1    1    2  502    0 -0.20559925215E+02  0.13727469367E+02  0.84253659862E+02  0.87805655514E+02  0.00000000000E+00 0.  1.
         -1    1    1    2    0  501  0.20559925215E+02 -0.13727469367E+02 -0.20100377079E+02  0.31861875318E+02  0.00000000000E+00 0. -1.
</event>
<event>
 4    1  0.6629728E+001  0.2564333E+02  0.7546771E-02  0.1461734E+00
          2   -1    0    0  502    0  0.00000000000E+00  0.00000000000E+00  0.12272871768E+02  0.12272871768E+02  0.00000000000E+00 0. -1.
         -2   -1    0    0    0  501 -0.00000000000E+00 -0.00000000000E+00 -0.96167462660E+02  0.96167462660E+02  0.00000000000E+00 0.  1.
          1    1    1    2  502    0 -0.10566092025E+01 -0.25621555548E+02 -0.78029048582E+02  0.82134724413E+02  0.00000000000E+00 0.  1.
         -1    1    1    2    0  501  0.10566092025E+01  0.25621555548E+02 -0.58655423104E+01  0.26305610015E+02  0.00000000000E+00 0. -1.
</event>
<event>
 4    1  0.6629728E+001  0.2937432E+02  0.7546771E-02  0.1425113E+00
          2   -1    0    0  502    0  0.00000000000E+00  0.00000000000E+00  0.93486797470E+02  0.93486797470E+02  0.00000000000E+00 0. -1.
         -2   -1    0    0    0  501 -0.00000000000E+00 -0.00000000000E+00 -0.95457966813E+01  0.95457966813E+01  0.00000000000E+00 0.  1.
          1    1    1    2  502    0  0.27072313296E+02 -0.11399133181E+02  0.51345756182E+02  0.59154349480E+02  0.00000000000E+00 0. -1.
         -1    1    1    2    0  501 -0.27072313296E+02  0.11399133181E+02  0.32595244606E+02  0.43878244671E+02  0.00000000000E+00 0.  1.
</event>
<event>
 4    1  0.6629728E+001  0.2149303E+02  0.7546771E-02  0.1512341E+00
          2   -1    0    0  502    0  0.00000000000E+00  0.00000000000E+00  0.48156262842E+03  0.48156262842E+03  0.00000000000E+00 0.  1.
         -2   -1    0    0    0  501 -0.00000000000E+00 -0.00000000000E+00 -0.29205176078E+01  0.29205176078E+01  0.00000000000E+00 0. -1.
          1    1    1    2  502    0  0.78043922206E+01 -0.20026025455E+02  0.43783206465E+03  0.43835928993E+03  0.00000000000E+00 0.  1.
         -1    1    1    2    0  501 -0.78043922206E+01  0.20026025455E+02  0.40810046162E+02  0.46123856096E+02  0.00000000000E+00 0. -1.
</event>
<event>
 4    1  0.6629728E+001  0.3702668E+02  0.7546771E-02  0.1366849E+00
          2   -1    0    0  502    0  0.00000000000E+00  0.00000000000E+00  0.98314129687E+01  0.98314129687E+01  0.00000000000E+00 0. -1.
         -2   -1    0    0    0  501 -0.00000000000E+00 -0.00000000000E+00 -0.13952475762E+03  0.13952475762E+03  0.00000000000E+00 0.  1.
          1    1    1    2  502    0 -0.35377156728E+02  0.10928488180E+02 -0.63099975989E+02  0.73161342537E+02  0.00000000000E+00 0. -1.
         -1    1    1    2    0  501  0.35377156728E+02 -0.10928488180E+02 -0.66593368665E+02  0.76194828054E+02  0.00000000000E+00 0.  1.
</event>
<event>
 4    1  0.6629728E+001  0.2179751E+02  0.7546771E-02  0.1508176E+00
          2   -1    0    0  502    0  0.00000000000E+00  0.00000000000E+00  0.86056709745E+03  0.86056709745E+03  0.00000000000E+00 0.  1.
         -2   -1    0    0    0  501 -0.00000000000E+00 -0.00000000000E+00 -0.84574725885E+00  0.84574725885E+00  0.00000000000E+00 0. -1.
          1    1    1    2  502    0  0.20579644810E+02 -0.71839817756E+01  0.17607712328E+03  0.17742120706E+03  0.00000000000E+00 0. -1.
         -1    1    1    2    0  501 -0.20579644810E+02  0.71839817756E+01  0.68364422692E+03  0.68399163765E+03  0.00000000000E+00 0.  1.
</event>
<event>
 4    1  0.6629728E+001  0.2263058E+02  0.7546771E-02  0.1497190E+00
          2   -1    0    0  502    0  0.00000000000E+00  0.00000000000E+00  0.76924071855E+01  0.76924071855E+01  0.00000000000E+00 0. -1.
         -2   -1    0    0    0  501 -0.00000000000E+00 -0.00000000000E+00 -0.52995700448E+03  0.52995700448E+03  0.00000000000E+00 0.  1.
          1    1    1    2  502    0 -0.16416787174E+02  0.15576660458E+02 -0.51250444228E+03  0.51300384659E+03  0.00000000000E+00 0.  1.
         -1    1    1    2    0  501  0.16416787174E+02 -0.15576660458E+02 -0.97601550076E+01  0.24645565076E+02  0.00000000000E+00 0. -1.
</event>
<event>
 4    1  0.6629728E+001  0.2524867E+02  0.7546771E-02  0.1466041E+00
          2   -1    0    0  502    0  0.00000000000E+00  0.00000000000E+00  0.81922712091E+03  0.81922712091E+03  0.00000000000E+00 0. -1.
         -2   -1    0    0    0  501 -0.00000000000E+00 -0.00000000000E+00 -0.90568155817E+00  0.90568155817E+00  0.00000000000E+00 0.  1.
          1    1    1    2  502    0 -0.25066959047E+02  0.30237126504E+01  0.56302818595E+03  0.56359403248E+03  0.00000000000E+00 0. -1.
         -1    1    1    2    0  501  0.25066959047E+02 -0.30237126504E+01  0.25529325341E+03  0.25653876999E+03  0.00000000000E+00 0.  1.
</event>
<event>
 4    1  0.6629728E+001  0.2750776E+02  0.7546771E-02  0.1442573E+00
          2   -1    0    0  502    0  0.00000000000E+00  0.00000000000E+00  0.52229574300E+03  0.52229574300E+03  0.00000000000E+00 0.  1.
         -2   -1    0    0    0  501 -0.00000000000E+00 -0.00000000000E+00 -0.36636430578E+01  0.36636430578E+01  0.00000000000E+00 0. -1.
          1    1    1    2  502    0 -0.40935242119E+01 -0.27201465698E+02  0.54840265586E+02  0.61352517521E+02  0.00000000000E+00 0. -1.
         -1    1    1    2    0  501  0.40935242119E+01  0.27201465698E+02  0.46379183435E+03  0.46460686854E+03  0.00000000000E+00 0.  1.
</event>
<event>
 4    1  0.6629728E+001  0.2423429E+02  0.7546771E-02  0.1477555E+00
          2   -1    0    0  502    0  0.00000000000E+00  0.00000000000E+00  0.37754325062E+02  0.37754325062E+02  0.00000000000E+00 0. -1.
         -2   -1    0    0    0  501 -0.00000000000E+00 -0.00000000000E+00 -0.15867915189E+02  0.15867915189E+02  0.00000000000E+00 0.  1.
          1    1    1    2  502    0 -0.21918176963E+02 -0.10338963948E+02  0.71832991680E+01  0.25276480052E+02  0.00000000000E+00 0.  1.
         -1    1    1    2    0  501  0.21918176963E+02  0.10338963948E+02  0.14703110705E+02  0.28345760199E+02  0.00000000000E+00 0. -1.
</event>
<event>
 4    1  0.6629728E+001  0.3126699E+02  0.7546771E-02  0.1408897E+00
          2   -1    0    0  502    0  0.00000000000E+00  0.00000000000E+00  0.21047851896E+04  0.21047851896E+04  0.00000000000E+00 0.  1.
         -2   -1    0    0    0  501 -0.00000000000E+00 -0.00000000000E+00 -0.10364568230E+01  0.10364568230E+01  0.00000000000E+00 0. -1.
          1    1    1    2  502    0 -0.29211155435E+02  0.11150479944E+02  0.18340535394E+04  0.18343200403E+04  0.00000000000E+00 0.  1.
         -1    1    1    2    0  501  0.29211155435E+02 -0.11150479944E+02  0.26969519334E+03  0.27150160610E+03  0.00000000000E+00 0. -1.
</event>
<event>
 4    1  0.6629728E+001  0.2107301E+02  0.7546771E-02  0.1518225E+00
          2   -1    0    0  502    0  0.00000000000E+00  0.00000000000E+00  0.58104642770E+03  0.58104642770E+03  0.00000000000E+00 0. -1.
         -2   -1    0    0    0  501 -0.00000000000E+00 -0.00000000000E+00 -0.95709210430E+00  0.95709210430E+00  0.00000000000E+00 0.  1.
          1    1    1    2  502    0  0.19569578410E+02 -0.78168553792E+01  0.15942567893E+03  0.16081237119E+03  0.00000000000E+00 0.  1.
         -1    1    1    2    0  501 -0.19569578410E+02  0.78168553792E+01  0.42066365667E+03  0.42119114861E+03  0.00000000000E+00 0. -1.
</event>
<event>
 4    1  0.6629728E+001  0.2400551E+02  0.7546771E-02  0.1480244E+00
          2   -1    0    0  502    0  0.00000000000E+00  0.00000000000E+00  0.10209097139E+04  0.10209097139E+04  0.00000000000E+00 0.  1.
         -2   -1    0    0    0  501 -0.00000000000E+00 -0.00000000000E+00 -0.64063028348E+00  0.64063028348E+00  0.00000000000E+00 0. -1.
          1    1    1    2  502    0 -0.22952769680E+02 -0.70309871940E+01  0.68625671272E+03  0.68667644504E+03  0.00000000000E+00 0.  1.
         -1    1    1    2    0  501  0.22952769680E+02  0.70309871940E+01  0.33401237088E+03  0.33487389912E+03  0.00000000000E+00 0. -1.
</event>
<event>
 4    1  0.6629728E+001  0.2147184E+02  0.7546771E-02  0.1512634E+00
          2   -1    0    0  502    0  0.00000000000E+00  0.00000000000E+00  0.71269637759E+03  0.71269637759E+03  0.00000000000E+00 0.  1.
         -2   -1    0    0    0  501 -0.00000000000E+00 -0.00000000000E+00 -0.91131810580E+00  0.91131810580E+00  0.00000000000E+00 0. -1.
          1    1    1    2  502    0 -0.20095753651E+02 -0.75631009371E+01  0.16369662478E+03  0.16509883335E+03  0.00000000000E+00 0. -1.
         -1    1    1    2    0  501  0.20095753651E+02  0.75631009371E+01  0.54808843470E+03  0.54850886234E+03  0.00000000000E+00 0.  1.
</event>
<event>
 4    1  0.6629728E+001  0.2093777E+02  0.7546771E-02  0.1520155E+00
          2   -1    0    0  502    0  0.00000000000E+00  0.00000000000E+00  0.10117125994E+02  0.10117125994E+02  0.00000000000E+00 0. -1.
         -2   -1    0    0    0  501 -0.00000000000E+00 -0.00000000000E+00 -0.45794206709E+02  0.45794206709E+02  0.00000000000E+00 0.  1.
          1    1    1    2  502    0  0.13358490290E+02 -0.16122677941E+02 -0.11355585442E+02  0.23818885942E+02  0.00000000000E+00 0. -1.
         -1    1    1    2    0  501 -0.13358490290E+02  0.16122677941E+02 -0.24321495272E+02  0.32092446761E+02  0.00000000000E+00 0.  1.
</event>
<event>
 4    1  0.6629728E+001  0.2092732E+02  0.7546771E-02  0.1520305E+00
          2   -1    0    0  502    0  0.00000000000E+00  0.00000000000E+00  0.39616432140E+01  0.39616432140E+01  0.00000000000E+00 0.  1.
         -2   -1    0    0    0  501 -0.00000000000E+00 -0.00000000000E+00 -0.11120846398E+03  0.11120846398E+03  0.00000000000E+00 0. -1.
          1    1    1    2  502    0  0.20513147255E+02 -0.41428978342E+01 -0.49186548827E+02  0.53453432053E+02  0.00000000000E+00 0.  1.
         -1    1    1    2    0  501 -0.20513147255E+02  0.41428978342E+01 -0.58060271935E+02  0.61716675137E+02  0.00000000000E+00 0. -1.
</event>
<event>
 4    1  0.6629728E+001  0.2107440E+02  0.7546771E-02  0.1518205E+00
          2   -1    0    0  502    0  0.00000000000E+00  0.00000000000E+00  0.15377346783E+02  0.15377346783E+02  0.00000000000E+00 0. -1.
         -2   -1    0    0    0  501 -0.00000000000E+00 -0.00000000000E+00 -0.43245411156E+02  0.43245411156E+02  0.00000000000E+00 0.  1.
          1    1    1    2  502    0  0.12950652871E+02  0.16625615272E+02  0.29584356786E+01  0.21281044021E+02  0.00000000000E+00 0. -1.
         -1    1    1    2    0  501 -0.12950652871E+02 -0.16625615272E+02 -0.30826500051E+02  0.37341713918E+02  0.00000000000E+00 0.  1.
</event>
<event>
 4    1  0.6629728E+001  0.2801014E+02  0.7546771E-02  0.1437717E+00
          2   -1    0    0  502    0  0.00000000000E+00  0.00000000000E+00  0.17401326372E+03  0.17401326372E+03  0.00000000000E+00 0. -1.
         -2   -1    0    0    0  501 -0.00000000000E+00 -0.00000000000E+00 -0.61325866498E+01  0.61325866498E+01  0.00000000000E+00 0.  1.
          1    1    1    2  502    0  0.27773378130E+02  0.36341818419E+01  0.37589806167E+02  0.46878154167E+02  0.00000000000E+00 0.  1.
         -1    1    1    2    0  501 -0.27773378130E+02 -0.36341818419E+01  0.13029087090E+03  0.13326769620E+03  0.00000000000E+00 0. -1.
</event>
<event>
 4    1  0.6629728E+001  0.2288635E+02  0.7546771E-02  0.1493930E+00
          2   -1    0    0  502    0  0.00000000000E+00  0.00000000000E+00  0.26393711824E+03  0.26393711824E+03  0.00000000000E+00 0. -1.
         -2   -1    0    0    0  501 -0.00000000000E+00 -0.00000000000E+00 -0.30621350703E+01  0.30621350703E+01  0.00000000000E+00 0.  1.
          1    1    1    2  502    0 -0.93823270518E+01 -0.20874792158E+02  0.51241652333E+02  0.56120334482E+02  0.00000000000E+00 0.  1.
         -1    1    1    2    0  501  0.93823270518E+01  0.20874792158E+02  0.20963333084E+03  0.21087891883E+03  0.00000000000E+00 0. -1.
</event>
<event>
 4    1  0.6629728E+001  0.3417163E+02  0.7546771E-02  0.1386482E+00
          2   -1    0    0  502    0  0.00000000000E+00  0.00000000000E+00  0.20846728942E+03  0.20846728942E+03  0.00000000000E+00 0. -1.
         -2   -1    0    0    0  501 -0.00000000000E+00 -0.00000000000E+00 -0.73898835734E+01  0.73898835734E+01  0.00000000000E+00 0.  1.
          1    1    1    2  502    0  0.33917747231E+02 -0.41577602922E+01  0.15363508165E+03  0.15738944965E+03  0.00000000000E+00 0. -1.
         -1    1    1    2    0  501 -0.33917747231E+02  0.41577602922E+01  0.47442324206E+02  0.58467723351E+02  0.00000000000E+00 0.  1.
</event>
<event>
 4    1  0.6629728E+001  0.2682327E+02  0.7546771E-02  0.1449392E+00
          2   -1    0    0  502    0  0.00000000000E+00  0.00000000000E+00  0.66982642894E+01  0.66982642894E+01  0.00000000000E+00 0. -1.
         -2   -1    0    0    0  501 -0.00000000000E+00 -0.00000000000E+00 -0.11970536264E+03  0.11970536264E+03  0.00000000000E+00 0.  1.
          1    1    1    2  502    0 -0.62586091208E+01  0.26082895549E+02 -0.36251356722E+02  0.45095991978E+02  0.00000000000E+00 0. -1.
         -1    1    1    2    0  501  0.62586091208E+01 -0.26082895549E+02 -0.76755741633E+02  0.81307634955E+02  0.00000000000E+00 0.  1.
</event>
<event>
 4    1  0.6629728E+001  0.2459089E+02  0.7546771E-02  0.1473432E+00
          2   -1    0    0  502    0  0.00000000000E+00  0.00000000000E+00  0.24364061553E+04  0.24364061553E+04  0.00000000000E+00 0.  1.
         -2   -1    0    0    0  501 -0.00000000000E+00 -0.00000000000E+00 -0.26028799626E+00  0.26028799626E+00  0.00000000000E+00 0. -1.
          1    1    1    2  502    0 -0.24562369772E+02  0.11839871845E+01  0.95550182182E+03  0.95581820621E+03  0.00000000000E+00 0. -1.
         -1    1    1    2    0  501  0.24562369772E+02 -0.11839871845E+01  0.14806440455E+04  0.14808482371E+04  0.00000000000E+00 0.  1.
</event>
<event>
 4    1  0.6629728E+001  0.2056919E+02  0.7546771E-02  0.1525506E+00
          2   -1    0    0  502    0  0.00000000000E+00  0.00000000000E+00  0.66606708522E+02  0.66606708522E+02  0.00000000000E+00 0.  1.
         -2   -1    0    0    0  501 -0.00000000000E+00 -0.00000000000E+00 -0.79862275349E+01  0.79862275349E+01  0.00000000000E+00 0. -1.
          1    1    1    2  502    0  0.19274848591E+02 -0.71813375727E+01  0.12439195398E+02  0.24037990342E+02  0.00000000000E+00 0. -1.
         -1    1    1    2    0  501 -0.19274848591E+02  0.71813375727E+01  0.46181285589E+02  0.50554945714E+02  0.00000000000E+00 0.  1.
</event>
<event>
 4    1  0.6629728E+001  0.2037846E+02  0.7546771E-02  0.1528327E+00
          2   -1    0    0  502    0  0.00000000000E+00  0.00000000000E+00  0.59907530790E+03  0.59907530790E+03  0.00000000000E+00 0.  1.
         -2   -1    0    0    0  501 -0.00000000000E+00 -0.00000000000E+00 -0.96954505509E+00  0.96954505509E+00  0.00000000000E+00 0. -1.
          1    1    1    2  502    0 -0.20593206596E+01 -0.20274138037E+02  0.13887876805E+03  0.14036592780E+03  0.00000000000E+00 0. -1.
         -1    1    1    2    0  501  0.20593206596E+01  0.20274138037E+02  0.45922699480E+03  0.45967892515E+03  0.00000000000E+00 0.  1.
</event>
<event>
 4    1  0.6629728E+001  0.3268135E+02  0.7546771E-02  0.1397640E+00
          2   -1    0    0  502    0  0.00000000000E+00  0.00000000000E+00  0.37551669294E+03  0.37551669294E+03  0.00000000000E+00 0.  1.
         -2   -1    0    0    0  501 -0.00000000000E+00 -0.00000000000E+00 -0.29662939799E+01  0.29662939799E+01  0.00000000000E+00 0. -1.
          1    1    1    2  502    0  0.14095332202E+01 -0.32650944275E+02  0.14789285694E+03  0.15146078066E+03  0.00000000000E+00 0. -1.
         -1    1    1    2    0  501 -0.14095332202E+01  0.32650944275E+02  0.22465754203E+03  0.22702220626E+03  0.00000000000E+00 0.  1.
</event>
<event>
 4    1  0.6629728E+001  0.2142690E+02  0.7546771E-02  0.1513256E+00
          2   -1    0    0  502    0  0.00000000000E+00  0.00000000000E+00  0.11917999460E+04  0.11917999460E+04  0.00000000000E+00 0.  1.
         -2   -1    0    0    0  501 -0.00000000000E+00 -0.00000000000E+00 -0.39867781106E+00  0.39867781106E+00  0.00000000000E+00 0. -1.
          1    1    1    2  502    0 -0.75802135939E-01  0.21426770822E+02  0.48620445997E+03  0.48667637004E+03  0.00000000000E+00 0. -1.
         -1    1    1    2    0  501  0.75802135939E-01 -0.21426770822E+02  0.70519680824E+03  0.70552225380E+03  0.00000000000E+00 0.  1.
</event>
<event>
 4    1  0.6629728E+001  0.5094705E+02  0.7546771E-02  0.1294118E+00
          2   -1    0    0  502    0  0.00000000000E+00  0.00000000000E+00  0.22491231906E+03  0.22491231906E+03  0.00000000000E+00 0. -1.
         -2   -1    0    0    0  501 -0.00000000000E+00 -0.00000000000E+00 -0.14579781050E+02  0.14579781050E+02  0.00000000000E+00 0.  1.
          1    1    1    2  502    0 -0.92167495461E+00  0.50938711018E+02  0.15983899928E+03  0.16776205606E+03  0.00000000000E+00 0. -1.
         -1    1    1    2    0  501  0.92167495461E+00 -0.50938711018E+02  0.50493538732E+02  0.71730044044E+02  0.00000000000E+00 0.  1.
</event>
<event>
 4    1  0.6629728E+001  0.2711322E+02  0.7546771E-02  0.1446474E+00
          2   -1    0    0  502    0  0.00000000000E+00  0.00000000000E+00  0.17018654782E+03  0.17018654782E+03  0.00000000000E+00 0.  1.
         -2   -1    0    0    0  501 -0.00000000000E+00 -0.00000000000E+00 -0.43217270193E+01  0.43217270193E+01  0.00000000000E+00 0. -1.
          1    1    1    2  502    0  0.24252057077E+02  0.12122887084E+02  0.84897714064E+02  0.89122098926E+02  0.00000000000E+00 0.  1.
         -1    1    1    2    0  501 -0.24252057077E+02 -0.12122887084E+02  0.80967106733E+02  0.85386175910E+02  0.00000000000E+00 0. -1.
</event>
<event>
 4    1  0.6629728E+001  0.2356167E+02  0.7546771E-02  0.1485563E+00
          2   -1    0    0  502    0  0.00000000000E+00  0.00000000000E+00  0.12664062567E+04  0.12664062567E+04  0.00000000000E+00 0.  1.
         -2   -1    0    0    0  501 -0.00000000000E+00 -0.00000000000E+00 -0.57632836572E+00  0.57632836572E+00  0.00000000000E+00 0. -1.
          1    1    1    2  502    0  0.23083483011E+02 -0.47228515053E+01  0.32297173453E+03  0.32383003848E+03  0.00000000000E+00 0. -1.
         -1    1    1    2    0  501 -0.23083483011E+02  0.47228515053E+01  0.94285819376E+03  0.94315254655E+03  0.00000000000E+00 0.  1.
</event>
<event>
 4    1  0.6629728E+001  0.2883580E+02  0.7546771E-02  0.1429990E+00
          2   -1    0    0  502    0  0.00000000000E+00  0.00000000000E+00  0.26728603001E+03  0.26728603001E+03  0.00000000000E+00 0. -1.
         -2   -1    0    0    0  501 -0.00000000000E+00 -0.00000000000E+00 -0.37922950812E+01  0.37922950812E+01  0.00000000000E+00 0.  1.
          1    1    1    2  502    0 -0.11576928984E+02 -0.26409806485E+02  0.18919945514E+03  0.19138426526E+03  0.00000000000E+00 0. -1.
         -1    1    1    2    0  501  0.11576928984E+02  0.26409806485E+02  0.74294279784E+02  0.79694059828E+02  0.00000000000E+00 0.  1.
</event>
<event>
 4    1  0.6629728E+001  0.2136241E+02  0.7546771E-02  0.1514153E+00
          2   -1    0    0  502    0  0.00000000000E+00  0.00000000000E+00  0.21852686386E+02  0.21852686386E+02  0.00000000000E+00 0. -1.
         -2   -1    0    0    0  501 -0.00000000000E+00 -0.00000000000E+00 -0.24727435877E+02  0.24727435877E+02  0.00000000000E+00 0.  1.
          1    1    1    2  502    0  0.20024531853E+02 -0.74411399922E+01 -0.10620493153E+02  0.23856808570E+02  0.00000000000E+00 0.  1.
         -1    1    1    2    0  501 -0.20024531853E+02  0.74411399922E+01  0.77457436613E+01  0.22723313693E+02  0.00000000000E+00 0. -1.
</event>
<event>
 4    1  0.6629728E+001  0.5912789E+02  0.7546771E-02  0.1262825E+00
          2   -1    0    0  502    0  0.00000000000E+00  0.00000000000E+00  0.14206317112E+04  0.14206317112E+04  0.00000000000E+00 0. -1.
         -2   -1    0    0    0  501 -0.00000000000E+00 -0.00000000000E+00 -0.49369078876E+01  0.49369078876E+01  0.00000000000E+00 0.  1.
          1    1    1    2  502    0 -0.29598684167E+02 -0.51186177806E+02  0.12126272891E+04  0.12140679756E+04  0.00000000000E+00 0. -1.
         -1    1    1    2    0  501  0.29598684167E+02  0.51186177806E+02  0.20306751420E+03  0.21150064356E+03  0.00000000000E+00 0.  1.
</event>
<event>
 4    1  0.6629728E+001  0.3837634E+02  0.7546771E-02  0.1358272E+00
          2   -1    0    0  502    0  0.00000000000E+00  0.00000000000E+00  0.34300575184E+03  0.34300575184E+03  0.00000000000E+00 0. -1.
         -2   -1    0    0    0  501 -0.00000000000E+00 -0.00000000000E+00 -0.70063950960E+01  0.70063950960E+01  0.00000000000E+00 0.  1.
          1    1    1    2  502    0 -0.28180756440E+02  0.26049735405E+02  0.27689544051E+03  0.27954217700E+03  0.00000000000E+00 0. -1.
         -1    1    1    2    0  501  0.28180756440E+02 -0.26049735405E+02  0.59103916235E+02  0.70469969934E+02  0.00000000000E+00 0.  1.
</event>
<event>
 4    1  0.6629728E+001  0.7204984E+02  0.7546771E-02  0.1223614E+00
          2   -1    0    0  502    0  0.00000000000E+00  0.00000000000E+00  0.11324190000E+02  0.11324190000E+02  0.00000000000E+00 0.  1.
         -2   -1    0    0    0  501 -0.00000000000E+00 -0.00000000000E+00 -0.45841990426E+03  0.45841990426E+03  0.00000000000E+00 0. -1.
          1    1    1    2  502    0 -0.71854629754E+02  0.53001330412E+01 -0.22431144104E+03  0.23559881538E+03  0.00000000000E+00 0.  1.
         -1    1    1    2    0  501  0.71854629754E+02 -0.53001330412E+01 -0.22278427322E+03  0.23414527888E+03  0.00000000000E+00 0. -1.
</event>
<event>
 4    1  0.6629728E+001  0.4236511E+02  0.7546771E-02  0.1335157E+00
          2   -1    0    0  502    0  0.00000000000E+00  0.00000000000E+00  0.12262664364E+04  0.12262664364E+04  0.00000000000E+00 0.  1.
         -2   -1    0    0    0  501 -0.00000000000E+00 -0.00000000000E+00 -0.21190202939E+01  0.21190202939E+01  0.00000000000E+00 0. -1.
          1    1    1    2  502    0 -0.73401568735E+01  0.41724390374E+02  0.27049838267E+03  0.27379586864E+03  0.00000000000E+00 0. -1.
         -1    1    1    2    0  501  0.73401568735E+01 -0.41724390374E+02  0.95364903340E+03  0.95458958802E+03  0.00000000000E+00 0.  1.
</event>
<event>
 4    1  0.6629728E+001  0.2415203E+02  0.7546771E-02  0.1478517E+00
          2   -1    0    0  502    0  0.00000000000E+00  0.00000000000E+00  0.12680608049E+04  0.12680608049E+04  0.00000000000E+00 0.  1.
         -2   -1    0    0    0  501 -0.00000000000E+00 -0.00000000000E+00 -0.46651581645E+00  0.46651581645E+00  0.00000000000E+00 0. -1.
          1    1    1    2  502    0 -0.76515291414E+01  0.22907963518E+02  0.55889633750E+03  0.55941794462E+03  0.00000000000E+00 0. -1.
         -1    1    1    2    0  501  0.76515291414E+01 -0.22907963518E+02  0.70869795159E+03  0.70910937611E+03  0.00000000000E+00 0.  1.
</event>
<event>
 4    1  0.6629728E+001  0.2763372E+02  0.7546771E-02  0.1441344E+00
          2   -1    0    0  502    0  0.00000000000E+00  0.00000000000E+00  0.59887562088E+02  0.59887562088E+02  0.00000000000E+00 0. -1.
         -2   -1    0    0    0  501 -0.00000000000E+00 -0.00000000000E+00 -0.31176034581E+02  0.31176034581E+02  0.00000000000E+00 0.  1.
          1    1    1    2  502    0  0.79205616544E+01 -0.26474272932E+02  0.49359087576E+02  0.56568029403E+02  0.00000000000E+00 0. -1.
         -1    1    1    2    0  501 -0.79205616544E+01  0.26474272932E+02 -0.20647560069E+02  0.34495567266E+02  0.00000000000E+00 0.  1.
</event>
<event>
 4    1  0.6629728E+001  0.2193734E+02  0.7546771E-02  0.1506291E+00
          2   -1    0    0  502    0  0.00000000000E+00  0.00000000000E+00  0.31844915429E+03  0.31844915429E+03  0.00000000000E+00 0.  1.
         -2   -1    0    0    0  501 -0.00000000000E+00 -0.00000000000E+00 -0.17628018549E+01  0.17628018549E+01  0.00000000000E+00 0. -1.
          1    1    1    2  502    0 -0.85519952856E+01  0.20201735935E+02  0.21882785551E+03  0.21992470781E+03  0.00000000000E+00 0.  1.
         -1    1    1    2    0  501  0.85519952856E+01 -0.20201735935E+02  0.97858496918E+02  0.10028724833E+03  0.00000000000E+00 0. -1.
</event>
<event>
 4    1  0.6629728E+001  0.5549796E+02  0.7546771E-02  0.1275947E+00
          2   -1    0    0  502    0  0.00000000000E+00  0.00000000000E+00  0.27636961259E+03  0.27636961259E+03  0.00000000000E+00 0.  1.
         -2   -1    0    0    0  501 -0.00000000000E+00 -0.00000000000E+00 -0.11344455061E+02  0.11344455061E+02  0.00000000000E+00 0. -1.
          1    1    1    2  502    0  0.51331186284E+02 -0.21098162070E+02  0.15160755373E+03  0.16144619375E+03  0.00000000000E+00 0. -1.
         -1    1    1    2    0  501 -0.51331186284E+02  0.21098162070E+02  0.11341760379E+03  0.12626787390E+03  0.00000000000E+00 0.  1.
</event>
<event>
 4    1  0.6629728E+001  0.5614240E+02  0.7546771E-02  0.1273534E+00
          2   -1    0    0  502    0  0.00000000000E+00  0.00000000000E+00  0.36776126856E+03  0.36776126856E+03  0.00000000000E+00 0. -1.
         -2   -1    0    0    0  501 -0.00000000000E+00 -0.00000000000E+00 -0.85956666825E+01  0.85956666825E+01  0.00000000000E+00 0.  1.
          1    1    1    2  502    0 -0.25604968402E+02  0.49963533498E+02  0.18972583167E+03  0.19785818227E+03  0.00000000000E+00 0.  1.
         -1    1    1    2    0  501  0.25604968402E+02 -0.49963533498E+02  0.16943977021E+03  0.17849875298E+03  0.00000000000E+00 0. -1.
</event>
<event>
 4    1  0.6629728E+001  0.2749348E+02  0.7546771E-02  0.1442713E+00
          2   -1    0    0  502    0  0.00000000000E+00  0.00000000000E+00  0.47030642468E+02  0.47030642468E+02  0.00000000000E+00 0. -1.
         -2   -1    0    0    0  501 -0.00000000000E+00 -0.00000000000E+00 -0.16075686574E+02  0.16075686574E+02  0.00000000000E+00 0.  1.
          1    1    1    2  502    0 -0.93892626734E+01  0.25840536412E+02  0.15020918465E+02  0.31329212680E+02  0.00000000000E+00 0.  1.
         -1    1    1    2    0  501  0.93892626734E+01 -0.25840536412E+02  0.15934037429E+02  0.31777116363E+02  0.00000000000E+00 0. -1.
</event>
<event>
 4    1  0.6629728E+001  0.2389109E+02  0.7546771E-02  0.1481602E+00
          2   -1    0    0  502    0  0.00000000000E+00  0.00000000000E+00  0.61992733845E+03  0.61992733845E+03  0.00000000000E+00 0.  1.
         -2   -1    0    0    0  501 -0.00000000000E+00 -0.00000000000E+00 -0.30981593527E+01  0.30981593527E+01  0.00000000000E+00 0. -1.
          1    1    1    2  502    0 -0.20206206576E+02  0.12747296315E+02  0.56956830152E+03  0.57006914882E+03  0.00000000000E+00 0.  1.
         -1    1    1    2    0  501  0.20206206576E+02 -0.12747296315E+02  0.47260877578E+02  0.52956348977E+02  0.00000000000E+00 0. -1.
</event>
<event>
 4    1  0.6629728E+001  0.4054420E+02  0.7546771E-02  0.1345326E+00
          2   -1    0    0  502    0  0.00000000000E+00  0.00000000000E+00  0.40771686206E+03  0.40771686206E+03  0.00000000000E+00 0.  1.
         -2   -1    0    0    0  501 -0.00000000000E+00 -0.00000000000E+00 -0.41053531065E+01  0.41053531065E+01  0.00000000000E+00 0. -1.
          1    1    1    2  502    0 -0.28768401272E+02 -0.28569405204E+02  0.22936786083E+03  0.23292369439E+03  0.00000000000E+00 0. -1.
         -1    1    1    2    0  501  0.28768401272E+02  0.28569405204E+02  0.17424364812E+03  0.17889852077E+03  0.00000000000E+00 0.  1.
</event>
<event>
 4    1  0.6629728E+001  0.2708723E+02  0.7546771E-02  0.1446734E+00
          2   -1    0    0  502    0  0.00000000000E+00  0.00000000000E+00  0.41187541571E+02  0.41187541571E+02  0.00000000000E+00 0. -1.
         -2   -1    0    0    0  501 -0.00000000000E+00 -0.00000000000E+00 -0.17814174892E+02  0.17814174892E+02  0.00000000000E+00 0.  1.
          1    1    1    2  502    0  0.23417109153E+02 -0.13614590113E+02  0.11617769100E+02  0.29473558046E+02  0.00000000000E+00 0. -1.
         -1    1    1    2    0  501 -0.23417109153E+02  0.13614590113E+02  0.11755597579E+02  0.29528158417E+02  0.00000000000E+00 0.  1.
</event>
<event>
 4    1  0.6629728E+001  0.3053408E+02  0.7546771E-02  0.1415011E+00
          2   -1    0    0  502    0  0.00000000000E+00  0.00000000000E+00  0.74073914019E+01  0.74073914019E+01  0.00000000000E+00 0. -1.
         -2   -1    0    0    0  501 -0.00000000000E+00 -0.00000000000E+00 -0.18219117530E+03  0.18219117530E+03  0.00000000000E+00 0.  1.
          1    1    1    2  502    0 -0.30463484301E+02 -0.20751925589E+01 -0.14010238116E+03  0.14339109982E+03  0.00000000000E+00 0.  1.
         -1    1    1    2    0  501  0.30463484301E+02  0.20751925589E+01 -0.34681402732E+02  0.46207466879E+02  0.00000000000E+00 0. -1.
</event>
<event>
 4    1  0.6629728E+001  0.2101401E+02  0.7546771E-02  0.1519065E+00
          2   -1    0    0  502    0  0.00000000000E+00  0.00000000000E+00  0.62497776556E+01  0.62497776556E+01  0.00000000000E+00 0.  1.
         -2   -1    0    0    0  501 -0.00000000000E+00 -0.00000000000E+00 -0.85433661759E+02  0.85433661759E+02  0.00000000000E+00 0. -1.
          1    1    1    2  502    0 -0.19829755919E+02 -0.69548260064E+01 -0.20526863889E+02  0.29375856850E+02  0.00000000000E+00 0.  1.
         -1    1    1    2    0  501  0.19829755919E+02  0.69548260064E+01 -0.58657020214E+02  0.62307582564E+02  0.00000000000E+00 0. -1.
</event>
<event>
 4    1  0.6629728E+001  0.3085970E+02  0.7546771E-02  0.1412270E+00
          2   -1    0    0  502    0  0.00000000000E+00  0.00000000000E+00  0.19559165522E+03  0.19559165522E+03  0.00000000000E+00 0. -1.
         -2   -1    0    0    0  501 -0.00000000000E+00 -0.00000000000E+00 -0.54293652720E+01  0.54293652720E+01  0.00000000000E+00 0.  1.
          1    1    1    2  502    0 -0.24294505608E+02  0.19028867997E+02  0.62788607712E+02  0.69962347576E+02  0.00000000000E+00 0. -1.
         -1    1    1    2    0  501  0.24294505608E+02 -0.19028867997E+02  0.12737368224E+03  0.13105867292E+03  0.00000000000E+00 0.  1.
</event>
<event>
 4    1  0.6629728E+001  0.3539030E+02  0.7546771E-02  0.1377840E+00
          2   -1    0    0  502    0  0.00000000000E+00  0.00000000000E+00  0.41370736908E+02  0.41370736908E+02  0.00000000000E+00 0.  1.
         -2   -1    0    0    0  501 -0.00000000000E+00 -0.00000000000E+00 -0.45012859766E+02  0.45012859766E+02  0.00000000000E+00 0. -1.
          1    1    1    2  502    0 -0.48255777169E+00  0.35387014342E+02 -0.26535983460E+02  0.44233833931E+02  0.00000000000E+00 0. -1.
         -1    1    1    2    0  501  0.48255777169E+00 -0.35387014342E+02  0.22893860603E+02  0.42149762743E+02  0.00000000000E+00 0.  1.
</event>
<event>
 4    1  0.6629728E+001  0.2493319E+02  0.7546771E-02  0.1469552E+00
          2   -1    0    0  502    0  0.00000000000E+00  0.00000000000E+00  0.58978179912E+02  0.58978179912E+02  0.00000000000E+00 0. -1.
         -2   -1    0    0    0  501 -0.00000000000E+00 -0.00000000000E+00 -0.11686794645E+02  0.11686794645E+02  0.00000000000E+00 0.  1.
          1    1    1    2  502    0 -0.24079989476E+02  0.64666884743E+01  0.34710920216E+02  0.42737710926E+02  0.00000000000E+00 0. -1.
         -1    1    1    2    0  501  0.24079989476E+02 -0.64666884743E+01  0.12580465051E+02  0.27927263631E+02  0.00000000000E+00 0.  1.
</event>
<event>
 4    1  0.6629728E+001  0.4183041E+02  0.7546771E-02  0.1338081E+00
          2   -1    0    0  502    0  0.00000000000E+00  0.00000000000E+00  0.86186184584E+02  0.86186184584E+02  0.00000000000E+00 0.  1.
         -2   -1    0    0    0  501 -0.00000000000E+00 -0.00000000000E+00 -0.22639652844E+02  0.22639652844E+02  0.00000000000E+00 0. -1.
          1    1    1    2  502    0 -0.14134687893E+02 -0.39369963999E+02  0.14289976570E+02  0.44203924006E+02  0.00000000000E+00 0. -1.
         -1    1    1    2    0  501  0.14134687893E+02  0.39369963999E+02  0.49256555171E+02  0.64621913422E+02  0.00000000000E+00 0.  1.
</event>
<event>
 4    1  0.6629728E+001  0.2430437E+02  0.7546771E-02  0.1476738E+00
          2   -1    0    0  502    0  0.00000000000E+00  0.00000000000E+00  0.11882262998E+02  0.11882262998E+02  0.00000000000E+00 0.  1.
         -2   -1    0    0    0  501 -0.00000000000E+00 -0.00000000000E+00 -0.52292876483E+02  0.52292876483E+02  0.00000000000E+00 0. -1.
          1    1    1    2  502    0  0.51379133984E+01 -0.23755092886E+02 -0.13078130737E+02  0.27599639412E+02  0.00000000000E+00 0.  1.
         -1    1    1    2    0  501 -0.51379133984E+01  0.23755092886E+02 -0.27332482748E+02  0.36575500069E+02  0.00000000000E+00 0. -1.
</event>
<event>
 4    1  0.6629728E+001  0.2031457E+02  0.7546771E-02  0.1529280E+00
          2   -1    0    0  502    0  0.00000000000E+00  0.00000000000E+00  0.14167758116E+04  0.14167758116E+04  0.00000000000E+00 0.  1.
         -2   -1    0    0    0  501 -0.00000000000E+00 -0.00000000000E+00 -0.30450683372E+00  0.30450683372E+00  0.00000000000E+00 0. -1.
          1    1    1    2  502    0  0.11661327843E+02 -0.16634156024E+02  0.56057792795E+03  0.56094589313E+03  0.00000000000E+00 0. -1.
         -1    1    1    2    0  501 -0.11661327843E+02  0.16634156024E+02  0.85589337681E+03  0.85613442529E+03  0.00000000000E+00 0.  1.
</event>
<event>
 4    1  0.6629728E+001  0.3744137E+02  0.7546771E-02  0.1364169E+00
          2   -1    0    0  502    0  0.00000000000E+00  0.00000000000E+00  0.31906242056E+03  0.31906242056E+03  0.00000000000E+00 0.  1.
         -2   -1    0    0    0  501 -0.00000000000E+00 -0.00000000000E+00 -0.43941342168E+01  0.43941342168E+01  0.00000000000E+00 0. -1.
          1    1    1    2  502    0  0.14262856316E+02  0.34618304382E+02  0.15899035488E+03  0.16333949006E+03  0.00000000000E+00 0.  1.
         -1    1    1    2    0  501 -0.14262856316E+02 -0.34618304382E+02  0.15567793147E+03  0.16011706472E+03  0.00000000000E+00 0. -1.
</event>
<event>
 4    1  0.6629728E+001  0.3660549E+02  0.7546771E-02  0.1369614E+00
          2   -1    0    0  502    0  0.00000000000E+00  0.00000000000E+00  0.17997067253E+03  0.17997067253E+03  0.00000000000E+00 0. -1.
         -2   -1    0    0    0  501 -0.00000000000E+00 -0.00000000000E+00 -0.98296542828E+01  0.98296542828E+01  0.00000000000E+00 0.  1.
          1    1    1    2  502    0  0.33226047244E+02 -0.15362024390E+02  0.13180848409E+03  0.13679707046E+03  0.00000000000E+00 0. -1.
         -1    1    1    2    0  501 -0.33226047244E+02  0.15362024390E+02  0.38332534156E+02  0.53003256350E+02  0.00000000000E+00 0.  1.
</event>
<event>
 4    1  0.6629728E+001  0.2377260E+02  0.7546771E-02  0.1483018E+00
          2   -1    0    0  502    0  0.00000000000E+00  0.00000000000E+00  0.23491695969E+00  0.23491695969E+00  0.00000000000E+00 0.  1.
         -2   -1    0    0    0  501 -0.00000000000E+00 -0.00000000000E+00 -0.24065652697E+04  0.24065652697E+04  0.00000000000E+00 0. -1.
          1    1    1    2  502    0 -0.69726143258E+01  0.22727057628E+02 -0.12261643067E+04  0.12263947340E+04  0.00000000000E+00 0. -1.
         -1    1    1    2    0  501  0.69726143258E+01 -0.22727057628E+02 -0.11801660461E+04  0.11804054527E+04  0.00000000000E+00 0.  1.
</event>
<event>
 4    1  0.6629728E+001  0.2422482E+02  0.7546771E-02  0.1477665E+00
          2   -1    0    0  502    0  0.00000000000E+00  0.00000000000E+00  0.19548905227E+02  0.19548905227E+02  0.00000000000E+00 0.  1.
         -2   -1    0    0    0  501 -0.00000000000E+00 -0.00000000000E+00 -0.30402928295E+02  0.30402928295E+02  0.00000000000E+00 0. -1.
          1    1    1    2  502    0  0.79209253719E+01  0.22893250754E+02 -0.26209944141E+01  0.24366197910E+02  0.00000000000E+00 0.  1.
         -1    1    1    2    0  501 -0.79209253719E+01 -0.22893250754E+02 -0.82330286547E+01  0.25585635612E+02  0.00000000000E+00 0. -1.
</event>
<event>
 4    1  0.6629728E+001  0.2104552E+02  0.7546771E-02  0.1518616E+00
          2   -1    0    0  502    0  0.00000000000E+00  0.00000000000E+00  0.18049468856E+01  0.18049468856E+01  0.00000000000E+00 0. -1.
         -2   -1    0    0    0  501 -0.00000000000E+00 -0.00000000000E+00 -0.24545523771E+03  0.24545523771E+03  0.00000000000E+00 0.  1.
          1    1    1    2  502    0  0.18514905938E+02  0.10005601583E+02 -0.11979163449E+03  0.12162626977E+03  0.00000000000E+00 0. -1.
         -1    1    1    2    0  501 -0.18514905938E+02 -0.10005601583E+02 -0.12385865634E+03  0.12563391483E+03  0.00000000000E+00 0.  1.
</event>
<event>
 4    1  0.6629728E+001  0.2133862E+02  0.7546771E-02  0.1514485E+00
          2   -1    0    0  502    0  0.00000000000E+00  0.00000000000E+00  0.77019355148E+03  0.77019355148E+03  0.00000000000E+00 0. -1.
         -2   -1    0    0    0  501 -0.00000000000E+00 -0.00000000000E+00 -0.69674498962E+00  0.69674498962E+00  0.00000000000E+00 0.  1.
          1    1    1    2  502    0 -0.20085444945E+02  0.72049751818E+01  0.53476831497E+03  0.53519387839E+03  0.00000000000E+00 0. -1.
         -1    1    1    2    0  501  0.20085444945E+02 -0.72049751818E+01  0.23472849152E+03  0.23569641808E+03  0.00000000000E+00 0.  1.
</event>
<event>
 4    1  0.6629728E+001  0.2134034E+02  0.7546771E-02  0.1514461E+00
          2   -1    0    0  502    0  0.00000000000E+00  0.00000000000E+00  0.16813162340E+03  0.16813162340E+03  0.00000000000E+00 0.  1.
         -2   -1    0    0    0  501 -0.00000000000E+00 -0.00000000000E+00 -0.30495365282E+01  0.30495365282E+01  0.00000000000E+00 0. -1.
          1    1    1    2  502    0 -0.15380711665E+02  0.14793373275E+02  0.53924826710E+02  0.57993940372E+02  0.00000000000E+00 0. -1.
         -1    1    1    2    0  501  0.15380711665E+02 -0.14793373275E+02  0.11115726016E+03  0.11318721955E+03  0.00000000000E+00 0.  1.
</event>
<event>
 4    1  0.6629728E+001  0.2240693E+02  0.7546771E-02  0.1500083E+00
          2   -1    0    0  502    0  0.00000000000E+00  0.00000000000E+00  0.16489314085E+03  0.16489314085E+03  0.00000000000E+00 0. -1.
         -2   -1    0    0    0  501 -0.00000000000E+00 -0.00000000000E+00 -0.38301414990E+01  0.38301414990E+01  0.00000000000E+00 0.  1.
          1    1    1    2  502    0  0.22370694952E+02 -0.12737878778E+01  0.42331764141E+02  0.47896229324E+02  0.00000000000E+00 0. -1.
         -1    1    1    2    0  501 -0.22370694952E+02  0.12737878778E+01  0.11873123521E+03  0.12082705303E+03  0.00000000000E+00 0.  1.
</event>
<event>
 4    1  0.6629728E+001  0.3117646E+02  0.7546771E-02  0.1409641E+00
          2   -1    0    0  502    0  0.00000000000E+00  0.00000000000E+00  0.64913903772E+03  0.64913903772E+03  0.00000000000E+00 0. -1.
         -2   -1    0    0    0  501 -0.00000000000E+00 -0.00000000000E+00 -0.23146842890E+01  0.23146842890E+01  0.00000000000E+00 0.  1.
          1    1    1    2  502    0 -0.21450409135E+02  0.22624131221E+02  0.51697167956E+03  0.51791088889E+03  0.00000000000E+00 0. -1.
         -1    1    1    2    0  501  0.21450409135E+02 -0.22624131221E+02  0.12985267388E+03  0.13354283312E+03  0.00000000000E+00 0.  1.
</event>
<event>
 4    1  0.6629728E+001  0.2630407E+02  0.7546771E-02  0.1454727E+00
          2   -1    0    0  502    0  0.00000000000E+00  0.00000000000E+00  0.13312433160E+02  0.13312433160E+02  0.00000000000E+00 0. -1.
         -2   -1    0    0    0  501 -0.00000000000E+00 -0.00000000000E+00 -0.63674929506E+02  0.63674929506E+02  0.00000000000E+00 0.  1.
          1    1    1    2  502    0  0.11372467148E+02 -0.23718584098E+02 -0.41682239619E+02  0.49288064887E+02  0.00000000000E+00 0.  1.
         -1    1    1    2    0  501 -0.11372467148E+02  0.23718584098E+02 -0.86802567280E+01  0.27699297780E+02  0.00000000000E+00 0. -1.
</event>
<event>
 4    1  0.6629728E+001  0.2886349E+02  0.7546771E-02  0.1429736E+00
          2   -1    0    0  502    0  0.00000000000E+00  0.00000000000E+00  0.25352199763E+01  0.25352199763E+01  0.00000000000E+00 0.  1.
         -2   -1    0    0    0  501 -0.00000000000E+00 -0.00000000000E+00 -0.37276103880E+03  0.37276103880E+03  0.00000000000E+00 0. -1.
          1    1    1    2  502    0 -0.25918086674E+02  0.12702523762E+02 -0.24969234225E+03  0.25135506183E+03  0.00000000000E+00 0. -1.
         -1    1    1    2    0  501  0.25918086674E+02 -0.12702523762E+02 -0.12053347657E+03  0.12394119695E+03  0.00000000000E+00 0.  1.
</event>
<event>
 4    1  0.6629728E+001  0.5169164E+02  0.7546771E-02  0.1291000E+00
          2   -1    0    0  502    0  0.00000000000E+00  0.00000000000E+00  0.79979281377E+03  0.79979281377E+03  0.00000000000E+00 0. -1.
         -2   -1    0    0    0  501 -0.00000000000E+00 -0.00000000000E+00 -0.33670342576E+01  0.33670342576E+01  0.00000000000E+00 0.  1.
          1    1    1    2  502    0 -0.36815513292E+02 -0.36285586114E+02  0.43359424205E+03  0.43666462247E+03  0.00000000000E+00 0.  1.
         -1    1    1    2    0  501  0.36815513292E+02  0.36285586114E+02  0.36283153746E+03  0.36649522555E+03  0.00000000000E+00 0. -1.
</event>
<event>
 4    1  0.6629728E+001  0.2201383E+02  0.7546771E-02  0.1505267E+00
          2   -1    0    0  502    0  0.00000000000E+00  0.00000000000E+00  0.16101664074E+04  0.16101664074E+04  0.00000000000E+00 0.  1.
         -2   -1    0    0    0  501 -0.00000000000E+00 -0.00000000000E+00 -0.32612201275E+00  0.32612201275E+00  0.00000000000E+00 0. -1.
          1    1    1    2  502    0 -0.76898000734E+01 -0.20627064610E+02  0.10285557362E+04  0.10287912865E+04  0.00000000000E+00 0.  1.
         -1    1    1    2    0  501  0.76898000734E+01  0.20627064610E+02  0.58128454924E+03  0.58170124291E+03  0.00000000000E+00 0. -1.
</event>
<event>
 4    1  0.6629728E+001  0.2487185E+02  0.7546771E-02  0.1470242E+00
          2   -1    0    0  502    0  0.00000000000E+00  0.00000000000E+00  0.14015463365E+01  0.14015463365E+01  0.00000000000E+00 0. -1.
         -2   -1    0    0    0  501 -0.00000000000E+00 -0.00000000000E+00 -0.54965331556E+03  0.54965331556E+03  0.00000000000E+00 0.  1.
          1    1    1    2  502    0  0.24855303702E+02  0.90708204585E+00 -0.39641537943E+03  0.39719486649E+03  0.00000000000E+00 0.  1.
         -1    1    1    2    0  501 -0.24855303702E+02 -0.90708204585E+00 -0.15183638980E+03  0.15385999541E+03  0.00000000000E+00 0. -1.
</event>
<event>
 4    1  0.6629728E+001  0.2212757E+02  0.7546771E-02  0.1503754E+00
          2   -1    0    0  502    0  0.00000000000E+00  0.00000000000E+00  0.31539149455E+03  0.31539149455E+03  0.00000000000E+00 0. -1.
         -2   -1    0    0    0  501 -0.00000000000E+00 -0.00000000000E+00 -0.18457249156E+01  0.18457249156E+01  0.00000000000E+00 0.  1.
          1    1    1    2  502    0  0.18139754452E+02 -0.12671964760E+02  0.93545030032E+02  0.96126489721E+02  0.00000000000E+00 0.  1.
         -1    1    1    2    0  501 -0.18139754452E+02  0.12671964760E+02  0.22000073960E+03  0.22111072974E+03  0.00000000000E+00 0. -1.
</event>
<event>
 4    1  0.6629728E+001  0.2019452E+02  0.7546771E-02  0.1531083E+00
          2   -1    0    0  502    0  0.00000000000E+00  0.00000000000E+00  0.10481801277E+04  0.10481801277E+04  0.00000000000E+00 0. -1.
         -2   -1    0    0    0  501 -0.00000000000E+00 -0.00000000000E+00 -0.69070549457E+00  0.69070549457E+00  0.00000000000E+00 0.  1.
          1    1    1    2  502    0  0.12302047118E+02 -0.16014940835E+02  0.87030958888E+03  0.87054385253E+03  0.00000000000E+00 0.  1.
         -1    1    1    2    0  501 -0.12302047118E+02  0.16014940835E+02  0.17717983330E+03  0.17832698064E+03  0.00000000000E+00 0. -1.
</event>
<event>
 4    1  0.6629728E+001  0.2123819E+02  0.7546771E-02  0.1515891E+00
          2   -1    0    0  502    0  0.00000000000E+00  0.00000000000E+00  0.12766872529E+02  0.12766872529E+02  0.00000000000E+00 0.  1.
         -2   -1    0    0    0  501 -0.00000000000E+00 -0.00000000000E+00 -0.39350616185E+02  0.39350616185E+02  0.00000000000E+00 0. -1.
          1    1    1    2  502    0  0.21208856433E+02 -0.11158034369E+01 -0.21620901359E+02  0.30307160607E+02  0.00000000000E+00 0. -1.
         -1    1    1    2    0  501 -0.21208856433E+02  0.11158034369E+01 -0.49628422972E+01  0.21810328108E+02  0.00000000000E+00 0.  1.
</event>
<event>
 4    1  0.6629728E+001  0.3963226E+02  0.7546771E-02  0.1350654E+00
          2   -1    0    0  502    0  0.00000000000E+00  0.00000000000E+00  0.30939643485E+03  0.30939643485E+03  0.00000000000E+00 0. -1.
         -2   -1    0    0    0  501 -0.00000000000E+00 -0.00000000000E+00 -0.64825770636E+01  0.64825770636E+01  0.00000000000E+00 0.  1.
          1    1    1    2  502    0  0.31102231877E+02  0.24563540770E+02  0.22500797695E+03  0.22847167451E+03  0.00000000000E+00 0. -1.
         -1    1    1    2    0  501 -0.31102231877E+02 -0.24563540770E+02  0.77905880837E+02  0.87407337403E+02  0.00000000000E+00 0.  1.
</event>
<event>
 4    1  0.6629728E+001  0.2640769E+02  0.7546771E-02  0.1453650E+00
          2   -1    0    0  502    0  0.00000000000E+00  0.00000000000E+00  0.16962396586E+03  0.16962396586E+03  0.00000000000E+00 0. -1.
         -2   -1    0    0    0  501 -0.00000000000E+00 -0.00000000000E+00 -0.42341558393E+01  0.42341558393E+01  0.00000000000E+00 0.  1.
          1    1    1    2  502    0 -0.26291269504E+02  0.24769217903E+01  0.97505530822E+02  0.10101828812E+03  0.00000000000E+00 0. -1.
         -1    1    1    2    0  501  0.26291269504E+02 -0.24769217903E+01  0.67884279200E+02  0.72839833582E+02  0.00000000000E+00 0.  1.
</event>
<event>
 4    1  0.6629728E+001  0.2989917E+02  0.7546771E-02  0.1420475E+00
          2   -1    0    0  502    0  0.00000000000E+00  0.00000000000E+00  0.47537486031E+02  0.47537486031E+02  0.00000000000E+00 0. -1.
         -2   -1    0    0    0  501 -0.00000000000E+00 -0.00000000000E+00 -0.20452614220E+02  0.20452614220E+02  0.00000000000E+00 0.  1.
          1    1    1    2  502    0 -0.29434849040E+02 -0.52488294654E+01  0.23190024709E+02  0.37838311204E+02  0.00000000000E+00 0. -1.
         -1    1    1    2    0  501  0.29434849040E+02  0.52488294654E+01  0.38948471018E+01  0.30151789047E+02  0.00000000000E+00 0.  1.
</event>
<event>
 4    1  0.6629728E+001  0.2345634E+02  0.7546771E-02  0.1486846E+00
          2   -1    0    0  502    0  0.00000000000E+00  0.00000000000E+00  0.14418537665E+04  0.14418537665E+04  0.00000000000E+00 0.  1.
         -2   -1    0    0    0  501 -0.00000000000E+00 -0.00000000000E+00 -0.39269026093E+00  0.39269026093E+00  0.00000000000E+00 0. -1.
          1    1    1    2  502    0 -0.23447543964E+02 -0.64232036675E+00  0.84196091791E+03  0.84228759173E+03  0.00000000000E+00 0. -1.
         -1    1    1    2    0  501  0.23447543964E+02  0.64232036675E+00  0.59950015832E+03  0.59995886502E+03  0.00000000000E+00 0.  1.
</event>
<event>
 4    1  0.6629728E+001  0.2134595E+02  0.7546771E-02  0.1514382E+00
          2   -1    0    0  502    0  0.00000000000E+00  0.00000000000E+00  0.39865473768E+02  0.39865473768E+02  0.00000000000E+00 0.  1.
         -2   -1    0    0    0  501 -0.00000000000E+00 -0.00000000000E+00 -0.13378639212E+02  0.13378639212E+02  0.00000000000E+00 0. -1.
          1    1    1    2  502    0  0.14448596335E+02 -0.15712659318E+02  0.30824037194E+01  0.21567355229E+02  0.00000000000E+00 0. -1.
         -1    1    1    2    0  501 -0.14448596335E+02  0.15712659318E+02  0.23404430836E+02  0.31676757751E+02  0.00000000000E+00 0.  1.
</event>
<event>
 4    1  0.6629728E+001  0.2004041E+02  0.7546771E-02  0.1533419E+00
          2   -1    0    0  502    0  0.00000000000E+00  0.00000000000E+00  0.81590675724E+03  0.81590675724E+03  0.00000000000E+00 0. -1.
         -2   -1    0    0    0  501 -0.00000000000E+00 -0.00000000000E+00 -0.52197675293E+00  0.52197675293E+00  0.00000000000E+00 0.  1.
          1    1    1    2  502    0  0.19223899688E+02  0.56621422512E+01  0.31025106121E+03  0.31089763453E+03  0.00000000000E+00 0.  1.
         -1    1    1    2    0  501 -0.19223899688E+02 -0.56621422512E+01  0.50513371928E+03  0.50553109946E+03  0.00000000000E+00 0. -1.
</event>
<event>
 4    1  0.6629728E+001  0.2702588E+02  0.7546771E-02  0.1447348E+00
          2   -1    0    0  502    0  0.00000000000E+00  0.00000000000E+00  0.24111793549E+02  0.24111793549E+02  0.00000000000E+00 0. -1.
         -2   -1    0    0    0  501 -0.00000000000E+00 -0.00000000000E+00 -0.34278841877E+02  0.34278841877E+02  0.00000000000E+00 0.  1.
          1    1    1    2  502    0  0.32069287217E+01 -0.26834933471E+02 -0.15040020030E+02  0.30928954860E+02  0.00000000000E+00 0.  1.
         -1    1    1    2    0  501 -0.32069287217E+01  0.26834933471E+02  0.48729717024E+01  0.27461680565E+02  0.00000000000E+00 0. -1.
</event>
<event>
 4    1  0.6629728E+001  0.4818679E+02  0.7546771E-02  0.1306231E+00
          2   -1    0    0  502    0  0.00000000000E+00  0.00000000000E+00  0.21111584949E+03  0.21111584949E+03  0.00000000000E+00 0. -1.
         -2   -1    0    0    0  501 -0.00000000000E+00 -0.00000000000E+00 -0.10998627757E+02  0.10998627757E+02  0.00000000000E+00 0.  1.
          1    1    1    2  502    0 -0.33128169220E+02 -0.34992730252E+02  0.99750469459E+02  0.11077961421E+03  0.00000000000E+00 0.  1.
         -1    1    1    2    0  501  0.33128169220E+02  0.34992730252E+02  0.10036675228E+03  0.11133486305E+03  0.00000000000E+00 0. -1.
</event>
<event>
 4    1  0.6629728E+001  0.3115043E+02  0.7546771E-02  0.1409856E+00
          2   -1    0    0  502    0  0.00000000000E+00  0.00000000000E+00  0.15150306869E+01  0.15150306869E+01  0.00000000000E+00 0. -1.
         -2   -1    0    0    0  501 -0.00000000000E+00 -0.00000000000E+00 -0.72041155184E+03  0.72041155184E+03  0.00000000000E+00 0.  1.
          1    1    1    2  502    0 -0.43429109920E+00  0.31147398091E+02 -0.47968244144E+03  0.48069282670E+03  0.00000000000E+00 0.  1.
         -1    1    1    2    0  501  0.43429109920E+00 -0.31147398091E+02 -0.23921407972E+03  0.24123375583E+03  0.00000000000E+00 0. -1.
</event>
<event>
 4    1  0.6629728E+001  0.2833505E+02  0.7546771E-02  0.1434639E+00
          2   -1    0    0  502    0  0.00000000000E+00  0.00000000000E+00  0.78337807047E+03  0.78337807047E+03  0.00000000000E+00 0. -1.
         -2   -1    0    0    0  501 -0.00000000000E+00 -0.00000000000E+00 -0.10646363107E+01  0.10646363107E+01  0.00000000000E+00 0.  1.
          1    1    1    2  502    0  0.33630896451E+01  0.28134761070E+02  0.31537099998E+03  0.31664134723E+03  0.00000000000E+00 0.  1.
         -1    1    1    2    0  501 -0.33630896451E+01 -0.28134761070E+02  0.46694243418E+03  0.46780135955E+03  0.00000000000E+00 0. -1.
</event>
<event>
 4    1  0.6629728E+001  0.2506034E+02  0.7546771E-02  0.1468129E+00
          2   -1    0    0  502    0  0.00000000000E+00  0.00000000000E+00  0.11037838690E+03  0.11037838690E+03  0.00000000000E+00 0.  1.
         -2   -1    0    0    0  501 -0.00000000000E+00 -0.00000000000E+00 -0.58045300834E+01  0.58045300834E+01  0.00000000000E+00 0. -1.
          1    1    1    2  502    0  0.23401489111E+02  0.89660993980E+01  0.60457344978E+02  0.65445482601E+02  0.00000000000E+00 0. -1.
         -1    1    1    2    0  501 -0.23401489111E+02 -0.89660993980E+01  0.44116511843E+02  0.50737434387E+02  0.00000000000E+00 0.  1.
</event>
<event>
 4    1  0.6629728E+001  0.3486344E+02  0.7546771E-02  0.1381526E+00
          2   -1    0    0  502    0  0.00000000000E+00  0.00000000000E+00  0.88820880617E+03  0.88820880617E+03  0.00000000000E+00 0. -1.
         -2   -1    0    0    0  501 -0.00000000000E+00 -0.00000000000E+00 -0.17264831256E+01  0.17264831256E+01  0.00000000000E+00 0.  1.
          1    1    1    2  502    0  0.78877870849E+01  0.33959422702E+02  0.24060565940E+03  0.24311837222E+03  0.00000000000E+00 0.  1.
         -1    1    1    2    0  501 -0.78877870849E+01 -0.33959422702E+02  0.64587666365E+03  0.64681691708E+03  0.00000000000E+00 0. -1.
</event>
<event>
 4    1  0.6629728E+001  0.2091772E+02  0.7546771E-02  0.1520443E+00
          2   -1    0    0  502    0  0.00000000000E+00  0.00000000000E+00  0.18533379941E+03  0.18533379941E+03  0.00000000000E+00 0. -1.
         -2   -1    0    0    0  501 -0.00000000000E+00 -0.00000000000E+00 -0.23866918618E+01  0.23866918618E+01  0.00000000000E+00 0.  1.
          1    1    1    2  502    0 -0.57406110431E+01  0.20114582275E+02  0.81712757735E+02  0.84347648526E+02  0.00000000000E+00 0.  1.
         -1    1    1    2    0  501  0.57406110431E+01 -0.20114582275E+02  0.10123434981E+03  0.10337284275E+03  0.00000000000E+00 0. -1.
</event>
<event>
 4    1  0.6629728E+001  0.2170789E+02  0.7546771E-02  0.1509393E+00
          2   -1    0    0  502    0  0.00000000000E+00  0.00000000000E+00  0.14368652614E+04  0.14368652614E+04  0.00000000000E+00 0.  1.
         -2   -1    0    0    0  501 -0.00000000000E+00 -0.00000000000E+00 -0.39426476113E+00  0.39426476113E+00  0.00000000000E+00 0. -1.
          1    1    1    2  502    0  0.17088530736E+02 -0.13387099496E+02  0.10129409503E+04  0.10131735296E+04  0.00000000000E+00 0.  1.
         -1    1    1    2    0  501 -0.17088530736E+02  0.13387099496E+02  0.42353004635E+03  0.42408599656E+03  0.00000000000E+00 0. -1.
</event>
<event>
 4    1  0.6629728E+001  0.2216690E+02  0.7546771E-02  0.1503233E+00
          2   -1    0    0  502    0  0.00000000000E+00  0.00000000000E+00  0.50354416059E+01  0.50354416059E+01  0.00000000000E+00 0.  1.
         -2   -1    0    0    0  501 -0.00000000000E+00 -0.00000000000E+00 -0.97632009593E+02  0.97632009593E+02  0.00000000000E+00 0. -1.
          1    1    1    2  502    0 -0.22109277367E+02  0.15973356856E+01 -0.45143801005E+02  0.50292488466E+02  0.00000000000E+00 0. -1.
         -1    1    1    2    0  501  0.22109277367E+02 -0.15973356856E+01 -0.47452766983E+02  0.52374962733E+02  0.00000000000E+00 0.  1.
</event>
<event>
 4    1  0.6629728E+001  0.2691310E+02  0.7546771E-02  0.1448483E+00
          2   -1    0    0  502    0  0.00000000000E+00  0.00000000000E+00  0.12704216856E+04  0.12704216856E+04  0.00000000000E+00 0.  1.
         -2   -1    0    0    0  501 -0.00000000000E+00 -0.00000000000E+00 -0.64051692645E+00  0.64051692645E+00  0.00000000000E+00 0. -1.
          1    1    1    2  502    0  0.23963914099E+02  0.12249327578E+02  0.42422481530E+03  0.42507765070E+03  0.00000000000E+00 0.  1.
         -1    1    1    2    0  501 -0.23963914099E+02 -0.12249327578E+02  0.84555635339E+03  0.84598455185E+03  0.00000000000E+00 0. -1.
</event>
<event>
 4    1  0.6629728E+001  0.2470987E+02  0.7546771E-02  0.1472075E+00
          2   -1    0    0  502    0  0.00000000000E+00  0.00000000000E+00  0.19146166848E+04  0.19146166848E+04  0.00000000000E+00 0.  1.
         -2   -1    0    0    0  501 -0.00000000000E+00 -0.00000000000E+00 -0.37745673990E+00  0.37745673990E+00  0.00000000000E+00 0. -1.
          1    1    1    2  502    0  0.56690080029E+00  0.24703365996E+02  0.13342399016E+04  0.13344686931E+04  0.00000000000E+00 0.  1.
         -1    1    1    2    0  501 -0.56690080029E+00 -0.24703365996E+02  0.57999932643E+03  0.58052544847E+03  0.00000000000E+00 0. -1.
</event>
<event>
 4    1  0.6629728E+001  0.2347123E+02  0.7546771E-02  0.1486664E+00
          2   -1    0    0  502    0  0.00000000000E+00  0.00000000000E+00  0.12067082512E+04  0.12067082512E+04  0.00000000000E+00 0.  1.
         -2   -1    0    0    0  501 -0.00000000000E+00 -0.00000000000E+00 -0.48415141536E+00  0.48415141536E+00  0.00000000000E+00 0. -1.
          1    1    1    2  502    0 -0.12233579857E+02 -0.20030929124E+02  0.45894090757E+03  0.45954070030E+03  0.00000000000E+00 0.  1.
         -1    1    1    2    0  501  0.12233579857E+02  0.20030929124E+02  0.74728319219E+03  0.74765170228E+03  0.00000000000E+00 0. -1.
</event>
<event>
 4    1  0.6629728E+001  0.2236144E+02  0.7546771E-02  0.1500676E+00
          2   -1    0    0  502    0  0.00000000000E+00  0.00000000000E+00  0.13307009345E+02  0.13307009345E+02  0.00000000000E+00 0.  1.
         -2   -1    0    0    0  501 -0.00000000000E+00 -0.00000000000E+00 -0.47804738800E+02  0.47804738800E+02  0.00000000000E+00 0. -1.
          1    1    1    2  502    0 -0.21174455964E+02  0.71886407182E+01 -0.31152126987E+01  0.22577393359E+02  0.00000000000E+00 0.  1.
         -1    1    1    2    0  501  0.21174455964E+02 -0.71886407182E+01 -0.31382516757E+02  0.38534354785E+02  0.00000000000E+00 0. -1.
</event>
<event>
 4    1  0.6629728E+001  0.3445484E+02  0.7546771E-02  0.1384437E+00
          2   -1    0    0  502    0  0.00000000000E+00  0.00000000000E+00  0.90550575207E+02  0.90550575207E+02  0.00000000000E+00 0.  1.
         -2   -1    0    0    0  501 -0.00000000000E+00 -0.00000000000E+00 -0.13640419149E+02  0.13640419149E+02  0.00000000000E+00 0. -1.
          1    1    1    2  502    0  0.79710162295E+01 -0.33520124585E+02  0.48726140878E+02  0.59677237342E+02  0.00000000000E+00 0.  1.
         -1    1    1    2    0  501 -0.79710162295E+01  0.33520124585E+02  0.28184015180E+02  0.44513757015E+02  0.00000000000E+00 0. -1.
</event>
<event>
 4    1  0.6629728E+001  0.1307923E+03  0.7546771E-02  0.1119111E+00
          2   -1    0    0  502    0  0.00000000000E+00  0.00000000000E+00  0.63528985727E+03  0.63528985727E+03  0.00000000000E+00 0.  1.
         -2   -1    0    0    0  501 -0.00000000000E+00 -0.00000000000E+00 -0.29216098563E+02  0.29216098563E+02  0.00000000000E+00 0. -1.
          1    1    1    2  502    0  0.12973244126E+03  0.16616628543E+02  0.21004075915E+03  0.24743431283E+03  0.00000000000E+00 0. -1.
         -1    1    1    2    0  501 -0.12973244126E+03 -0.16616628543E+02  0.39603299955E+03  0.41707164300E+03  0.00000000000E+00 0.  1.
</event>
<event>
 4    1  0.6629728E+001  0.2484295E+02  0.7546771E-02  0.1470568E+00
          2   -1    0    0  502    0  0.00000000000E+00  0.00000000000E+00  0.31025014887E+02  0.31025014887E+02  0.00000000000E+00 0. -1.
         -2   -1    0    0    0  501 -0.00000000000E+00 -0.00000000000E+00 -0.19892736327E+02  0.19892736327E+02  0.00000000000E+00 0.  1.
          1    1    1    2  502    0 -0.12696083167E+02  0.21353729154E+02  0.55530099778E+01  0.25456005114E+02  0.00000000000E+00 0. -1.
         -1    1    1    2    0  501  0.12696083167E+02 -0.21353729154E+02  0.55792685819E+01  0.25461746100E+02  0.00000000000E+00 0.  1.
</event>
<event>
 4    1  0.6629728E+001  0.2084306E+02  0.7546771E-02  0.1521517E+00
          2   -1    0    0  502    0  0.00000000000E+00  0.00000000000E+00  0.24909935811E+03  0.24909935811E+03  0.00000000000E+00 0. -1.
         -2   -1    0    0    0  501 -0.00000000000E+00 -0.00000000000E+00 -0.24564822654E+01  0.24564822654E+01  0.00000000000E+00 0.  1.
          1    1    1    2  502    0  0.15673106924E+02  0.13739972031E+02  0.55583817832E+02  0.59363237082E+02  0.00000000000E+00 0.  1.
         -1    1    1    2    0  501 -0.15673106924E+02 -0.13739972031E+02  0.19105905802E+03  0.19219260330E+03  0.00000000000E+00 0. -1.
</event>
<event>
 4    1  0.6629728E+001  0.2516577E+02  0.7546771E-02  0.1466957E+00
          2   -1    0    0  502    0  0.00000000000E+00  0.00000000000E+00  0.87006087394E+03  0.87006087394E+03  0.00000000000E+00 0. -1.
         -2   -1    0    0    0  501 -0.00000000000E+00 -0.00000000000E+00 -0.88477502546E+00  0.88477502546E+00  0.00000000000E+00 0.  1.
          1    1    1    2  502    0  0.17383610132E+02  0.18196873769E+02  0.25122009735E+03  0.25247743152E+03  0.00000000000E+00 0.  1.
         -1    1    1    2    0  501 -0.17383610132E+02 -0.18196873769E+02  0.61795600157E+03  0.61846821744E+03  0.00000000000E+00 0. -1.
</event>
<event>
 4    1  0.6629728E+001  0.2433209E+02  0.7546771E-02  0.1476416E+00
          2   -1    0    0  502    0  0.00000000000E+00  0.00000000000E+00  0.14777984457E+02  0.14777984457E+02  0.00000000000E+00 0.  1.
         -2   -1    0    0    0  501 -0.00000000000E+00 -0.00000000000E+00 -0.43173819291E+02  0.43173819291E+02  0.00000000000E+00 0. -1.
          1    1    1    2  502    0 -0.17791999849E+02  0.16598050398E+02 -0.64199980352E+01  0.25164795060E+02  0.00000000000E+00 0.  1.
         -1    1    1    2    0  501  0.17791999849E+02 -0.16598050398E+02 -0.21975836799E+02  0.32787008688E+02  0.00000000000E+00 0. -1.
</event>
<event>
 4    1  0.6629728E+001  0.3407933E+02  0.7546771E-02  0.1387154E+00
          2   -1    0    0  502    0  0.00000000000E+00  0.00000000000E+00  0.34673976446E+04  0.34673976446E+04  0.00000000000E+00 0. -1.
         -2   -1    0    0    0  501 -0.00000000000E+00 -0.00000000000E+00 -0.37476735643E+00  0.37476735643E+00  0.00000000000E+00 0.  1.
          1    1    1    2  502    0 -0.14619658755E+02  0.30784187499E+02  0.11683369359E+04  0.11688338618E+04  0.00000000000E+00 0.  1.
         -1    1    1    2    0  501  0.14619658755E+02 -0.30784187499E+02  0.22986859413E+04  0.22989385502E+04  0.00000000000E+00 0. -1.
</event>
<event>
 4    1  0.6629728E+001  0.2211866E+02  0.7546771E-02  0.1503872E+00
          2   -1    0    0  502    0  0.00000000000E+00  0.00000000000E+00  0.89394519181E+02  0.89394519181E+02  0.00000000000E+00 0.  1.
         -2   -1    0    0    0  501 -0.00000000000E+00 -0.00000000000E+00 -0.74347108460E+01  0.74347108460E+01  0.00000000000E+00 0. -1.
          1    1    1    2  502    0 -0.13813755087E+02 -0.17274699021E+02  0.16109197657E+02  0.27363137704E+02  0.00000000000E+00 0. -1.
         -1    1    1    2    0  501  0.13813755087E+02  0.17274699021E+02  0.65850610678E+02  0.69466092323E+02  0.00000000000E+00 0.  1.
</event>
<event>
 4    1  0.6629728E+001  0.3208363E+02  0.7546771E-02  0.1402314E+00
          2   -1    0    0  502    0  0.00000000000E+00  0.00000000000E+00  0.60930228766E+03  0.60930228766E+03  0.00000000000E+00 0.  1.
         -2   -1    0    0    0  501 -0.00000000000E+00 -0.00000000000E+00 -0.16979147528E+01  0.16979147528E+01  0.00000000000E+00 0. -1.
          1    1    1    2  502    0  0.32036606208E+02 -0.17363474797E+01  0.28217588699E+03  0.28399399684E+03  0.00000000000E+00 0. -1.
         -1    1    1    2    0  501 -0.32036606208E+02  0.17363474797E+01  0.32542848591E+03  0.32700620557E+03  0.00000000000E+00 0.  1.
</event>
<event>
 4    1  0.6629728E+001  0.2251155E+02  0.7546771E-02  0.1498724E+00
          2   -1    0    0  502    0  0.00000000000E+00  0.00000000000E+00  0.57128177697E+01  0.57128177697E+01  0.00000000000E+00 0. -1.
         -2   -1    0    0    0  501 -0.00000000000E+00 -0.00000000000E+00 -0.92901823734E+02  0.92901823734E+02  0.00000000000E+00 0.  1.
          1    1    1    2  502    0 -0.39852145571E+01  0.22155993177E+02 -0.54071300957E+02  0.58570261703E+02  0.00000000000E+00 0.  1.
         -1    1    1    2    0  501  0.39852145571E+01 -0.22155993177E+02 -0.33117705007E+02  0.40044379801E+02  0.00000000000E+00 0. -1.
</event>
<event>
 4    1  0.6629728E+001  0.2199374E+02  0.7546771E-02  0.1505536E+00
          2   -1    0    0  502    0  0.00000000000E+00  0.00000000000E+00  0.31517520611E+03  0.31517520611E+03  0.00000000000E+00 0. -1.
         -2   -1    0    0    0  501 -0.00000000000E+00 -0.00000000000E+00 -0.20702653148E+01  0.20702653148E+01  0.00000000000E+00 0.  1.
          1    1    1    2  502    0  0.13011476379E+02  0.17732060189E+02  0.23722513065E+03  0.23824249639E+03  0.00000000000E+00 0. -1.
         -1    1    1    2    0  501 -0.13011476379E+02 -0.17732060189E+02  0.75879810151E+02  0.79002975037E+02  0.00000000000E+00 0.  1.
</event>
<event>
 4    1  0.6629728E+001  0.2468659E+02  0.7546771E-02  0.1472340E+00
          2   -1    0    0  502    0  0.00000000000E+00  0.00000000000E+00  0.46162766321E+03  0.46162766321E+03  0.00000000000E+00 0.  1.
         -2   -1    0    0    0  501 -0.00000000000E+00 -0.00000000000E+00 -0.23034530783E+01  0.23034530783E+01  0.00000000000E+00 0. -1.
          1    1    1    2  502    0 -0.29849762368E+01  0.24505461351E+02  0.78106237072E+02  0.81914662843E+02  0.00000000000E+00 0. -1.
         -1    1    1    2    0  501  0.29849762368E+01 -0.24505461351E+02  0.38121797306E+03  0.38201645344E+03  0.00000000000E+00 0.  1.
</event>
<event>
 4    1  0.6629728E+001  0.3031662E+02  0.7546771E-02  0.1416865E+00
          2   -1    0    0  502    0  0.00000000000E+00  0.00000000000E+00  0.64394459807E+03  0.64394459807E+03  0.00000000000E+00 0. -1.
         -2   -1    0    0    0  501 -0.00000000000E+00 -0.00000000000E+00 -0.17286445365E+01  0.17286445365E+01  0.00000000000E+00 0.  1.
          1    1    1    2  502    0 -0.29783665041E+02 -0.56595563913E+01  0.18631507433E+03  0.18876547408E+03  0.00000000000E+00 0.  1.
         -1    1    1    2    0  501  0.29783665041E+02  0.56595563913E+01  0.45590087920E+03  0.45690776852E+03  0.00000000000E+00 0. -1.
</event>
<event>
 4    1  0.6629728E+001  0.3129209E+02  0.7546771E-02  0.1408691E+00
          2   -1    0    0  502    0  0.00000000000E+00  0.00000000000E+00  0.11342637436E+04  0.11342637436E+04  0.00000000000E+00 0.  1.
         -2   -1    0    0    0  501 -0.00000000000E+00 -0.00000000000E+00 -0.10466397214E+01  0.10466397214E+01  0.00000000000E+00 0. -1.
          1    1    1    2  502    0  0.30530049623E+01 -0.31142800402E+02  0.80419955383E+03  0.80480812448E+03  0.00000000000E+00 0.  1.
         -1    1    1    2    0  501 -0.30530049623E+01  0.31142800402E+02  0.32901755005E+03  0.33050225884E+03  0.00000000000E+00 0. -1.
</event>
<event>
 4    1  0.6629728E+001  0.3199193E+02  0.7546771E-02  0.1403041E+00
          2   -1    0    0  502    0  0.00000000000E+00  0.00000000000E+00  0.17227161971E+04  0.17227161971E+04  0.00000000000E+00 0.  1.
         -2   -1    0    0    0  501 -0.00000000000E+00 -0.00000000000E+00 -0.60888470901E+00  0.60888470901E+00  0.00000000000E+00 0. -1.
          1    1    1    2  502    0  0.31869854634E+02  0.27921617400E+01  0.99527501311E+03  0.99578905172E+03  0.00000000000E+00 0.  1.
         -1    1    1    2    0  501 -0.31869854634E+02 -0.27921617400E+01  0.72683229929E+03  0.72753603010E+03  0.00000000000E+00 0. -1.
</event>
<event>
 4    1  0.6629728E+001  0.2023407E+02  0.7546771E-02  0.1530487E+00
          2   -1    0    0  502    0  0.00000000000E+00  0.00000000000E+00  0.64354550800E+01  0.64354550800E+01  0.00000000000E+00 0.  1.
         -2   -1    0    0    0  501 -0.00000000000E+00 -0.00000000000E+00 -0.95767215910E+02  0.95767215910E+02  0.00000000000E+00 0. -1.
          1    1    1    2  502    0 -0.18513329619E+02  0.81654200829E+01 -0.15058362315E+02  0.25222445050E+02  0.00000000000E+00 0.  1.
         -1    1    1    2    0  501  0.18513329619E+02 -0.81654200829E+01 -0.74273398515E+02  0.76980225940E+02  0.00000000000E+00 0. -1.
</event>
<event>
 4    1  0.6629728E+001  0.2382586E+02  0.7546771E-02  0.1482380E+00
          2   -1    0    0  502    0  0.00000000000E+00  0.00000000000E+00  0.69027663790E+03  0.69027663790E+03  0.00000000000E+00 0. -1.
         -2   -1    0    0    0  501 -0.00000000000E+00 -0.00000000000E+00 -0.23078421565E+01  0.23078421565E+01  0.00000000000E+00 0.  1.
          1    1    1    2  502    0  0.63928219951E+01 -0.22952199572E+02  0.66160183755E+02  0.70319567354E+02  0.00000000000E+00 0.  1.
         -1    1    1    2    0  501 -0.63928219951E+01  0.22952199572E+02  0.62180861199E+03  0.62226491270E+03  0.00000000000E+00 0. -1.
</event>
<event>
 4    1  0.6629728E+001  0.2101008E+02  0.7546771E-02  0.1519121E+00
          2   -1    0    0  502    0  0.00000000000E+00  0.00000000000E+00  0.74016264047E+02  0.74016264047E+02  0.00000000000E+00 0. -1.
         -2   -1    0    0    0  501 -0.00000000000E+00 -0.00000000000E+00 -0.27729343139E+02  0.27729343139E+02  0.00000000000E+00 0.  1.
          1    1    1    2  502    0 -0.14746870337E+02 -0.14965063375E+02 -0.21927825237E+02  0.30368615809E+02  0.00000000000E+00 0.  1.
         -1    1    1    2    0  501  0.14746870337E+02  0.14965063375E+02  0.68214746144E+02  0.71376991377E+02  0.00000000000E+00 0. -1.
</event>
<event>
 4    1  0.6629728E+001  0.3912686E+02  0.7546771E-02  0.1353680E+00
          2   -1    0    0  502    0  0.00000000000E+00  0.00000000000E+00  0.30730291590E+03  0.30730291590E+03  0.00000000000E+00 0. -1.
         -2   -1    0    0    0  501 -0.00000000000E+00 -0.00000000000E+00 -0.59374133426E+01  0.59374133426E+01  0.00000000000E+00 0.  1.
          1    1    1    2  502    0  0.32691790060E+02 -0.21497868816E+02  0.21351717743E+03  0.21707256059E+03  0.00000000000E+00 0. -1.
         -1    1    1    2    0  501 -0.32691790060E+02  0.21497868816E+02  0.87848325120E+02  0.96167768651E+02  0.00000000000E+00 0.  1.
</event>
<event>
 4    1  0.6629728E+001  0.2858922E+02  0.7546771E-02  0.1432266E+00
          2   -1    0    0  502    0  0.00000000000E+00  0.00000000000E+00  0.93711536005E+02  0.93711536005E+02  0.00000000000E+00 0. -1.
         -2   -1    0    0    0  501 -0.00000000000E+00 -0.00000000000E+00 -0.10621590027E+02  0.10621590027E+02  0.00000000000E+00 0.  1.
          1    1    1    2  502    0  0.64790556754E+01  0.27845379331E+02  0.63606624252E+02  0.69736260018E+02  0.00000000000E+00 0. -1.
         -1    1    1    2    0  501 -0.64790556754E+01 -0.27845379331E+02  0.19483321726E+02  0.34596866014E+02  0.00000000000E+00 0.  1.
</event>
<event>
 4    1  0.6629728E+001  0.2301796E+02  0.7546771E-02  0.1492273E+00
          2   -1    0    0  502    0  0.00000000000E+00  0.00000000000E+00  0.13883578590E+04  0.13883578590E+04  0.00000000000E+00 0. -1.
         -2   -1    0    0    0  501 -0.00000000000E+00 -0.00000000000E+00 -0.39010103695E+00  0.39010103695E+00  0.00000000000E+00 0.  1.
          1    1    1    2  502    0  0.11069738494E+01 -0.22991322919E+02  0.79636204201E+03  0.79669462674E+03  0.00000000000E+00 0.  1.
         -1    1    1    2    0  501 -0.11069738494E+01  0.22991322919E+02  0.59160571591E+03  0.59205333325E+03  0.00000000000E+00 0. -1.
</event>
<event>
 4    1  0.6629728E+001  0.2107711E+02  0.7546771E-02  0.1518167E+00
          2   -1    0    0  502    0  0.00000000000E+00  0.00000000000E+00  0.70984608012E+03  0.70984608012E+03  0.00000000000E+00 0. -1.
         -2   -1    0    0    0  501 -0.00000000000E+00 -0.00000000000E+00 -0.71743818363E+00  0.71743818363E+00  0.00000000000E+00 0.  1.
          1    1    1    2  502    0 -0.19385462678E+02  0.82733655300E+01  0.22761163355E+03  0.22858543363E+03  0.00000000000E+00 0.  1.
         -1    1    1    2    0  501  0.19385462678E+02 -0.82733655300E+01  0.48151700838E+03  0.48197808467E+03  0.00000000000E+00 0. -1.
</event>
<event>
 4    1  0.6629728E+001  0.3168405E+02  0.7546771E-02  0.1405505E+00
          2   -1    0    0  502    0  0.00000000000E+00  0.00000000000E+00  0.48523936519E+01  0.48523936519E+01  0.00000000000E+00 0.  1.
         -2   -1    0    0    0  501 -0.00000000000E+00 -0.00000000000E+00 -0.27670470664E+03  0.27670470664E+03  0.00000000000E+00 0. -1.
          1    1    1    2  502    0 -0.31682633865E+02  0.29995296477E+00 -0.65209375958E+02  0.72499254984E+02  0.00000000000E+00 0.  1.
         -1    1    1    2    0  501  0.31682633865E+02 -0.29995296477E+00 -0.20664293703E+03  0.20905784531E+03  0.00000000000E+00 0. -1.
</event>
<event>
 4    1  0.6629728E+001  0.2799577E+02  0.7546771E-02  0.1437854E+00
          2   -1    0    0  502    0  0.00000000000E+00  0.00000000000E+00  0.52579271251E+03  0.52579271251E+03  0.00000000000E+00 0. -1.
         -2   -1    0    0    0  501 -0.00000000000E+00 -0.00000000000E+00 -0.16233063603E+01  0.16233063603E+01  0.00000000000E+00 0.  1.
          1    1    1    2  502    0  0.27936687495E+02  0.18178277108E+01  0.33747543094E+03  0.33863465489E+03  0.00000000000E+00 0. -1.
         -1    1    1    2    0  501 -0.27936687495E+02 -0.18178277108E+01  0.18669397521E+03  0.18878136398E+03  0.00000000000E+00 0.  1.
</event>
<event>
 4    1  0.6629728E+001  0.3470802E+02  0.7546771E-02  0.1382628E+00
          2   -1    0    0  502    0  0.00000000000E+00  0.00000000000E+00  0.24938083147E+02  0.24938083147E+02  0.00000000000E+00 0. -1.
         -2   -1    0    0    0  501 -0.00000000000E+00 -0.00000000000E+00 -0.51267105419E+02  0.51267105419E+02  0.00000000000E+00 0.  1.
          1    1    1    2  502    0 -0.97192658014E+01  0.33319400841E+02 -0.22322469678E+02  0.41266684537E+02  0.00000000000E+00 0. -1.
         -1    1    1    2    0  501  0.97192658014E+01 -0.33319400841E+02 -0.40065525936E+01  0.34938504030E+02  0.00000000000E+00 0.  1.
</event>
<event>
 4    1  0.6629728E+001  0.2606613E+02  0.7546771E-02  0.1457221E+00
          2   -1    0    0  502    0  0.00000000000E+00  0.00000000000E+00  0.95842585863E+03  0.95842585863E+03  0.00000000000E+00 0. -1.
         -2   -1    0    0    0  501 -0.00000000000E+00 -0.00000000000E+00 -0.74779085228E+00  0.74779085228E+00  0.00000000000E+00 0.  1.
          1    1    1    2  502    0  0.45401038196E+01 -0.25667692841E+02  0.36949022995E+03  0.37040852181E+03  0.00000000000E+00 0.  1.
         -1    1    1    2    0  501 -0.45401038196E+01  0.25667692841E+02  0.58818783782E+03  0.58876512767E+03  0.00000000000E+00 0. -1.
</event>
<event>
 4    1  0.6629728E+001  0.2183244E+02  0.7546771E-02  0.1507704E+00
          2   -1    0    0  502    0  0.00000000000E+00  0.00000000000E+00  0.19708526517E+04  0.19708526517E+04  0.00000000000E+00 0. -1.
         -2   -1    0    0    0  501 -0.00000000000E+00 -0.00000000000E+00 -0.24193641467E+00  0.24193641467E+00  0.00000000000E+00 0.  1.
          1    1    1    2  502    0 -0.12061608902E+02 -0.18198154646E+02  0.10036821280E+04  0.10039195532E+04  0.00000000000E+00 0.  1.
         -1    1    1    2    0  501  0.12061608902E+02  0.18198154646E+02  0.96692858727E+03  0.96717503489E+03  0.00000000000E+00 0. -1.
</event>
<event>
 4    1  0.6629728E+001  0.2226519E+02  0.7546771E-02  0.1501937E+00
          2   -1    0    0  502    0  0.00000000000E+00  0.00000000000E+00  0.15972763792E+04  0.15972763792E+04  0.00000000000E+00 0. -1.
         -2   -1    0    0    0  501 -0.00000000000E+00 -0.00000000000E+00 -0.38828963816E+00  0.38828963816E+00  0.00000000000E+00 0.  1.
          1    1    1    2  502    0 -0.75172091053E+01 -0.20957816963E+02  0.11563059001E+04  0.11565202433E+04  0.00000000000E+00 0. -1.
         -1    1    1    2    0  501  0.75172091053E+01  0.20957816963E+02  0.44058218945E+03  0.44114442554E+03  0.00000000000E+00 0.  1.
</event>
<event>
 4    1  0.6629728E+001  0.6820546E+02  0.7546771E-02  0.1234243E+00
          2   -1    0    0  502    0  0.00000000000E+00  0.00000000000E+00  0.73428076345E+01  0.73428076345E+01  0.00000000000E+00 0.  1.
         -2   -1    0    0    0  501 -0.00000000000E+00 -0.00000000000E+00 -0.63808359308E+03  0.63808359308E+03  0.00000000000E+00 0. -1.
          1    1    1    2  502    0  0.24230272476E+02 -0.63756405215E+02 -0.28814788335E+03  0.29611009437E+03  0.00000000000E+00 0.  1.
         -1    1    1    2    0  501 -0.24230272476E+02  0.63756405215E+02 -0.34259290209E+03  0.34931630634E+03  0.00000000000E+00 0. -1.
</event>
<event>
 4    1  0.6629728E+001  0.2218565E+02  0.7546771E-02  0.1502985E+00
          2   -1    0    0  502    0  0.00000000000E+00  0.00000000000E+00  0.23072552840E+01  0.23072552840E+01  0.00000000000E+00 0.  1.
         -2   -1    0    0    0  501 -0.00000000000E+00 -0.00000000000E+00 -0.21431337102E+03  0.21431337102E+03  0.00000000000E+00 0. -1.
          1    1    1    2  502    0  0.62600305133E+01  0.21284153603E+02 -0.11334561768E+03  0.11549645979E+03  0.00000000000E+00 0. -1.
         -1    1    1    2    0  501 -0.62600305133E+01 -0.21284153603E+02 -0.98660498057E+02  0.10112416652E+03  0.00000000000E+00 0.  1.
</event>
<event>
 4    1  0.6629728E+001  0.2361460E+02  0.7546771E-02  0.1484921E+00
          2   -1    0    0  502    0  0.00000000000E+00  0.00000000000E+00  0.35581038600E+01  0.35581038600E+01  0.00000000000E+00 0.  1.
         -2   -1    0    0    0  501 -0.00000000000E+00 -0.00000000000E+00 -0.15689858464E+03  0.15689858464E+03  0.00000000000E+00 0. -1.
          1    1    1    2  502    0  0.13694938641E+02  0.19237929617E+02 -0.74013504826E+02  0.77689434140E+02  0.00000000000E+00 0.  1.
         -1    1    1    2    0  501 -0.13694938641E+02 -0.19237929617E+02 -0.79326975958E+02  0.82767254364E+02  0.00000000000E+00 0. -1.
</event>
<event>
 4    1  0.6629728E+001  0.2763611E+02  0.7546771E-02  0.1441321E+00
          2   -1    0    0  502    0  0.00000000000E+00  0.00000000000E+00  0.12222282414E+04  0.12222282414E+04  0.00000000000E+00 0. -1.
         -2   -1    0    0    0  501 -0.00000000000E+00 -0.00000000000E+00 -0.89262244912E+00  0.89262244912E+00  0.00000000000E+00 0.  1.
          1    1    1    2  502    0 -0.10144408705E+02  0.25706920809E+02  0.94560103970E+03  0.94600479972E+03  0.00000000000E+00 0. -1.
         -1    1    1    2    0  501  0.10144408705E+02 -0.25706920809E+02  0.27573457921E+03  0.27711606409E+03  0.00000000000E+00 0.  1.
</event>
<event>
 4    1  0.6629728E+001  0.5146393E+02  0.7546771E-02  0.1291947E+00
          2   -1    0    0  502    0  0.00000000000E+00  0.00000000000E+00  0.96330057606E+03  0.96330057606E+03  0.00000000000E+00 0.  1.
         -2   -1    0    0    0  501 -0.00000000000E+00 -0.00000000000E+00 -0.27495399515E+01  0.27495399515E+01  0.00000000000E+00 0. -1.
          1    1    1    2  502    0  0.29594773066E+02  0.42103275219E+02  0.47735177575E+03  0.48011795862E+03  0.00000000000E+00 0.  1.
         -1    1    1    2    0  501 -0.29594773066E+02 -0.42103275219E+02  0.48319926036E+03  0.48593215739E+03  0.00000000000E+00 0. -1.
</event>
<event>
 4    1  0.6629728E+001  0.6083979E+02  0.7546771E-02  0.1257006E+00
          2   -1    0    0  502    0  0.00000000000E+00  0.00000000000E+00  0.62588365770E+01  0.62588365770E+01  0.00000000000E+00 0. -1.
         -2   -1    0    0    0  501 -0.00000000000E+00 -0.00000000000E+00 -0.63052209287E+03  0.63052209287E+03  0.00000000000E+00 0.  1.
          1    1    1    2  502    0 -0.30985374559E+02  0.52358249818E+02 -0.39143973089E+03  0.39613954951E+03  0.00000000000E+00 0. -1.
         -1    1    1    2    0  501  0.30985374559E+02 -0.52358249818E+02 -0.23282352540E+03  0.24064137994E+03  0.00000000000E+00 0.  1.
</event>
<event>
 4    1  0.6629728E+001  0.3223027E+02  0.7546771E-02  0.1401156E+00
          2   -1    0    0  502    0  0.00000000000E+00  0.00000000000E+00  0.43167504197E+03  0.43167504197E+03  0.00000000000E+00 0. -1.
         -2   -1    0    0    0  501 -0.00000000000E+00 -0.00000000000E+00 -0.33512189091E+01  0.33512189091E+01  0.00000000000E+00 0.  1.
          1    1    1    2  502    0 -0.32201337637E+02  0.13654538818E+01  0.32965452820E+03  0.33122635549E+03  0.00000000000E+00 0. -1.
         -1    1    1    2    0  501  0.32201337637E+02 -0.13654538818E+01  0.98669294857E+02  0.10379990538E+03  0.00000000000E+00 0.  1.
</event>
<event>
 4    1  0.6629728E+001  0.2750826E+02  0.7546771E-02  0.1442568E+00
          2   -1    0    0  502    0  0.00000000000E+00  0.00000000000E+00  0.11984011024E+03  0.11984011024E+03  0.00000000000E+00 0.  1.
         -2   -1    0    0    0  501 -0.00000000000E+00 -0.00000000000E+00 -0.64400477961E+01  0.64400477961E+01  0.00000000000E+00 0. -1.
          1    1    1    2  502    0 -0.75819197904E+01 -0.26442744041E+02  0.47876502728E+02  0.55216516855E+02  0.00000000000E+00 0.  1.
         -1    1    1    2    0  501  0.75819197904E+01  0.26442744041E+02  0.65523559714E+02  0.71063641180E+02  0.00000000000E+00 0. -1.
</event>
<event>
 4    1  0.6629728E+001  0.2183207E+02  0.7546771E-02  0.1507709E+00
          2   -1    0    0  502    0  0.00000000000E+00  0.00000000000E+00  0.43494498134E+03  0.43494498134E+03  0.00000000000E+00 0. -1.
         -2   -1    0    0    0  501 -0.00000000000E+00 -0.00000000000E+00 -0.15461046456E+01  0.15461046456E+01  0.00000000000E+00 0.  1.
          1    1    1    2  502    0  0.15019134933E+02 -0.15845027908E+02  0.98925378340E+02  0.10130582315E+03  0.00000000000E+00 0.  1.
         -1    1    1    2    0  501 -0.15019134933E+02  0.15845027908E+02  0.33447349835E+03  0.33518526284E+03  0.00000000000E+00 0. -1.
</event>
<event>
 4    1  0.6629728E+001  0.2749923E+02  0.7546771E-02  0.1442657E+00
          2   -1    0    0  502    0  0.00000000000E+00  0.00000000000E+00  0.42242347643E+03  0.42242347643E+03  0.00000000000E+00 0. -1.
         -2   -1    0    0    0  501 -0.00000000000E+00 -0.00000000000E+00 -0.21527330070E+01  0.21527330070E+01  0.00000000000E+00 0.  1.
          1    1    1    2  502    0 -0.44024307859E+01 -0.27144541647E+02  0.12301382515E+03  0.12605002466E+03  0.00000000000E+00 0.  1.
         -1    1    1    2    0  501  0.44024307859E+01  0.27144541647E+02  0.29725691827E+03  0.29852618478E+03  0.00000000000E+00 0. -1.
</event>
<event>
 4    1  0.6629728E+001  0.2056241E+02  0.7546771E-02  0.1525605E+00
          2   -1    0    0  502    0  0.00000000000E+00  0.00000000000E+00  0.82776926367E+03  0.82776926367E+03  0.00000000000E+00 0.  1.
         -2   -1    0    0    0  501 -0.00000000000E+00 -0.00000000000E+00 -0.58655093835E+00  0.58655093835E+00  0.00000000000E+00 0. -1.
          1    1    1    2  502    0  0.16700445161E+02 -0.11996152402E+02  0.26473423392E+03  0.26553159350E+03  0.00000000000E+00 0. -1.
         -1    1    1    2    0  501 -0.16700445161E+02  0.11996152402E+02  0.56244847882E+03  0.56282422111E+03  0.00000000000E+00 0.  1.
</event>
<event>
 4    1  0.6629728E+001  0.2570161E+02  0.7546771E-02  0.1461105E+00
          2   -1    0    0  502    0  0.00000000000E+00  0.00000000000E+00  0.11466728480E+04  0.11466728480E+04  0.00000000000E+00 0.  1.
         -2   -1    0    0    0  501 -0.00000000000E+00 -0.00000000000E+00 -0.92294089962E+00  0.92294089962E+00  0.00000000000E+00 0. -1.
          1    1    1    2  502    0  0.23270393962E+02  0.10911536895E+02  0.22111127073E+03  0.22260001553E+03  0.00000000000E+00 0. -1.
         -1    1    1    2    0  501 -0.23270393962E+02 -0.10911536895E+02  0.92463863636E+03  0.92499577335E+03  0.00000000000E+00 0.  1.
</event>
<event>
 4    1  0.6629728E+001  0.2619417E+02  0.7546771E-02  0.1455875E+00
          2   -1    0    0  502    0  0.00000000000E+00  0.00000000000E+00  0.12427721976E+02  0.12427721976E+02  0.00000000000E+00 0.  1.
         -2   -1    0    0    0  501 -0.00000000000E+00 -0.00000000000E+00 -0.55423660382E+02  0.55423660382E+02  0.00000000000E+00 0. -1.
          1    1    1    2  502    0  0.48664757133E+01  0.25738142873E+02 -0.23604358678E+02  0.35260464164E+02  0.00000000000E+00 0. -1.
         -1    1    1    2    0  501 -0.48664757133E+01 -0.25738142873E+02 -0.19391579728E+02  0.32590918195E+02  0.00000000000E+00 0.  1.
</event>
<event>
 4    1  0.6629728E+001  0.2237267E+02  0.7546771E-02  0.1500529E+00
          2   -1    0    0  502    0  0.00000000000E+00  0.00000000000E+00  0.70672814474E+03  0.70672814474E+03  0.00000000000E+00 0. -1.
         -2   -1    0    0    0  501 -0.00000000000E+00 -0.00000000000E+00 -0.78045055755E+00  0.78045055755E+00  0.00000000000E+00 0.  1.
          1    1    1    2  502    0  0.20582962004E+02 -0.87680212739E+01  0.46057452087E+03  0.46111758348E+03  0.00000000000E+00 0. -1.
         -1    1    1    2    0  501 -0.20582962004E+02  0.87680212739E+01  0.24537317331E+03  0.24639101182E+03  0.00000000000E+00 0.  1.
</event>
<event>
 4    1  0.6629728E+001  0.2068015E+02  0.7546771E-02  0.1523881E+00
          2   -1    0    0  502    0  0.00000000000E+00  0.00000000000E+00  0.78774528821E+03  0.78774528821E+03  0.00000000000E+00 0.  1.
         -2   -1    0    0    0  501 -0.00000000000E+00 -0.00000000000E+00 -0.56750684603E+00  0.56750684603E+00  0.00000000000E+00 0. -1.
          1    1    1    2  502    0  0.19965146722E+02 -0.53908816179E+01  0.31151761954E+03  0.31220329270E+03  0.00000000000E+00 0. -1.
         -1    1    1    2    0  501 -0.19965146722E+02  0.53908816179E+01  0.47566016183E+03  0.47610950236E+03  0.00000000000E+00 0.  1.
</event>
<event>
 4    1  0.6629728E+001  0.2813890E+02  0.7546771E-02  0.1436491E+00
          2   -1    0    0  502    0  0.00000000000E+00  0.00000000000E+00  0.10092182875E+04  0.10092182875E+04  0.00000000000E+00 0.  1.
         -2   -1    0    0    0  501 -0.00000000000E+00 -0.00000000000E+00 -0.81122716456E+00  0.81122716456E+00  0.00000000000E+00 0. -1.
          1    1    1    2  502    0 -0.18000275193E+02 -0.21628403022E+02  0.59575756178E+03  0.59642172172E+03  0.00000000000E+00 0. -1.
         -1    1    1    2    0  501  0.18000275193E+02  0.21628403022E+02  0.41264949851E+03  0.41360779290E+03  0.00000000000E+00 0.  1.
</event>
<event>
 4    1  0.6629728E+001  0.2472423E+02  0.7546771E-02  0.1471912E+00
          2   -1    0    0  502    0  0.00000000000E+00  0.00000000000E+00  0.10214161168E+02  0.10214161168E+02  0.00000000000E+00 0. -1.
         -2   -1    0    0    0  501 -0.00000000000E+00 -0.00000000000E+00 -0.22377435071E+03  0.22377435071E+03  0.00000000000E+00 0.  1.
          1    1    1    2  502    0  0.18508845167E+02  0.16392375638E+02 -0.20691489641E+03  0.20838680785E+03  0.00000000000E+00 0.  1.
         -1    1    1    2    0  501 -0.18508845167E+02 -0.16392375638E+02 -0.66452931332E+01  0.25601704031E+02  0.00000000000E+00 0. -1.
</event>
<event>
 4    1  0.6629728E+001  0.6649800E+02  0.7546771E-02  0.1239221E+00
          2   -1    0    0  502    0  0.00000000000E+00  0.00000000000E+00  0.98257795795E+01  0.98257795795E+01  0.00000000000E+00 0. -1.
         -2   -1    0    0    0  501 -0.00000000000E+00 -0.00000000000E+00 -0.48453398660E+03  0.48453398660E+03  0.00000000000E+00 0.  1.
          1    1    1    2  502    0 -0.35672736766E+02  0.56119873180E+02 -0.17140197758E+03  0.18384945535E+03  0.00000000000E+00 0. -1.
         -1    1    1    2    0  501  0.35672736766E+02 -0.56119873180E+02 -0.30330622944E+03  0.31051031083E+03  0.00000000000E+00 0.  1.
</event>
<event>
 4    1  0.6629728E+001  0.3224029E+02  0.7546771E-02  0.1401077E+00
          2   -1    0    0  502    0  0.00000000000E+00  0.00000000000E+00  0.15344850047E+03  0.15344850047E+03  0.00000000000E+00 0.  1.
         -2   -1    0    0    0  501 -0.00000000000E+00 -0.00000000000E+00 -0.17630221612E+02  0.17630221612E+02  0.00000000000E+00 0. -1.
          1    1    1    2  502    0 -0.32112492103E+02 -0.28678057220E+01  0.13503340598E+03  0.13882887736E+03  0.00000000000E+00 0.  1.
         -1    1    1    2    0  501  0.32112492103E+02  0.28678057220E+01  0.78487287274E+00  0.32249844715E+02  0.00000000000E+00 0. -1.
</event>
<event>
 4    1  0.6629728E+001  0.3549181E+02  0.7546771E-02  0.1377138E+00
          2   -1    0    0  502    0  0.00000000000E+00  0.00000000000E+00  0.16334269233E+03  0.16334269233E+03  0.00000000000E+00 0. -1.
         -2   -1    0    0    0  501 -0.00000000000E+00 -0.00000000000E+00 -0.78451639554E+01  0.78451639554E+01  0.00000000000E+00 0.  1.
          1    1    1    2  502    0  0.34488517314E+02  0.83791732126E+01  0.88908124295E+02  0.95730470259E+02  0.00000000000E+00 0.  1.
         -1    1    1    2    0  501 -0.34488517314E+02 -0.83791732126E+01  0.66589404078E+02  0.75457386025E+02  0.00000000000E+00 0. -1.
</event>
<event>
 4    1  0.6629728E+001  0.2217478E+02  0.7546771E-02  0.1503129E+00
          2   -1    0    0  502    0  0.00000000000E+00  0.00000000000E+00  0.86211147815E+02  0.86211147815E+02  0.00000000000E+00 0.  1.
         -2   -1    0    0    0  501 -0.00000000000E+00 -0.00000000000E+00 -0.10097984400E+02  0.10097984400E+02  0.00000000000E+00 0. -1.
          1    1    1    2  502    0 -0.90851131834E+01  0.20228239177E+02  0.69822770578E+02  0.73259403717E+02  0.00000000000E+00 0.  1.
         -1    1    1    2    0  501  0.90851131834E+01 -0.20228239177E+02  0.62903928373E+01  0.23049728498E+02  0.00000000000E+00 0. -1.
</event>
<event>
 4    1  0.6629728E+001  0.2036784E+02  0.7546771E-02  0.1528485E+00
          2   -1    0    0  502    0  0.00000000000E+00  0.00000000000E+00  0.56423990558E+02  0.56423990558E+02  0.00000000000E+00 0.  1.
         -2   -1    0    0    0  501 -0.00000000000E+00 -0.00000000000E+00 -0.76388857213E+01  0.76388857213E+01  0.00000000000E+00 0. -1.
          1    1    1    2  502    0  0.37190355784E+01  0.20025421590E+02  0.30596289578E+02  0.36755702570E+02  0.00000000000E+00 0.  1.
         -1    1    1    2    0  501 -0.37190355784E+01 -0.20025421590E+02  0.18188815258E+02  0.27307173709E+02  0.00000000000E+00 0. -1.
</event>
<event>
 4    1  0.6629728E+001  0.4246348E+02  0.7546771E-02  0.1334625E+00
          2   -1    0    0  502    0  0.00000000000E+00  0.00000000000E+00  0.17932165275E+04  0.17932165275E+04  0.00000000000E+00 0.  1.
         -2   -1    0    0    0  501 -0.00000000000E+00 -0.00000000000E+00 -0.12913481267E+01  0.12913481267E+01  0.00000000000E+00 0. -1.
          1    1    1    2  502    0 -0.50110960944E+01  0.42166766378E+02  0.13180793039E+04  0.13187631321E+04  0.00000000000E+00 0.  1.
         -1    1    1    2    0  501  0.50110960944E+01 -0.42166766378E+02  0.47384587552E+03  0.47574474355E+03  0.00000000000E+00 0. -1.
</event>
<event>
 4    1  0.6629728E+001  0.2475878E+02  0.7546771E-02  0.1471520E+00
          2   -1    0    0  502    0  0.00000000000E+00  0.00000000000E+00  0.37434178125E+02  0.37434178125E+02  0.00000000000E+00 0.  1.
         -2   -1    0    0    0  501 -0.00000000000E+00 -0.00000000000E+00 -0.16671478135E+02  0.16671478135E+02  0.00000000000E+00 0. -1.
          1    1    1    2  502    0 -0.20271947635E+02  0.14214256428E+02  0.67757166826E+01  0.25669189377E+02  0.00000000000E+00 0. -1.
         -1    1    1    2    0  501  0.20271947635E+02 -0.14214256428E+02  0.13986983308E+02  0.28436466883E+02  0.00000000000E+00 0.  1.
</event>
<event>
 4    1  0.6629728E+001  0.2004026E+02  0.7546771E-02  0.1533421E+00
          2   -1    0    0  502    0  0.00000000000E+00  0.00000000000E+00  0.16213831506E+03  0.16213831506E+03  0.00000000000E+00 0.  1.
         -2   -1    0    0    0  501 -0.00000000000E+00 -0.00000000000E+00 -0.37145355877E+01  0.37145355877E+01  0.00000000000E+00 0. -1.
          1    1    1    2  502    0  0.18686520193E+02 -0.72405702807E+01  0.12707761351E+03  0.12864809268E+03  0.00000000000E+00 0.  1.
         -1    1    1    2    0  501 -0.18686520193E+02  0.72405702807E+01  0.31346165966E+02  0.37204757971E+02  0.00000000000E+00 0. -1.
</event>
<event>
 4    1  0.6629728E+001  0.2518262E+02  0.7546771E-02  0.1466771E+00
          2   -1    0    0  502    0  0.00000000000E+00  0.00000000000E+00  0.14030531848E+04  0.14030531848E+04  0.00000000000E+00 0.  1.
         -2   -1    0    0    0  501 -0.00000000000E+00 -0.00000000000E+00 -0.46231074059E+00  0.46231074059E+00  0.00000000000E+00 0. -1.
          1    1    1    2  502    0  0.35090629307E+01  0.24936938537E+02  0.80615291045E+03  0.80654614218E+03  0.00000000000E+00 0.  1.
         -1    1    1    2    0  501 -0.35090629307E+01 -0.24936938537E+02  0.59643796358E+03  0.59696935334E+03  0.00000000000E+00 0. -1.
</event>
<event>
 4    1  0.6629728E+001  0.2929867E+02  0.7546771E-02  0.1425790E+00
          2   -1    0    0  502    0  0.00000000000E+00  0.00000000000E+00  0.36791255317E+03  0.36791255317E+03  0.00000000000E+00 0. -1.
         -2   -1    0    0    0  501 -0.00000000000E+00 -0.00000000000E+00 -0.24051279185E+01  0.24051279185E+01  0.00000000000E+00 0.  1.
          1    1    1    2  502    0  0.27046377029E+02  0.11265249362E+02  0.15073277220E+03  0.15355383736E+03  0.00000000000E+00 0. -1.
         -1    1    1    2    0  501 -0.27046377029E+02 -0.11265249362E+02  0.21477465305E+03  0.21676384373E+03  0.00000000000E+00 0.  1.
</event>
<event>
 4    1  0.6629728E+001  0.2147569E+02  0.7546771E-02  0.1512580E+00
          2   -1    0    0  502    0  0.00000000000E+00  0.00000000000E+00  0.96902766771E+02  0.96902766771E+02  0.00000000000E+00 0. -1.
         -2   -1    0    0    0  501 -0.00000000000E+00 -0.00000000000E+00 -0.56272467338E+01  0.56272467338E+01  0.00000000000E+00 0.  1.
          1    1    1    2  502    0  0.14199992551E+02  0.16111039522E+02  0.65769353284E+02  0.69186799422E+02  0.00000000000E+00 0. -1.
         -1    1    1    2    0  501 -0.14199992551E+02 -0.16111039522E+02  0.25506166754E+02  0.33343214083E+02  0.00000000000E+00 0.  1.
</event>
<event>
 4    1  0.6629728E+001  0.3649917E+02  0.7546771E-02  0.1370319E+00
          2   -1    0    0  502    0  0.00000000000E+00  0.00000000000E+00  0.12109871376E+04  0.12109871376E+04  0.00000000000E+00 0. -1.
         -2   -1    0    0    0  501 -0.00000000000E+00 -0.00000000000E+00 -0.21435080267E+01  0.21435080267E+01  0.00000000000E+00 0.  1.
          1    1    1    2  502    0  0.34407783482E+02 -0.12177594074E+02  0.18122232990E+03  0.18486135944E+03  0.00000000000E+00 0.  1.
         -1    1    1    2    0  501 -0.34407783482E+02  0.12177594074E+02  0.10276212997E+04  0.10282692862E+04  0.00000000000E+00 0. -1.
</event>
<event>
 4    1  0.6629728E+001  0.3250408E+02  0.7546771E-02  0.1399014E+00
          2   -1    0    0  502    0  0.00000000000E+00  0.00000000000E+00  0.52795643051E+02  0.52795643051E+02  0.00000000000E+00 0.  1.
         -2   -1    0    0    0  501 -0.00000000000E+00 -0.00000000000E+00 -0.27063240572E+02  0.27063240572E+02  0.00000000000E+00 0. -1.
          1    1    1    2  502    0 -0.21135292056E+02 -0.24694426061E+02 -0.75161499781E+01  0.33361770925E+02  0.00000000000E+00 0. -1.
         -1    1    1    2    0  501  0.21135292056E+02  0.24694426061E+02  0.33248552456E+02  0.46497112698E+02  0.00000000000E+00 0.  1.
</event>
<event>
 4    1  0.6629728E+001  0.2101835E+02  0.7546771E-02  0.1519003E+00
          2   -1    0    0  502    0  0.00000000000E+00  0.00000000000E+00  0.43726820749E+02  0.43726820749E+02  0.00000000000E+00 0.  1.
         -2   -1    0    0    0  501 -0.00000000000E+00 -0.00000000000E+00 -0.14674024027E+02  0.14674024027E+02  0.00000000000E+00 0. -1.
          1    1    1    2  502    0 -0.15725364042E+02 -0.13945750649E+02 -0.17711544402E+01  0.21092842944E+02  0.00000000000E+00 0. -1.
         -1    1    1    2    0  501  0.15725364042E+02  0.13945750649E+02  0.30823951162E+02  0.37308001832E+02  0.00000000000E+00 0.  1.
</event>
<event>
 4    1  0.6629728E+001  0.3169772E+02  0.7546771E-02  0.1405395E+00
          2   -1    0    0  502    0  0.00000000000E+00  0.00000000000E+00  0.63740179350E+03  0.63740179350E+03  0.00000000000E+00 0. -1.
         -2   -1    0    0    0  501 -0.00000000000E+00 -0.00000000000E+00 -0.57987406155E+01  0.57987406155E+01  0.00000000000E+00 0.  1.
          1    1    1    2  502    0 -0.31494892468E+02 -0.35801097645E+01  0.59023090944E+03  0.59108144269E+03  0.00000000000E+00 0. -1.
         -1    1    1    2    0  501  0.31494892468E+02  0.35801097645E+01  0.41372143444E+02  0.52119091422E+02  0.00000000000E+00 0.  1.
</event>
<event>
 4    1  0.6629728E+001  0.8015875E+02  0.7546771E-02  0.1203480E+00
          2   -1    0    0  502    0  0.00000000000E+00  0.00000000000E+00  0.30461275892E+03  0.30461275892E+03  0.00000000000E+00 0. -1.
         -2   -1    0    0    0  501 -0.00000000000E+00 -0.00000000000E+00 -0.21266219966E+02  0.21266219966E+02  0.00000000000E+00 0.  1.
          1    1    1    2  502    0  0.61237607337E+02 -0.51724075207E+02  0.12699950461E+03  0.15018088653E+03  0.00000000000E+00 0. -1.
         -1    1    1    2    0  501 -0.61237607337E+02  0.51724075207E+02  0.15634703435E+03  0.17569809235E+03  0.00000000000E+00 0.  1.
</event>
<event>
 4    1  0.6629728E+001  0.2041825E+02  0.7546771E-02  0.1527735E+00
          2   -1    0    0  502    0  0.00000000000E+00  0.00000000000E+00  0.29075214134E+03  0.29075214134E+03  0.00000000000E+00 0.  1.
         -2   -1    0    0    0  501 -0.00000000000E+00 -0.00000000000E+00 -0.17716972994E+01  0.17716972994E+01  0.00000000000E+00 0. -1.
          1    1    1    2  502    0 -0.11660531854E+02  0.16761178488E+02  0.20835689524E+03  0.20935496388E+03  0.00000000000E+00 0.  1.
         -1    1    1    2    0  501  0.11660531854E+02 -0.16761178488E+02  0.80623548805E+02  0.83168874763E+02  0.00000000000E+00 0. -1.
</event>
<event>
 4    1  0.6629728E+001  0.3065686E+02  0.7546771E-02  0.1413973E+00
          2   -1    0    0  502    0  0.00000000000E+00  0.00000000000E+00  0.28305331956E+01  0.28305331956E+01  0.00000000000E+00 0.  1.
         -2   -1    0    0    0  501 -0.00000000000E+00 -0.00000000000E+00 -0.40801060608E+03  0.40801060608E+03  0.00000000000E+00 0. -1.
          1    1    1    2  502    0 -0.24479962208E+02  0.18454668851E+02 -0.11394836100E+03  0.11800030647E+03  0.00000000000E+00 0.  1.
         -1    1    1    2    0  501  0.24479962208E+02 -0.18454668851E+02 -0.29123171188E+03  0.29284083280E+03  0.00000000000E+00 0. -1.
</event>
<event>
 4    1  0.6629728E+001  0.2773790E+02  0.7546771E-02  0.1440333E+00
          2   -1    0    0  502    0  0.00000000000E+00  0.00000000000E+00  0.14481429083E+02  0.14481429083E+02  0.00000000000E+00 0. -1.
         -2   -1    0    0    0  501 -0.00000000000E+00 -0.00000000000E+00 -0.54425695849E+02  0.54425695849E+02  0.00000000000E+00 0.  1.
          1    1    1    2  502    0 -0.67670785341E+01  0.26899769348E+02 -0.14655103355E+02  0.31371372256E+02  0.00000000000E+00 0. -1.
         -1    1    1    2    0  501  0.67670785341E+01 -0.26899769348E+02 -0.25289163411E+02  0.37535752676E+02  0.00000000000E+00 0.  1.
</event>
<event>
 4    1  0.6629728E+001  0.2825165E+02  0.7546771E-02  0.1435425E+00
          2   -1    0    0  502    0  0.00000000000E+00  0.00000000000E+00  0.11204714742E+04  0.11204714742E+04  0.00000000000E+00 0.  1.
         -2   -1    0    0    0  501 -0.00000000000E+00 -0.00000000000E+00 -0.81871412774E+00  0.81871412774E+00  0.00000000000E+00 0. -1.
          1    1    1    2  502    0 -0.39567474142E+01  0.27973196011E+02  0.35773773937E+03  0.35885156502E+03  0.00000000000E+00 0. -1.
         -1    1    1    2    0  501  0.39567474142E+01 -0.27973196011E+02  0.76191502071E+03  0.76243862332E+03  0.00000000000E+00 0.  1.
</event>
<event>
 4    1  0.6629728E+001  0.2029081E+02  0.7546771E-02  0.1529636E+00
          2   -1    0    0  502    0  0.00000000000E+00  0.00000000000E+00  0.97313930848E+01  0.97313930848E+01  0.00000000000E+00 0.  1.
         -2   -1    0    0    0  501 -0.00000000000E+00 -0.00000000000E+00 -0.43669740718E+02  0.43669740718E+02  0.00000000000E+00 0. -1.
          1    1    1    2  502    0 -0.17953524745E+02  0.94545265823E+01 -0.12254459894E+02  0.23704196063E+02  0.00000000000E+00 0. -1.
         -1    1    1    2    0  501  0.17953524745E+02 -0.94545265823E+01 -0.21683887739E+02  0.29696937740E+02  0.00000000000E+00 0.  1.
</event>
<event>
 4    1  0.6629728E+001  0.2071955E+02  0.7546771E-02  0.1523307E+00
          2   -1    0    0  502    0  0.00000000000E+00  0.00000000000E+00  0.29545994256E+03  0.29545994256E+03  0.00000000000E+00 0.  1.
         -2   -1    0    0    0  501 -0.00000000000E+00 -0.00000000000E+00 -0.14550742810E+01  0.14550742810E+01  0.00000000000E+00 0. -1.
          1    1    1    2  502    0  0.18441173820E+02  0.94457944192E+01  0.14138180402E+03  0.14289196770E+03  0.00000000000E+00 0. -1.
         -1    1    1    2    0  501 -0.18441173820E+02 -0.94457944192E+01  0.15262306425E+03  0.15402304914E+03  0.00000000000E+00 0.  1.
</event>
<event>
 4    1  0.6629728E+001  0.3694977E+02  0.7546771E-02  0.1367351E+00
          2   -1    0    0  502    0  0.00000000000E+00  0.00000000000E+00  0.66717060634E+03  0.66717060634E+03  0.00000000000E+00 0. -1.
         -2   -1    0    0    0  501 -0.00000000000E+00 -0.00000000000E+00 -0.20464537652E+01  0.20464537652E+01  0.00000000000E+00 0.  1.
          1    1    1    2  502    0  0.16537821519E+02  0.33042185895E+02  0.33455039745E+03  0.33658469072E+03  0.00000000000E+00 0. -1.
         -1    1    1    2    0  501 -0.16537821519E+02 -0.33042185895E+02  0.33057375512E+03  0.33263236938E+03  0.00000000000E+00 0.  1.
</event>
<event>
 4    1  0.6629728E+001  0.2043868E+02  0.7546771E-02  0.1527432E+00
          2   -1    0    0  502    0  0.00000000000E+00  0.00000000000E+00  0.16176966924E+03  0.16176966924E+03  0.00000000000E+00 0. -1.
         -2   -1    0    0    0  501 -0.00000000000E+00 -0.00000000000E+00 -0.44182332903E+01  0.44182332903E+01  0.00000000000E+00 0.  1.
          1    1    1    2  502    0  0.12092286524E+02 -0.16477749780E+02  0.13223962050E+03  0.13380977864E+03  0.00000000000E+00 0. -1.
         -1    1    1    2    0  501 -0.12092286524E+02  0.16477749780E+02  0.25111815455E+02  0.32378123890E+02  0.00000000000E+00 0.  1.
</event>
<event>
 4    1  0.6629728E+001  0.2241009E+02  0.7546771E-02  0.1500042E+00
          2   -1    0    0  502    0  0.00000000000E+00  0.00000000000E+00  0.14809431459E+03  0.14809431459E+03  0.00000000000E+00 0.  1.
         -2   -1    0    0    0  501 -0.00000000000E+00 -0.00000000000E+00 -0.41710469134E+01  0.41710469134E+01  0.00000000000E+00 0. -1.
          1    1    1    2  502    0 -0.85640212319E+01 -0.20709168929E+02  0.39041375636E+02  0.45016009918E+02  0.00000000000E+00 0. -1.
         -1    1    1    2    0  501  0.85640212319E+01  0.20709168929E+02  0.10488189204E+03  0.10724935158E+03  0.00000000000E+00 0.  1.
</event>
<event>
 4    1  0.6629728E+001  0.2826923E+02  0.7546771E-02  0.1435259E+00
          2   -1    0    0  502    0  0.00000000000E+00  0.00000000000E+00  0.44110545328E+02  0.44110545328E+02  0.00000000000E+00 0.  1.
         -2   -1    0    0    0  501 -0.00000000000E+00 -0.00000000000E+00 -0.23701347252E+02  0.23701347252E+02  0.00000000000E+00 0. -1.
          1    1    1    2  502    0 -0.28202765446E+02  0.19374085349E+01  0.26662583042E+02  0.38859270002E+02  0.00000000000E+00 0.  1.
         -1    1    1    2    0  501  0.28202765446E+02 -0.19374085349E+01 -0.62533849655E+01  0.28952622578E+02  0.00000000000E+00 0. -1.
</event>
<event>
 4    1  0.6629728E+001  0.2341343E+02  0.7546771E-02  0.1487371E+00
          2   -1    0    0  502    0  0.00000000000E+00  0.00000000000E+00  0.21836989637E+03  0.21836989637E+03  0.00000000000E+00 0. -1.
         -2   -1    0    0    0  501 -0.00000000000E+00 -0.00000000000E+00 -0.28443588960E+01  0.28443588960E+01  0.00000000000E+00 0.  1.
          1    1    1    2  502    0 -0.11391520589E+02  0.20455363607E+02  0.14566446991E+03  0.14753415346E+03  0.00000000000E+00 0. -1.
         -1    1    1    2    0  501  0.11391520589E+02 -0.20455363607E+02  0.69861067560E+02  0.73680101807E+02  0.00000000000E+00 0.  1.
</event>
<event>
 4    1  0.6629728E+001  0.6666552E+02  0.7546771E-02  0.1238725E+00
          2   -1    0    0  502    0  0.00000000000E+00  0.00000000000E+00  0.31984243838E+03  0.31984243838E+03  0.00000000000E+00 0.  1.
         -2   -1    0    0    0  501 -0.00000000000E+00 -0.00000000000E+00 -0.13948109958E+02  0.13948109958E+02  0.00000000000E+00 0. -1.
          1    1    1    2  502    0  0.48853804234E+02 -0.45360747481E+02  0.14267321406E+03  0.15747995940E+03  0.00000000000E+00 0.  1.
         -1    1    1    2    0  501 -0.48853804234E+02  0.45360747481E+02  0.16322111435E+03  0.17631058894E+03  0.00000000000E+00 0. -1.
</event>
<event>
 4    1  0.6629728E+001  0.2450922E+02  0.7546771E-02  0.1474369E+00
          2   -1    0    0  502    0  0.00000000000E+00  0.00000000000E+00  0.25472284904E+03  0.25472284904E+03  0.00000000000E+00 0.  1.
         -2   -1    0    0    0  501 -0.00000000000E+00 -0.00000000000E+00 -0.24296218356E+01  0.24296218356E+01  0.00000000000E+00 0. -1.
          1    1    1    2  502    0 -0.83593785636E+00  0.24494960478E+02  0.14818268787E+03  0.15019590828E+03  0.00000000000E+00 0. -1.
         -1    1    1    2    0  501  0.83593785636E+00 -0.24494960478E+02  0.10411053934E+03  0.10695656259E+03  0.00000000000E+00 0.  1.
</event>
<event>
 4    1  0.6629728E+001  0.2315764E+02  0.7546771E-02  0.1490528E+00
          2   -1    0    0  502    0  0.00000000000E+00  0.00000000000E+00  0.18673248412E+03  0.18673248412E+03  0.00000000000E+00 0. -1.
         -2   -1    0    0    0  501 -0.00000000000E+00 -0.00000000000E+00 -0.29165336385E+01  0.29165336385E+01  0.00000000000E+00 0.  1.
          1    1    1    2  502    0  0.18274480880E+02 -0.14223913610E+02  0.10363898030E+03  0.10619470141E+03  0.00000000000E+00 0.  1.
         -1    1    1    2    0  501 -0.18274480880E+02  0.14223913610E+02  0.80176970183E+02  0.83454316351E+02  0.00000000000E+00 0. -1.
</event>
<event>
 4    1  0.6629728E+001  0.2405085E+02  0.7546771E-02  0.1479708E+00
          2   -1    0    0  502    0  0.00000000000E+00  0.00000000000E+00  0.54216995960E+01  0.54216995960E+01  0.00000000000E+00 0. -1.
         -2   -1    0    0    0  501 -0.00000000000E+00 -0.00000000000E+00 -0.11014101837E+03  0.11014101837E+03  0.00000000000E+00 0.  1.
          1    1    1    2  502    0  0.24023217427E+02  0.11525387831E+01 -0.62586969168E+02  0.67049027069E+02  0.00000000000E+00 0.  1.
         -1    1    1    2    0  501 -0.24023217427E+02 -0.11525387831E+01 -0.42132349607E+02  0.48513690899E+02  0.00000000000E+00 0. -1.
</event>
<event>
 4    1  0.6629728E+001  0.2534056E+02  0.7546771E-02  0.1465029E+00
          2   -1    0    0  502    0  0.00000000000E+00  0.00000000000E+00  0.71196022294E+02  0.71196022294E+02  0.00000000000E+00 0. -1.
         -2   -1    0    0    0  501 -0.00000000000E+00 -0.00000000000E+00 -0.27520220770E+02  0.27520220770E+02  0.00000000000E+00 0.  1.
          1    1    1    2  502    0  0.22980362115E+02  0.10679266460E+02  0.62307456103E+02  0.67263384252E+02  0.00000000000E+00 0. -1.
         -1    1    1    2    0  501 -0.22980362115E+02 -0.10679266460E+02 -0.18631654579E+02  0.31452858812E+02  0.00000000000E+00 0.  1.
</event>
<event>
 4    1  0.6629728E+001  0.2545055E+02  0.7546771E-02  0.1463826E+00
          2   -1    0    0  502    0  0.00000000000E+00  0.00000000000E+00  0.15261595701E+03  0.15261595701E+03  0.00000000000E+00 0.  1.
         -2   -1    0    0    0  501 -0.00000000000E+00 -0.00000000000E+00 -0.49554497727E+01  0.49554497727E+01  0.00000000000E+00 0. -1.
          1    1    1    2  502    0  0.68613343844E+01 -0.24508215200E+02  0.10367866313E+03  0.10675671272E+03  0.00000000000E+00 0.  1.
         -1    1    1    2    0  501 -0.68613343844E+01  0.24508215200E+02  0.43981844103E+02  0.50814694061E+02  0.00000000000E+00 0. -1.
</event>
<event>
 4    1  0.6629728E+001  0.3026055E+02  0.7546771E-02  0.1417345E+00
          2   -1    0    0  502    0  0.00000000000E+00  0.00000000000E+00  0.23547209613E+03  0.23547209613E+03  0.00000000000E+00 0.  1.
         -2   -1    0    0    0  501 -0.00000000000E+00 -0.00000000000E+00 -0.42983522876E+01  0.42983522876E+01  0.00000000000E+00 0. -1.
          1    1    1    2  502    0 -0.24365317154E+02 -0.17945250584E+02  0.78580499544E+02  0.84205674436E+02  0.00000000000E+00 0.  1.
         -1    1    1    2    0  501  0.24365317154E+02  0.17945250584E+02  0.15259324429E+03  0.15556477398E+03  0.00000000000E+00 0. -1.
</event>
<event>
 4    1  0.6629728E+001  0.2337992E+02  0.7546771E-02  0.1487782E+00
          2   -1    0    0  502    0  0.00000000000E+00  0.00000000000E+00  0.60527157766E+03  0.60527157766E+03  0.00000000000E+00 0. -1.
         -2   -1    0    0    0  501 -0.00000000000E+00 -0.00000000000E+00 -0.92881885902E+00  0.92881885902E+00  0.00000000000E+00 0.  1.
          1    1    1    2  502    0  0.20945439566E+02  0.10387943997E+02  0.25173478464E+03  0.25281816117E+03  0.00000000000E+00 0.  1.
         -1    1    1    2    0  501 -0.20945439566E+02 -0.10387943997E+02  0.35260797416E+03  0.35338223535E+03  0.00000000000E+00 0. -1.
</event>
<event>
 4    1  0.6629728E+001  0.2758723E+02  0.7546771E-02  0.1441797E+00
          2   -1    0    0  502    0  0.00000000000E+00  0.00000000000E+00  0.84840210901E+03  0.84840210901E+03  0.00000000000E+00 0.  1.
         -2   -1    0    0    0  501 -0.00000000000E+00 -0.00000000000E+00 -0.98736839931E+00  0.98736839931E+00  0.00000000000E+00 0. -1.
          1    1    1    2  502    0  0.11711334320E+02  0.24977991767E+02  0.29525685971E+03  0.29654286137E+03  0.00000000000E+00 0. -1.
         -1    1    1    2    0  501 -0.11711334320E+02 -0.24977991767E+02  0.55215788090E+03  0.55284661604E+03  0.00000000000E+00 0.  1.
</event>
<event>
 4    1  0.6629728E+001  0.4444958E+02  0.7546771E-02  0.1324215E+00
          2   -1    0    0  502    0  0.00000000000E+00  0.00000000000E+00  0.51159550448E+03  0.51159550448E+03  0.00000000000E+00 0. -1.
         -2   -1    0    0    0  501 -0.00000000000E+00 -0.00000000000E+00 -0.57528652225E+01  0.57528652225E+01  0.00000000000E+00 0.  1.
          1    1    1    2  502    0  0.37077187351E+02  0.24516258191E+02  0.10461996597E+03  0.11367102541E+03  0.00000000000E+00 0. -1.
         -1    1    1    2    0  501 -0.37077187351E+02 -0.24516258191E+02  0.40122267329E+03  0.40367734429E+03  0.00000000000E+00 0.  1.
</event>
<event>
 4    1  0.6629728E+001  0.2533197E+02  0.7546771E-02  0.1465124E+00
          2   -1    0    0  502    0  0.00000000000E+00  0.00000000000E+00  0.17622689471E+04  0.17622689471E+04  0.00000000000E+00 0. -1.
         -2   -1    0    0    0  501 -0.00000000000E+00 -0.00000000000E+00 -0.36482929248E+00  0.36482929248E+00  0.00000000000E+00 0.  1.
          1    1    1    2  502    0 -0.34420537327E+01  0.25097033442E+02  0.91931977855E+03  0.91966872517E+03  0.00000000000E+00 0. -1.
         -1    1    1    2    0  501  0.34420537327E+01 -0.25097033442E+02  0.84258433926E+03  0.84296505123E+03  0.00000000000E+00 0.  1.
</event>
<event>
 4    1  0.6629728E+001  0.2089401E+02  0.7546771E-02  0.1520783E+00
          2   -1    0    0  502    0  0.00000000000E+00  0.00000000000E+00  0.10932119763E+04  0.10932119763E+04  0.00000000000E+00 0.  1.
         -2   -1    0    0    0  501 -0.00000000000E+00 -0.00000000000E+00 -0.71144797186E+00  0.71144797186E+00  0.00000000000E+00 0. -1.
          1    1    1    2  502    0 -0.44869828015E+01  0.20406538831E+02  0.90852659996E+03  0.90876682525E+03  0.00000000000E+00 0.  1.
         -1    1    1    2    0  501  0.44869828015E+01 -0.20406538831E+02  0.18397392834E+03  0.18515659899E+03  0.00000000000E+00 0. -1.
</event>
<event>
 4    1  0.6629728E+001  0.4277817E+02  0.7546771E-02  0.1332932E+00
          2   -1    0    0  502    0  0.00000000000E+00  0.00000000000E+00  0.27275368806E+04  0.27275368806E+04  0.00000000000E+00 0.  1.
         -2   -1    0    0    0  501 -0.00000000000E+00 -0.00000000000E+00 -0.73533888260E+00  0.73533888260E+00  0.00000000000E+00 0. -1.
          1    1    1    2  502    0  0.39893763915E+02 -0.15442122142E+02  0.95965768788E+03  0.96061066486E+03  0.00000000000E+00 0. -1.
         -1    1    1    2    0  501 -0.39893763915E+02  0.15442122142E+02  0.17671438538E+04  0.17676615546E+04  0.00000000000E+00 0.  1.
</event>
<event>
 4    1  0.6629728E+001  0.2208413E+02  0.7546771E-02  0.1504330E+00
          2   -1    0    0  502    0  0.00000000000E+00  0.00000000000E+00  0.52855108153E+03  0.52855108153E+03  0.00000000000E+00 0. -1.
         -2   -1    0    0    0  501 -0.00000000000E+00 -0.00000000000E+00 -0.92272956174E+00  0.92272956174E+00  0.00000000000E+00 0.  1.
          1    1    1    2  502    0 -0.18546760976E+02 -0.11988604097E+02  0.26413959440E+03  0.26506118972E+03  0.00000000000E+00 0.  1.
         -1    1    1    2    0  501  0.18546760976E+02  0.11988604097E+02  0.26348875757E+03  0.26441262137E+03  0.00000000000E+00 0. -1.
</event>
<event>
 4    1  0.6629728E+001  0.2416310E+02  0.7546771E-02  0.1478388E+00
          2   -1    0    0  502    0  0.00000000000E+00  0.00000000000E+00  0.25101275886E+01  0.25101275886E+01  0.00000000000E+00 0.  1.
         -2   -1    0    0    0  501 -0.00000000000E+00 -0.00000000000E+00 -0.39723576414E+03  0.39723576414E+03  0.00000000000E+00 0. -1.
          1    1    1    2  502    0 -0.19814616353E+02  0.13828829243E+02 -0.68688461329E+02  0.72814560764E+02  0.00000000000E+00 0.  1.
         -1    1    1    2    0  501  0.19814616353E+02 -0.13828829243E+02 -0.32603717523E+03  0.32693133097E+03  0.00000000000E+00 0. -1.
</event>
<event>
 4    1  0.6629728E+001  0.2060861E+02  0.7546771E-02  0.1524927E+00
          2   -1    0    0  502    0  0.00000000000E+00  0.00000000000E+00  0.49674976126E+03  0.49674976126E+03  0.00000000000E+00 0. -1.
         -2   -1    0    0    0  501 -0.00000000000E+00 -0.00000000000E+00 -0.11042229501E+01  0.11042229501E+01  0.00000000000E+00 0.  1.
          1    1    1    2  502    0  0.10033965527E+02  0.18000951631E+02  0.36608572012E+03  0.36666533678E+03  0.00000000000E+00 0. -1.
         -1    1    1    2    0  501 -0.10033965527E+02 -0.18000951631E+02  0.12955981819E+03  0.13118864742E+03  0.00000000000E+00 0.  1.
</event>
<event>
 4    1  0.6629728E+001  0.2332305E+02  0.7546771E-02  0.1488481E+00
          2   -1    0    0  502    0  0.00000000000E+00  0.00000000000E+00  0.14438701642E+03  0.14438701642E+03  0.00000000000E+00 0. -1.
         -2   -1    0    0    0  501 -0.00000000000E+00 -0.00000000000E+00 -0.51253726826E+01  0.51253726826E+01  0.00000000000E+00 0.  1.
          1    1    1    2  502    0 -0.22146194046E+02  0.73151017028E+01  0.31151368459E+02  0.38914937756E+02  0.00000000000E+00 0.  1.
         -1    1    1    2    0  501  0.22146194046E+02 -0.73151017028E+01  0.10811027528E+03  0.11059745135E+03  0.00000000000E+00 0. -1.
</event>
<event>
 4    1  0.6629728E+001  0.2381438E+02  0.7546771E-02  0.1482518E+00
          2   -1    0    0  502    0  0.00000000000E+00  0.00000000000E+00  0.22856721919E+02  0.22856721919E+02  0.00000000000E+00 0.  1.
         -2   -1    0    0    0  501 -0.00000000000E+00 -0.00000000000E+00 -0.25396193405E+02  0.25396193405E+02  0.00000000000E+00 0. -1.
          1    1    1    2  502    0 -0.16590680616E+02 -0.17084320536E+02  0.23889682758E+01  0.23933906093E+02  0.00000000000E+00 0. -1.
         -1    1    1    2    0  501  0.16590680616E+02  0.17084320536E+02 -0.49284397620E+01  0.24319009230E+02  0.00000000000E+00 0.  1.
</event>
<event>
 4    1  0.6629728E+001  0.2150108E+02  0.7546771E-02  0.1512230E+00
          2   -1    0    0  502    0  0.00000000000E+00  0.00000000000E+00  0.66149659477E+03  0.66149659477E+03  0.00000000000E+00 0.  1.
         -2   -1    0    0    0  501 -0.00000000000E+00 -0.00000000000E+00 -0.80017175769E+00  0.80017175769E+00  0.00000000000E+00 0. -1.
          1    1    1    2  502    0  0.35000497141E+01  0.21214286593E+02  0.21251928980E+03  0.21360417795E+03  0.00000000000E+00 0. -1.
         -1    1    1    2    0  501 -0.35000497141E+01 -0.21214286593E+02  0.44817713321E+03  0.44869258857E+03  0.00000000000E+00 0.  1.
</event>
<event>
 4    1  0.6629728E+001  0.2334238E+02  0.7546771E-02  0.1488243E+00
          2   -1    0    0  502    0  0.00000000000E+00  0.00000000000E+00  0.19210790050E+04  0.19210790050E+04  0.00000000000E+00 0.  1.
         -2   -1    0    0    0  501 -0.00000000000E+00 -0.00000000000E+00 -0.28709717200E+00  0.28709717200E+00  0.00000000000E+00 0. -1.
          1    1    1    2  502    0 -0.85657889283E+00 -0.23326655562E+02  0.10660407820E+04  0.10662963076E+04  0.00000000000E+00 0. -1.
         -1    1    1    2    0  501  0.85657889283E+00  0.23326655562E+02  0.85475112583E+03  0.85506979464E+03  0.00000000000E+00 0.  1.
</event>
<event>
 4    1  0.6629728E+001  0.2840840E+02  0.7546771E-02  0.1433951E+00
          2   -1    0    0  502    0  0.00000000000E+00  0.00000000000E+00  0.10046838574E+04  0.10046838574E+04  0.00000000000E+00 0. -1.
         -2   -1    0    0    0  501 -0.00000000000E+00 -0.00000000000E+00 -0.11709571307E+01  0.11709571307E+01  0.00000000000E+00 0.  1.
          1    1    1    2  502    0  0.21578474725E+02  0.18477187348E+02  0.78357612117E+03  0.78409092246E+03  0.00000000000E+00 0.  1.
         -1    1    1    2    0  501 -0.21578474725E+02 -0.18477187348E+02  0.21993677911E+03  0.22176389207E+03  0.00000000000E+00 0. -1.
</event>
<event>
 4    1  0.6629728E+001  0.2023351E+02  0.7546771E-02  0.1530496E+00
          2   -1    0    0  502    0  0.00000000000E+00  0.00000000000E+00  0.51923118635E+03  0.51923118635E+03  0.00000000000E+00 0. -1.
         -2   -1    0    0    0  501 -0.00000000000E+00 -0.00000000000E+00 -0.79330549116E+00  0.79330549116E+00  0.00000000000E+00 0.  1.
          1    1    1    2  502    0 -0.16127118372E+02 -0.12219285641E+02  0.27953227611E+03  0.28026360498E+03  0.00000000000E+00 0. -1.
         -1    1    1    2    0  501  0.16127118372E+02  0.12219285641E+02  0.23890560475E+03  0.23976088686E+03  0.00000000000E+00 0.  1.
</event>
<event>
 4    1  0.6629728E+001  0.3208378E+02  0.7546771E-02  0.1402313E+00
          2   -1    0    0  502    0  0.00000000000E+00  0.00000000000E+00  0.32919638076E+03  0.32919638076E+03  0.00000000000E+00 0. -1.
         -2   -1    0    0    0  501 -0.00000000000E+00 -0.00000000000E+00 -0.51184301702E+01  0.51184301702E+01  0.00000000000E+00 0.  1.
          1    1    1    2  502    0  0.30527924279E+02 -0.98698797217E+01  0.26630652724E+03  0.26823224105E+03  0.00000000000E+00 0. -1.
         -1    1    1    2    0  501 -0.30527924279E+02  0.98698797217E+01  0.57771423351E+02  0.66082569884E+02  0.00000000000E+00 0.  1.
</event>
<event>
 4    1  0.6629728E+001  0.2063003E+02  0.7546771E-02  0.1524613E+00
          2   -1    0    0  502    0  0.00000000000E+00  0.00000000000E+00  0.42153229609E+01  0.42153229609E+01  0.00000000000E+00 0.  1.
         -2   -1    0    0    0  501 -0.00000000000E+00 -0.00000000000E+00 -0.11126348206E+03  0.11126348206E+03  0.00000000000E+00 0. -1.
          1    1    1    2  502    0  0.20418773447E+02  0.29447738048E+01 -0.71090892574E+02  0.74023732741E+02  0.00000000000E+00 0. -1.
         -1    1    1    2    0  501 -0.20418773447E+02 -0.29447738048E+01 -0.35957266528E+02  0.41455072283E+02  0.00000000000E+00 0.  1.
</event>
<event>
 4    1  0.6629728E+001  0.2242805E+02  0.7546771E-02  0.1499808E+00
          2   -1    0    0  502    0  0.00000000000E+00  0.00000000000E+00  0.29542820746E+03  0.29542820746E+03  0.00000000000E+00 0. -1.
         -2   -1    0    0    0  501 -0.00000000000E+00 -0.00000000000E+00 -0.17773757394E+01  0.17773757394E+01  0.00000000000E+00 0.  1.
          1    1    1    2  502    0  0.15216503536E+02  0.16476512879E+02  0.11635998408E+03  0.11850174409E+03  0.00000000000E+00 0. -1.
         -1    1    1    2    0  501 -0.15216503536E+02 -0.16476512879E+02  0.17729084764E+03  0.17870383911E+03  0.00000000000E+00 0.  1.
</event>
<event>
 4    1  0.6629728E+001  0.2899228E+02  0.7546771E-02  0.1428560E+00
          2   -1    0    0  502    0  0.00000000000E+00  0.00000000000E+00  0.30583030604E+03  0.30583030604E+03  0.00000000000E+00 0. -1.
         -2   -1    0    0    0  501 -0.00000000000E+00 -0.00000000000E+00 -0.28026037567E+01  0.28026037567E+01  0.00000000000E+00 0.  1.
          1    1    1    2  502    0  0.26592445122E+02  0.11549641537E+02  0.13005844433E+03  0.13325070843E+03  0.00000000000E+00 0. -1.
         -1    1    1    2    0  501 -0.26592445122E+02 -0.11549641537E+02  0.17296925796E+03  0.17538220137E+03  0.00000000000E+00 0.  1.
</event>
<event>
 4    1  0.6629728E+001  0.3370614E+02  0.7546771E-02  0.1389895E+00
          2   -1    0    0  502    0  0.00000000000E+00  0.00000000000E+00  0.11314579763E+04  0.11314579763E+04  0.00000000000E+00 0. -1.
         -2   -1    0    0    0  501 -0.00000000000E+00 -0.00000000000E+00 -0.10787333199E+01  0.10787333199E+01  0.00000000000E+00 0.  1.
          1    1    1    2  502    0  0.12555477438E+02  0.31280412347E+02  0.41624906722E+03  0.41761153022E+03  0.00000000000E+00 0.  1.
         -1    1    1    2    0  501 -0.12555477438E+02 -0.31280412347E+02  0.71413017577E+03  0.71492517941E+03  0.00000000000E+00 0. -1.
</event>
<event>
 4    1  0.6629728E+001  0.7023673E+02  0.7546771E-02  0.1228530E+00
          2   -1    0    0  502    0  0.00000000000E+00  0.00000000000E+00  0.11856373785E+02  0.11856373785E+02  0.00000000000E+00 0. -1.
         -2   -1    0    0    0  501 -0.00000000000E+00 -0.00000000000E+00 -0.52667347681E+03  0.52667347681E+03  0.00000000000E+00 0.  1.
          1    1    1    2  502    0 -0.22662912743E+02  0.66480005801E+02 -0.13402024057E+03  0.15130969456E+03  0.00000000000E+00 0. -1.
         -1    1    1    2    0  501  0.22662912743E+02 -0.66480005801E+02 -0.38079686245E+03  0.38722015604E+03  0.00000000000E+00 0.  1.
</event>
<event>
 4    1  0.6629728E+001  0.2306466E+02  0.7546771E-02  0.1491688E+00
          2   -1    0    0  502    0  0.00000000000E+00  0.00000000000E+00  0.81169101910E+02  0.81169101910E+02  0.00000000000E+00 0. -1.
         -2   -1    0    0    0  501 -0.00000000000E+00 -0.00000000000E+00 -0.91563803769E+01  0.91563803769E+01  0.00000000000E+00 0.  1.
          1    1    1    2  502    0  0.80893312229E+01  0.21599569991E+02  0.11929078774E+02  0.25966933277E+02  0.00000000000E+00 0.  1.
         -1    1    1    2    0  501 -0.80893312229E+01 -0.21599569991E+02  0.60083642759E+02  0.64358549009E+02  0.00000000000E+00 0. -1.
</event>
<event>
 4    1  0.6629728E+001  0.2034221E+02  0.7546771E-02  0.1528867E+00
          2   -1    0    0  502    0  0.00000000000E+00  0.00000000000E+00  0.12048539612E+04  0.12048539612E+04  0.00000000000E+00 0. -1.
         -2   -1    0    0    0  501 -0.00000000000E+00 -0.00000000000E+00 -0.36182872562E+00  0.36182872562E+00  0.00000000000E+00 0.  1.
          1    1    1    2  502    0 -0.57367608277E+01 -0.19516536905E+02  0.46642871239E+03  0.46687209102E+03  0.00000000000E+00 0. -1.
         -1    1    1    2    0  501  0.57367608277E+01  0.19516536905E+02  0.73806342012E+03  0.73834369893E+03  0.00000000000E+00 0.  1.
</event>
<event>
 4    1  0.6629728E+001  0.2095468E+02  0.7546771E-02  0.1519913E+00
          2   -1    0    0  502    0  0.00000000000E+00  0.00000000000E+00  0.10800411291E+01  0.10800411291E+01  0.00000000000E+00 0. -1.
         -2   -1    0    0    0  501 -0.00000000000E+00 -0.00000000000E+00 -0.41214148349E+03  0.41214148349E+03  0.00000000000E+00 0.  1.
          1    1    1    2  502    0 -0.11394507133E+02  0.17585902476E+02 -0.22958011270E+03  0.23053443757E+03  0.00000000000E+00 0. -1.
         -1    1    1    2    0  501  0.11394507133E+02 -0.17585902476E+02 -0.18148132965E+03  0.18268708704E+03  0.00000000000E+00 0.  1.
</event>
<event>
 4    1  0.6629728E+001  0.2070483E+02  0.7546771E-02  0.1523521E+00
          2   -1    0    0  502    0  0.00000000000E+00  0.00000000000E+00  0.39540961782E+02  0.39540961782E+02  0.00000000000E+00 0. -1.
         -2   -1    0    0    0  501 -0.00000000000E+00 -0.00000000000E+00 -0.11221289795E+02  0.11221289795E+02  0.00000000000E+00 0.  1.
          1    1    1    2  502    0 -0.16964776847E+02 -0.11869563068E+02  0.18828172524E+02  0.27985536648E+02  0.00000000000E+00 0.  1.
         -1    1    1    2    0  501  0.16964776847E+02  0.11869563068E+02  0.94914994624E+01  0.22776714929E+02  0.00000000000E+00 0. -1.
</event>
<event>
 4    1  0.6629728E+001  0.2209305E+02  0.7546771E-02  0.1504212E+00
          2   -1    0    0  502    0  0.00000000000E+00  0.00000000000E+00  0.11821188543E+01  0.11821188543E+01  0.00000000000E+00 0.  1.
         -2   -1    0    0    0  501 -0.00000000000E+00 -0.00000000000E+00 -0.59749469943E+03  0.59749469943E+03  0.00000000000E+00 0. -1.
          1    1    1    2  502    0  0.10123982417E+02  0.19636899684E+02 -0.13177706957E+03  0.13361623746E+03  0.00000000000E+00 0.  1.
         -1    1    1    2    0  501 -0.10123982417E+02 -0.19636899684E+02 -0.46453551101E+03  0.46506058082E+03  0.00000000000E+00 0. -1.
</event>
<event>
 4    1  0.6629728E+001  0.6037980E+02  0.7546771E-02  0.1258548E+00
          2   -1    0    0  502    0  0.00000000000E+00  0.00000000000E+00  0.78926431787E+03  0.78926431787E+03  0.00000000000E+00 0. -1.
         -2   -1    0    0    0  501 -0.00000000000E+00 -0.00000000000E+00 -0.55219051975E+01  0.55219051975E+01  0.00000000000E+00 0.  1.
          1    1    1    2  502    0 -0.25919694211E+02  0.54533378511E+02  0.23119039503E+03  0.23894501182E+03  0.00000000000E+00 0.  1.
         -1    1    1    2    0  501  0.25919694211E+02 -0.54533378511E+02  0.55255201764E+03  0.55584121124E+03  0.00000000000E+00 0. -1.
</event>
<event>
 4    1  0.6629728E+001  0.2150159E+02  0.7546771E-02  0.1512222E+00
          2   -1    0    0  502    0  0.00000000000E+00  0.00000000000E+00  0.15828330917E+04  0.15828330917E+04  0.00000000000E+00 0.  1.
         -2   -1    0    0    0  501 -0.00000000000E+00 -0.00000000000E+00 -0.46115849922E+00  0.46115849922E+00  0.00000000000E+00 0. -1.
          1    1    1    2  502    0  0.19561555600E+02  0.89254723058E+01  0.31184232531E+03  0.31258271604E+03  0.00000000000E+00 0. -1.
         -1    1    1    2    0  501 -0.19561555600E+02 -0.89254723058E+01  0.12705296079E+04  0.12707115342E+04  0.00000000000E+00 0.  1.
</event>
<event>
 4    1  0.6629728E+001  0.2117684E+02  0.7546771E-02  0.1516755E+00
          2   -1    0    0  502    0  0.00000000000E+00  0.00000000000E+00  0.22965958463E+03  0.22965958463E+03  0.00000000000E+00 0. -1.
         -2   -1    0    0    0  501 -0.00000000000E+00 -0.00000000000E+00 -0.32118654085E+01  0.32118654085E+01  0.00000000000E+00 0.  1.
          1    1    1    2  502    0  0.21115005519E+02  0.16171338561E+01  0.40320550598E+02  0.45543444978E+02  0.00000000000E+00 0. -1.
         -1    1    1    2    0  501 -0.21115005519E+02 -0.16171338561E+01  0.18612716863E+03  0.18732800506E+03  0.00000000000E+00 0.  1.
</event>
<event>
 4    1  0.6629728E+001  0.2122800E+02  0.7546771E-02  0.1516034E+00
          2   -1    0    0  502    0  0.00000000000E+00  0.00000000000E+00  0.94048736873E+03  0.94048736873E+03  0.00000000000E+00 0.  1.
         -2   -1    0    0    0  501 -0.00000000000E+00 -0.00000000000E+00 -0.56115936605E+00  0.56115936605E+00  0.00000000000E+00 0. -1.
          1    1    1    2  502    0  0.15828576754E+02 -0.14145108360E+02  0.29008048798E+03  0.29085617999E+03  0.00000000000E+00 0. -1.
         -1    1    1    2    0  501 -0.15828576754E+02  0.14145108360E+02  0.64984572138E+03  0.65019234810E+03  0.00000000000E+00 0.  1.
</event>
<event>
 4    1  0.6629728E+001  0.2164466E+02  0.7546771E-02  0.1510257E+00
          2   -1    0    0  502    0  0.00000000000E+00  0.00000000000E+00  0.29554013672E+03  0.29554013672E+03  0.00000000000E+00 0. -1.
         -2   -1    0    0    0  501 -0.00000000000E+00 -0.00000000000E+00 -0.28876694241E+01  0.28876694241E+01  0.00000000000E+00 0.  1.
          1    1    1    2  502    0  0.46915369915E+01  0.21130088067E+02  0.24653802026E+03  0.24748633613E+03  0.00000000000E+00 0. -1.
         -1    1    1    2    0  501 -0.46915369915E+01 -0.21130088067E+02  0.46114447041E+02  0.50941470012E+02  0.00000000000E+00 0.  1.
</event>
<event>
 4    1  0.6629728E+001  0.2080034E+02  0.7546771E-02  0.1522135E+00
          2   -1    0    0  502    0  0.00000000000E+00  0.00000000000E+00  0.47319924647E+01  0.47319924647E+01  0.00000000000E+00 0. -1.
         -2   -1    0    0    0  501 -0.00000000000E+00 -0.00000000000E+00 -0.11967147592E+03  0.11967147592E+03  0.00000000000E+00 0.  1.
          1    1    1    2  502    0  0.53372229000E+01 -0.20103937341E+02 -0.27253699261E+02  0.34284374988E+02  0.00000000000E+00 0. -1.
         -1    1    1    2    0  501 -0.53372229000E+01  0.20103937341E+02 -0.87685784198E+02  0.90119093400E+02  0.00000000000E+00 0.  1.
</event>
<event>
 4    1 -0.6629728E+001  0.4347801E+02  0.7546771E-02  0.1329228E+00
          2   -1    0    0  502    0  0.00000000000E+00  0.00000000000E+00  0.50859645406E+00  0.50859645406E+00  0.00000000000E+00 0. -1.
         -2   -1    0    0    0  501 -0.00000000000E+00 -0.00000000000E+00 -0.37760477962E+04  0.37760477962E+04  0.00000000000E+00 0.  1.
          1    1    1    2  502    0 -0.36681355101E+02  0.23341277394E+02 -0.21243539754E+04  0.21247988492E+04  0.00000000000E+00 0. -1.
         -1    1    1    2    0  501  0.36681355101E+02 -0.23341277394E+02 -0.16511852243E+04  0.16517575434E+04  0.00000000000E+00 0.  1.
</event>
<event>
 4    1  0.6629728E+001  0.2060367E+02  0.7546771E-02  0.1524999E+00
          2   -1    0    0  502    0  0.00000000000E+00  0.00000000000E+00  0.23925569563E+02  0.23925569563E+02  0.00000000000E+00 0. -1.
         -2   -1    0    0    0  501 -0.00000000000E+00 -0.00000000000E+00 -0.42349590414E+02  0.42349590414E+02  0.00000000000E+00 0.  1.
          1    1    1    2  502    0 -0.41879062460E+01  0.20173560946E+02 -0.34471350397E+02  0.40159495990E+02  0.00000000000E+00 0.  1.
         -1    1    1    2    0  501  0.41879062460E+01 -0.20173560946E+02  0.16047329545E+02  0.26115663987E+02  0.00000000000E+00 0. -1.
</event>
<event>
 4    1  0.6629728E+001  0.2515999E+02  0.7546771E-02  0.1467022E+00
          2   -1    0    0  502    0  0.00000000000E+00  0.00000000000E+00  0.94439708596E+02  0.94439708596E+02  0.00000000000E+00 0.  1.
         -2   -1    0    0    0  501 -0.00000000000E+00 -0.00000000000E+00 -0.68100446152E+01  0.68100446152E+01  0.00000000000E+00 0. -1.
          1    1    1    2  502    0  0.24820425399E+02 -0.41196297298E+01  0.37466376720E+02  0.45130413810E+02  0.00000000000E+00 0.  1.
         -1    1    1    2    0  501 -0.24820425399E+02  0.41196297298E+01  0.50163287261E+02  0.56119339402E+02  0.00000000000E+00 0. -1.
</event>
<event>
 4    1  0.6629728E+001  0.2538206E+02  0.7546771E-02  0.1464574E+00
          2   -1    0    0  502    0  0.00000000000E+00  0.00000000000E+00  0.22822416361E+02  0.22822416361E+02  0.00000000000E+00 0. -1.
         -2   -1    0    0    0  501 -0.00000000000E+00 -0.00000000000E+00 -0.28318075626E+02  0.28318075626E+02  0.00000000000E+00 0.  1.
          1    1    1    2  502    0  0.23066000781E+02  0.10592856866E+02 -0.13119631023E+01  0.25415944912E+02  0.00000000000E+00 0. -1.
         -1    1    1    2    0  501 -0.23066000781E+02 -0.10592856866E+02 -0.41836961623E+01  0.25724547074E+02  0.00000000000E+00 0.  1.
</event>
<event>
 4    1  0.6629728E+001  0.3312543E+02  0.7546771E-02  0.1394244E+00
          2   -1    0    0  502    0  0.00000000000E+00  0.00000000000E+00  0.33756258735E+02  0.33756258735E+02  0.00000000000E+00 0.  1.
         -2   -1    0    0    0  501 -0.00000000000E+00 -0.00000000000E+00 -0.39096660627E+02  0.39096660627E+02  0.00000000000E+00 0. -1.
          1    1    1    2  502    0 -0.32522936561E+02  0.62890929440E+01 -0.17625626470E+02  0.37522750446E+02  0.00000000000E+00 0. -1.
         -1    1    1    2    0  501  0.32522936561E+02 -0.62890929440E+01  0.12285224578E+02  0.35330168915E+02  0.00000000000E+00 0.  1.
</event>
<event>
 4    1  0.6629728E+001  0.6068754E+02  0.7546771E-02  0.1257514E+00
          2   -1    0    0  502    0  0.00000000000E+00  0.00000000000E+00  0.43521263103E+03  0.43521263103E+03  0.00000000000E+00 0. -1.
         -2   -1    0    0    0  501 -0.00000000000E+00 -0.00000000000E+00 -0.15541081219E+02  0.15541081219E+02  0.00000000000E+00 0.  1.
          1    1    1    2  502    0 -0.46772843121E+02  0.38668840858E+02  0.57731146223E+02  0.83760750660E+02  0.00000000000E+00 0.  1.
         -1    1    1    2    0  501  0.46772843121E+02 -0.38668840858E+02  0.36194040359E+03  0.36699296159E+03  0.00000000000E+00 0. -1.
</event>
<event>
 4    1  0.6629728E+001  0.2023184E+02  0.7546771E-02  0.1530521E+00
          2   -1    0    0  502    0  0.00000000000E+00  0.00000000000E+00  0.23762663801E+03  0.23762663801E+03  0.00000000000E+00 0.  1.
         -2   -1    0    0    0  501 -0.00000000000E+00 -0.00000000000E+00 -0.59532070078E+01  0.59532070078E+01  0.00000000000E+00 0. -1.
          1    1    1    2  502    0  0.72819104023E+01 -0.18875940666E+02  0.13167795126E+02  0.24139556409E+02  0.00000000000E+00 0. -1.
         -1    1    1    2    0  501 -0.72819104023E+01  0.18875940666E+02  0.21850563588E+03  0.21944028861E+03  0.00000000000E+00 0.  1.
</event>
<event>
 4    1  0.6629728E+001  0.4228884E+02  0.7546771E-02  0.1335571E+00
          2   -1    0    0  502    0  0.00000000000E+00  0.00000000000E+00  0.12558266368E+04  0.12558266368E+04  0.00000000000E+00 0.  1.
         -2   -1    0    0    0  501 -0.00000000000E+00 -0.00000000000E+00 -0.15085943842E+01  0.15085943842E+01  0.00000000000E+00 0. -1.
          1    1    1    2  502    0  0.26722246376E+02 -0.32776019334E+02  0.47832373204E+03  0.48018948190E+03  0.00000000000E+00 0.  1.
         -1    1    1    2    0  501 -0.26722246376E+02  0.32776019334E+02  0.77599431040E+03  0.77714574931E+03  0.00000000000E+00 0. -1.
</event>
<event>
 4    1  0.6629728E+001  0.4339499E+02  0.7546771E-02  0.1329663E+00
          2   -1    0    0  502    0  0.00000000000E+00  0.00000000000E+00  0.17918609486E+02  0.17918609486E+02  0.00000000000E+00 0. -1.
         -2   -1    0    0    0  501 -0.00000000000E+00 -0.00000000000E+00 -0.38112349565E+03  0.38112349565E+03  0.00000000000E+00 0.  1.
          1    1    1    2  502    0 -0.37640779810E+02  0.21593897892E+02 -0.35140108382E+03  0.35407039758E+03  0.00000000000E+00 0.  1.
         -1    1    1    2    0  501  0.37640779810E+02 -0.21593897892E+02 -0.11803802344E+02  0.44971707558E+02  0.00000000000E+00 0. -1.
</event>
<event>
 4    1  0.6629728E+001  0.2388879E+02  0.7546771E-02  0.1481629E+00
          2   -1    0    0  502    0  0.00000000000E+00  0.00000000000E+00  0.91466095700E+03  0.91466095700E+03  0.00000000000E+00 0.  1.
         -2   -1    0    0    0  501 -0.00000000000E+00 -0.00000000000E+00 -0.88305569858E+00  0.88305569858E+00  0.00000000000E+00 0. -1.
          1    1    1    2  502    0  0.21740645745E+02 -0.99004436651E+01  0.20890730363E+03  0.21026872324E+03  0.00000000000E+00 0. -1.
         -1    1    1    2    0  501 -0.21740645745E+02  0.99004436651E+01  0.70487059767E+03  0.70527528946E+03  0.00000000000E+00 0.  1.
</event>
<event>
 4    1  0.6629728E+001  0.2342385E+02  0.7546771E-02  0.1487243E+00
          2   -1    0    0  502    0  0.00000000000E+00  0.00000000000E+00  0.12692491041E+04  0.12692491041E+04  0.00000000000E+00 0.  1.
         -2   -1    0    0    0  501 -0.00000000000E+00 -0.00000000000E+00 -0.94190451140E+00  0.94190451140E+00  0.00000000000E+00 0. -1.
          1    1    1    2  502    0 -0.23059937564E+02 -0.41128866091E+01  0.16700087158E+03  0.16863560616E+03  0.00000000000E+00 0. -1.
         -1    1    1    2    0  501  0.23059937564E+02  0.41128866091E+01  0.11013063280E+04  0.11015554024E+04  0.00000000000E+00 0.  1.
</event>
<event>
 4    1  0.6629728E+001  0.2132782E+02  0.7546771E-02  0.1514636E+00
          2   -1    0    0  502    0  0.00000000000E+00  0.00000000000E+00  0.19048205333E+04  0.19048205333E+04  0.00000000000E+00 0. -1.
         -2   -1    0    0    0  501 -0.00000000000E+00 -0.00000000000E+00 -0.25352947481E+00  0.25352947481E+00  0.00000000000E+00 0.  1.
          1    1    1    2  502    0  0.24584340680E+01 -0.21185652735E+02  0.72270808383E+03  0.72302271763E+03  0.00000000000E+00 0.  1.
         -1    1    1    2    0  501 -0.24584340680E+01  0.21185652735E+02  0.11818589200E+04  0.11820513452E+04  0.00000000000E+00 0. -1.
</event>
<event>
 4    1  0.6629728E+001  0.2214445E+02  0.7546771E-02  0.1503530E+00
          2   -1    0    0  502    0  0.00000000000E+00  0.00000000000E+00  0.37410852494E+02  0.37410852494E+02  0.00000000000E+00 0.  1.
         -2   -1    0    0    0  501 -0.00000000000E+00 -0.00000000000E+00 -0.14446835470E+02  0.14446835470E+02  0.00000000000E+00 0. -1.
          1    1    1    2  502    0 -0.20397454966E+02 -0.86209378186E+01  0.35883044048E+01  0.22433293705E+02  0.00000000000E+00 0. -1.
         -1    1    1    2    0  501  0.20397454966E+02  0.86209378186E+01  0.19375712619E+02  0.29424394258E+02  0.00000000000E+00 0.  1.
</event>
<event>
 4    1  0.6629728E+001  0.2415513E+02  0.7546771E-02  0.1478481E+00
          2   -1    0    0  502    0  0.00000000000E+00  0.00000000000E+00  0.13125760728E+04  0.13125760728E+04  0.00000000000E+00 0.  1.
         -2   -1    0    0    0  501 -0.00000000000E+00 -0.00000000000E+00 -0.45250458050E+00  0.45250458050E+00  0.00000000000E+00 0. -1.
          1    1    1    2  502    0  0.56730531795E+00 -0.24148466597E+02  0.74325379884E+03  0.74364620605E+03  0.00000000000E+00 0. -1.
         -1    1    1    2    0  501 -0.56730531795E+00  0.24148466597E+02  0.56886976941E+03  0.56938237137E+03  0.00000000000E+00 0.  1.
</event>
<event>
 4    1  0.6629728E+001  0.4107209E+02  0.7546771E-02  0.1342315E+00
          2   -1    0    0  502    0  0.00000000000E+00  0.00000000000E+00  0.56625762460E+03  0.56625762460E+03  0.00000000000E+00 0.  1.
         -2   -1    0    0    0  501 -0.00000000000E+00 -0.00000000000E+00 -0.30727550111E+01  0.30727550111E+01  0.00000000000E+00 0. -1.
          1    1    1    2  502    0  0.41032046150E+02  0.18131356176E+01  0.23188455726E+03  0.23549387289E+03  0.00000000000E+00 0.  1.
         -1    1    1    2    0  501 -0.41032046150E+02 -0.18131356176E+01  0.33130031233E+03  0.33383650672E+03  0.00000000000E+00 0. -1.
</event>
<event>
 4    1  0.6629728E+001  0.2999153E+02  0.7546771E-02  0.1419670E+00
          2   -1    0    0  502    0  0.00000000000E+00  0.00000000000E+00  0.15329310053E+04  0.15329310053E+04  0.00000000000E+00 0. -1.
         -2   -1    0    0    0  501 -0.00000000000E+00 -0.00000000000E+00 -0.59040914349E+00  0.59040914349E+00  0.00000000000E+00 0.  1.
          1    1    1    2  502    0 -0.25821979916E+02 -0.15255072590E+02  0.82629304325E+03  0.82683715761E+03  0.00000000000E+00 0.  1.
         -1    1    1    2    0  501  0.25821979916E+02  0.15255072590E+02  0.70604755292E+03  0.70668425684E+03  0.00000000000E+00 0. -1.
</event>
<event>
 4    1  0.6629728E+001  0.3341443E+02  0.7546771E-02  0.1392066E+00
          2   -1    0    0  502    0  0.00000000000E+00  0.00000000000E+00  0.42698248589E+03  0.42698248589E+03  0.00000000000E+00 0.  1.
         -2   -1    0    0    0  501 -0.00000000000E+00 -0.00000000000E+00 -0.30042526163E+01  0.30042526163E+01  0.00000000000E+00 0. -1.
          1    1    1    2  502    0 -0.11440041966E+02 -0.31395052153E+02  0.28938516370E+03  0.29130790725E+03  0.00000000000E+00 0.  1.
         -1    1    1    2    0  501  0.11440041966E+02  0.31395052153E+02  0.13459306958E+03  0.13867883126E+03  0.00000000000E+00 0. -1.
</event>
<event>
 4    1  0.6629728E+001  0.2328655E+02  0.7546771E-02  0.1488931E+00
          2   -1    0    0  502    0  0.00000000000E+00  0.00000000000E+00  0.13726913123E+03  0.13726913123E+03  0.00000000000E+00 0. -1.
         -2   -1    0    0    0  501 -0.00000000000E+00 -0.00000000000E+00 -0.48312976807E+01  0.48312976807E+01  0.00000000000E+00 0.  1.
          1    1    1    2  502    0  0.19863727136E+02  0.12153011135E+02  0.96558147252E+02  0.99326427179E+02  0.00000000000E+00 0. -1.
         -1    1    1    2    0  501 -0.19863727136E+02 -0.12153011135E+02  0.35879686300E+02  0.42774001735E+02  0.00000000000E+00 0.  1.
</event>
<event>
 4    1  0.6629728E+001  0.4652930E+02  0.7546771E-02  0.1313965E+00
          2   -1    0    0  502    0  0.00000000000E+00  0.00000000000E+00  0.22569849472E+02  0.22569849472E+02  0.00000000000E+00 0.  1.
         -2   -1    0    0    0  501 -0.00000000000E+00 -0.00000000000E+00 -0.12869761461E+03  0.12869761461E+03  0.00000000000E+00 0. -1.
          1    1    1    2  502    0  0.18544226995E+02 -0.42674198754E+02 -0.91231649603E+02  0.10241186203E+03  0.00000000000E+00 0. -1.
         -1    1    1    2    0  501 -0.18544226995E+02  0.42674198754E+02 -0.14896115534E+02  0.48855602055E+02  0.00000000000E+00 0.  1.
</event>
<event>
 4    1  0.6629728E+001  0.2852623E+02  0.7546771E-02  0.1432851E+00
          2   -1    0    0  502    0  0.00000000000E+00  0.00000000000E+00  0.20171527587E+03  0.20171527587E+03  0.00000000000E+00 0.  1.
         -2   -1    0    0    0  501 -0.00000000000E+00 -0.00000000000E+00 -0.78210837935E+01  0.78210837935E+01  0.00000000000E+00 0. -1.
          1    1    1    2  502    0 -0.28462326832E+02 -0.19083087693E+01  0.24044848159E+02  0.37308181597E+02  0.00000000000E+00 0. -1.
         -1    1    1    2    0  501  0.28462326832E+02  0.19083087693E+01  0.16984934392E+03  0.17222817807E+03  0.00000000000E+00 0.  1.
</event>
<event>
 4    1  0.6629728E+001  0.2113284E+02  0.7546771E-02  0.1517377E+00
          2   -1    0    0  502    0  0.00000000000E+00  0.00000000000E+00  0.75257732397E+01  0.75257732397E+01  0.00000000000E+00 0.  1.
         -2   -1    0    0    0  501 -0.00000000000E+00 -0.00000000000E+00 -0.66836502635E+02  0.66836502635E+02  0.00000000000E+00 0. -1.
          1    1    1    2  502    0 -0.47777042396E+01 -0.20585688058E+02 -0.17205136451E+02  0.27250940001E+02  0.00000000000E+00 0.  1.
         -1    1    1    2    0  501  0.47777042396E+01  0.20585688058E+02 -0.42105592944E+02  0.47111335874E+02  0.00000000000E+00 0. -1.
</event>
<event>
 4    1  0.6629728E+001  0.2035586E+02  0.7546771E-02  0.1528664E+00
          2   -1    0    0  502    0  0.00000000000E+00  0.00000000000E+00  0.12119773609E+04  0.12119773609E+04  0.00000000000E+00 0.  1.
         -2   -1    0    0    0  501 -0.00000000000E+00 -0.00000000000E+00 -0.44631362093E+00  0.44631362093E+00  0.00000000000E+00 0. -1.
          1    1    1    2  502    0 -0.14157033072E+02  0.14626663967E+02  0.31253630496E+03  0.31319850383E+03  0.00000000000E+00 0.  1.
         -1    1    1    2    0  501  0.14157033072E+02 -0.14626663967E+02  0.89899474230E+03  0.89922517067E+03  0.00000000000E+00 0. -1.
</event>
<event>
 4    1  0.6629728E+001  0.5782602E+02  0.7546771E-02  0.1267403E+00
          2   -1    0    0  502    0  0.00000000000E+00  0.00000000000E+00  0.15501150414E+04  0.15501150414E+04  0.00000000000E+00 0. -1.
         -2   -1    0    0    0  501 -0.00000000000E+00 -0.00000000000E+00 -0.25511489472E+01  0.25511489472E+01  0.00000000000E+00 0.  1.
          1    1    1    2  502    0  0.27370797110E+02 -0.50938081794E+02  0.10788672628E+04  0.10804158549E+04  0.00000000000E+00 0.  1.
         -1    1    1    2    0  501 -0.27370797110E+02  0.50938081794E+02  0.46869662968E+03  0.47225033551E+03  0.00000000000E+00 0. -1.
</event>
<event>
 4    1  0.6629728E+001  0.2203048E+02  0.7546771E-02  0.1505045E+00
          2   -1    0    0  502    0  0.00000000000E+00  0.00000000000E+00  0.13300571989E+01  0.13300571989E+01  0.00000000000E+00 0.  1.
         -2   -1    0    0    0  501 -0.00000000000E+00 -0.00000000000E+00 -0.54643532086E+03  0.54643532086E+03  0.00000000000E+00 0. -1.
          1    1    1    2  502    0  0.19616411467E+02  0.10026889285E+02 -0.11469268197E+03  0.11678935485E+03  0.00000000000E+00 0. -1.
         -1    1    1    2    0  501 -0.19616411467E+02 -0.10026889285E+02 -0.43041258169E+03  0.43097602321E+03  0.00000000000E+00 0.  1.
</event>
<event>
 4    1  0.6629728E+001  0.2015650E+02  0.7546771E-02  0.1531657E+00
          2   -1    0    0  502    0  0.00000000000E+00  0.00000000000E+00  0.38961468029E+03  0.38961468029E+03  0.00000000000E+00 0. -1.
         -2   -1    0    0    0  501 -0.00000000000E+00 -0.00000000000E+00 -0.10561778305E+01  0.10561778305E+01  0.00000000000E+00 0.  1.
          1    1    1    2  502    0  0.20136856341E+02 -0.88964358515E+00  0.17228321994E+03  0.17345833022E+03  0.00000000000E+00 0. -1.
         -1    1    1    2    0  501 -0.20136856341E+02  0.88964358515E+00  0.21627528252E+03  0.21721252790E+03  0.00000000000E+00 0.  1.
</event>
<event>
 4    1  0.6629728E+001  0.2547382E+02  0.7546771E-02  0.1463572E+00
          2   -1    0    0  502    0  0.00000000000E+00  0.00000000000E+00  0.86374423601E+01  0.86374423601E+01  0.00000000000E+00 0. -1.
         -2   -1    0    0    0  501 -0.00000000000E+00 -0.00000000000E+00 -0.76703576290E+02  0.76703576290E+02  0.00000000000E+00 0.  1.
          1    1    1    2  502    0  0.14452777666E+02  0.20976958904E+02 -0.27917865970E+02  0.37793158474E+02  0.00000000000E+00 0. -1.
         -1    1    1    2    0  501 -0.14452777666E+02 -0.20976958904E+02 -0.40148267960E+02  0.47547860176E+02  0.00000000000E+00 0.  1.
</event>
<event>
 4    1  0.6629728E+001  0.3137748E+02  0.7546771E-02  0.1407992E+00
          2   -1    0    0  502    0  0.00000000000E+00  0.00000000000E+00  0.68170754087E+03  0.68170754087E+03  0.00000000000E+00 0. -1.
         -2   -1    0    0    0  501 -0.00000000000E+00 -0.00000000000E+00 -0.14591353189E+01  0.14591353189E+01  0.00000000000E+00 0.  1.
          1    1    1    2  502    0 -0.10613864140E+02 -0.29527819241E+02  0.37464172415E+03  0.37595341160E+03  0.00000000000E+00 0. -1.
         -1    1    1    2    0  501  0.10613864140E+02  0.29527819241E+02  0.30560668140E+03  0.30721326459E+03  0.00000000000E+00 0.  1.
</event>
<event>
 4    1  0.6629728E+001  0.6253133E+02  0.7546771E-02  0.1251466E+00
          2   -1    0    0  502    0  0.00000000000E+00  0.00000000000E+00  0.79968027799E+03  0.79968027799E+03  0.00000000000E+00 0.  1.
         -2   -1    0    0    0  501 -0.00000000000E+00 -0.00000000000E+00 -0.56762379880E+01  0.56762379880E+01  0.00000000000E+00 0. -1.
          1    1    1    2  502    0 -0.50289383642E+02  0.37163758824E+02  0.24710329254E+03  0.25489253473E+03  0.00000000000E+00 0. -1.
         -1    1    1    2    0  501  0.50289383642E+02 -0.37163758824E+02  0.54690074746E+03  0.55046398124E+03  0.00000000000E+00 0.  1.
</event>
<event>
 4    1  0.6629728E+001  0.3461871E+02  0.7546771E-02  0.1383264E+00
          2   -1    0    0  502    0  0.00000000000E+00  0.00000000000E+00  0.31688776163E+03  0.31688776163E+03  0.00000000000E+00 0.  1.
         -2   -1    0    0    0  501 -0.00000000000E+00 -0.00000000000E+00 -0.38650327428E+01  0.38650327428E+01  0.00000000000E+00 0. -1.
          1    1    1    2  502    0 -0.31791516228E+02  0.13702345688E+02  0.13299825253E+03  0.13742994563E+03  0.00000000000E+00 0.  1.
         -1    1    1    2    0  501  0.31791516228E+02 -0.13702345688E+02  0.18002447636E+03  0.18332284874E+03  0.00000000000E+00 0. -1.
</event>
<event>
 4    1  0.6629728E+001  0.3029757E+02  0.7546771E-02  0.1417028E+00
          2   -1    0    0  502    0  0.00000000000E+00  0.00000000000E+00  0.18127391026E+04  0.18127391026E+04  0.00000000000E+00 0. -1.
         -2   -1    0    0    0  501 -0.00000000000E+00 -0.00000000000E+00 -0.53675702444E+00  0.53675702444E+00  0.00000000000E+00 0.  1.
          1    1    1    2  502    0 -0.30007695222E+02  0.41809953915E+01  0.11217700065E+04  0.11221790811E+04  0.00000000000E+00 0. -1.
         -1    1    1    2    0  501  0.30007695222E+02 -0.41809953915E+01  0.69043233906E+03  0.69109677854E+03  0.00000000000E+00 0.  1.
</event>
<event>
 4    1  0.6629728E+001  0.2407498E+02  0.7546771E-02  0.1479423E+00
          2   -1    0    0  502    0  0.00000000000E+00  0.00000000000E+00  0.90911597597E+03  0.90911597597E+03  0.00000000000E+00 0.  1.
         -2   -1    0    0    0  501 -0.00000000000E+00 -0.00000000000E+00 -0.63766571136E+00  0.63766571136E+00  0.00000000000E+00 0. -1.
          1    1    1    2  502    0  0.20769966341E+02  0.12174274630E+02  0.46043693453E+03  0.46106591193E+03  0.00000000000E+00 0. -1.
         -1    1    1    2    0  501 -0.20769966341E+02 -0.12174274630E+02  0.44804137573E+03  0.44868772976E+03  0.00000000000E+00 0.  1.
</event>
<event>
 4    1  0.6629728E+001  0.3256890E+02  0.7546771E-02  0.1398510E+00
          2   -1    0    0  502    0  0.00000000000E+00  0.00000000000E+00  0.10021953556E+03  0.10021953556E+03  0.00000000000E+00 0. -1.
         -2   -1    0    0    0  501 -0.00000000000E+00 -0.00000000000E+00 -0.10868341785E+02  0.10868341785E+02  0.00000000000E+00 0.  1.
          1    1    1    2  502    0  0.24766236997E+02 -0.21151053400E+02  0.35693055466E+02  0.48319020721E+02  0.00000000000E+00 0. -1.
         -1    1    1    2    0  501 -0.24766236997E+02  0.21151053400E+02  0.53658138305E+02  0.62768856619E+02  0.00000000000E+00 0.  1.
</event>
<event>
 4    1  0.6629728E+001  0.2122840E+02  0.7546771E-02  0.1516029E+00
          2   -1    0    0  502    0  0.00000000000E+00  0.00000000000E+00  0.49430417311E+03  0.49430417311E+03  0.00000000000E+00 0. -1.
         -2   -1    0    0    0  501 -0.00000000000E+00 -0.00000000000E+00 -0.11275499414E+01  0.11275499414E+01  0.00000000000E+00 0.  1.
          1    1    1    2  502    0  0.14194484287E+02  0.15784852591E+02  0.35497766733E+03  0.35561185196E+03  0.00000000000E+00 0. -1.
         -1    1    1    2    0  501 -0.14194484287E+02 -0.15784852591E+02  0.13819895583E+03  0.13981987108E+03  0.00000000000E+00 0.  1.
</event>
<event>
 4    1  0.6629728E+001  0.2806104E+02  0.7546771E-02  0.1437231E+00
          2   -1    0    0  502    0  0.00000000000E+00  0.00000000000E+00  0.89770683626E+03  0.89770683626E+03  0.00000000000E+00 0.  1.
         -2   -1    0    0    0  501 -0.00000000000E+00 -0.00000000000E+00 -0.95304079755E+00  0.95304079755E+00  0.00000000000E+00 0. -1.
          1    1    1    2  502    0  0.23639372923E+02 -0.15119592280E+02  0.57517391590E+03  0.57585801683E+03  0.00000000000E+00 0.  1.
         -1    1    1    2    0  501 -0.23639372923E+02  0.15119592280E+02  0.32157987956E+03  0.32280186022E+03  0.00000000000E+00 0. -1.
</event>
<event>
 4    1  0.6629728E+001  0.2110793E+02  0.7546771E-02  0.1517729E+00
          2   -1    0    0  502    0  0.00000000000E+00  0.00000000000E+00  0.29601194000E+02  0.29601194000E+02  0.00000000000E+00 0.  1.
         -2   -1    0    0    0  501 -0.00000000000E+00 -0.00000000000E+00 -0.37213565553E+02  0.37213565553E+02  0.00000000000E+00 0. -1.
          1    1    1    2  502    0 -0.13331243916E+02 -0.16365289013E+02 -0.29586968768E+02  0.36344648433E+02  0.00000000000E+00 0. -1.
         -1    1    1    2    0  501  0.13331243916E+02  0.16365289013E+02  0.21974597216E+02  0.30470111119E+02  0.00000000000E+00 0.  1.
</event>
<event>
 4    1  0.6629728E+001  0.2397030E+02  0.7546771E-02  0.1480661E+00
          2   -1    0    0  502    0  0.00000000000E+00  0.00000000000E+00  0.13852862075E+04  0.13852862075E+04  0.00000000000E+00 0.  1.
         -2   -1    0    0    0  501 -0.00000000000E+00 -0.00000000000E+00 -0.72131291890E+00  0.72131291890E+00  0.00000000000E+00 0. -1.
          1    1    1    2  502    0  0.77564716335E+01 -0.22680662521E+02  0.11440544427E+04  0.11443055288E+04  0.00000000000E+00 0.  1.
         -1    1    1    2    0  501 -0.77564716335E+01  0.22680662521E+02  0.24051045190E+03  0.24170199167E+03  0.00000000000E+00 0. -1.
</event>
<event>
 4    1  0.6629728E+001  0.3691591E+02  0.7546771E-02  0.1367572E+00
          2   -1    0    0  502    0  0.00000000000E+00  0.00000000000E+00  0.31675189815E+03  0.31675189815E+03  0.00000000000E+00 0. -1.
         -2   -1    0    0    0  501 -0.00000000000E+00 -0.00000000000E+00 -0.50991304462E+01  0.50991304462E+01  0.00000000000E+00 0.  1.
          1    1    1    2  502    0  0.36743329584E+02 -0.35653847408E+01  0.92214185190E+02  0.99328949392E+02  0.00000000000E+00 0.  1.
         -1    1    1    2    0  501 -0.36743329584E+02  0.35653847408E+01  0.21943858252E+03  0.22252207921E+03  0.00000000000E+00 0. -1.
</event>
<event>
 4    1  0.6629728E+001  0.2293494E+02  0.7546771E-02  0.1493317E+00
          2   -1    0    0  502    0  0.00000000000E+00  0.00000000000E+00  0.11971126170E+04  0.11971126170E+04  0.00000000000E+00 0.  1.
         -2   -1    0    0    0  501 -0.00000000000E+00 -0.00000000000E+00 -0.51752957655E+00  0.51752957655E+00  0.00000000000E+00 0. -1.
          1    1    1    2  502    0 -0.21764791099E+02 -0.72322400528E+01  0.83096333711E+03  0.83127978386E+03  0.00000000000E+00 0.  1.
         -1    1    1    2    0  501  0.21764791099E+02  0.72322400528E+01  0.36563175035E+03  0.36635036275E+03  0.00000000000E+00 0. -1.
</event>
<event>
 4    1  0.6629728E+001  0.3420329E+02  0.7546771E-02  0.1386252E+00
          2   -1    0    0  502    0  0.00000000000E+00  0.00000000000E+00  0.43654423047E+03  0.43654423047E+03  0.00000000000E+00 0. -1.
         -2   -1    0    0    0  501 -0.00000000000E+00 -0.00000000000E+00 -0.32381318523E+01  0.32381318523E+01  0.00000000000E+00 0.  1.
          1    1    1    2  502    0 -0.31868938160E+02  0.12419172541E+02  0.12534807848E+03  0.12993077327E+03  0.00000000000E+00 0.  1.
         -1    1    1    2    0  501  0.31868938160E+02 -0.12419172541E+02  0.30795802014E+03  0.30985158905E+03  0.00000000000E+00 0. -1.
</event>
<event>
 4    1  0.6629728E+001  0.3977264E+02  0.7546771E-02  0.1349823E+00
          2   -1    0    0  502    0  0.00000000000E+00  0.00000000000E+00  0.99052638255E+03  0.99052638255E+03  0.00000000000E+00 0.  1.
         -2   -1    0    0    0  501 -0.00000000000E+00 -0.00000000000E+00 -0.20503561849E+01  0.20503561849E+01  0.00000000000E+00 0. -1.
          1    1    1    2  502    0  0.38262414410E+02  0.10855899999E+02  0.72760689361E+03  0.72869311411E+03  0.00000000000E+00 0.  1.
         -1    1    1    2    0  501 -0.38262414410E+02 -0.10855899999E+02  0.26086913276E+03  0.26388362463E+03  0.00000000000E+00 0. -1.
</event>
<event>
 4    1  0.6629728E+001  0.2969197E+02  0.7546771E-02  0.1422292E+00
          2   -1    0    0  502    0  0.00000000000E+00  0.00000000000E+00  0.15961588522E+04  0.15961588522E+04  0.00000000000E+00 0.  1.
         -2   -1    0    0    0  501 -0.00000000000E+00 -0.00000000000E+00 -0.99075951837E+00  0.99075951837E+00  0.00000000000E+00 0. -1.
          1    1    1    2  502    0  0.28428933077E+02  0.85678876274E+01  0.13288100789E+04  0.13291417678E+04  0.00000000000E+00 0.  1.
         -1    1    1    2    0  501 -0.28428933077E+02 -0.85678876274E+01  0.26635801374E+03  0.26800784395E+03  0.00000000000E+00 0. -1.
</event>
<event>
 4    1  0.6629728E+001  0.2443655E+02  0.7546771E-02  0.1475206E+00
          2   -1    0    0  502    0  0.00000000000E+00  0.00000000000E+00  0.86631142216E+03  0.86631142216E+03  0.00000000000E+00 0. -1.
         -2   -1    0    0    0  501 -0.00000000000E+00 -0.00000000000E+00 -0.91943535789E+00  0.91943535789E+00  0.00000000000E+00 0.  1.
          1    1    1    2  502    0 -0.18364871663E+02 -0.16120680679E+02  0.64963603975E+03  0.65009547683E+03  0.00000000000E+00 0. -1.
         -1    1    1    2    0  501  0.18364871663E+02  0.16120680679E+02  0.21575594705E+03  0.21713538068E+03  0.00000000000E+00 0.  1.
</event>
<event>
 4    1  0.6629728E+001  0.2221562E+02  0.7546771E-02  0.1502590E+00
          2   -1    0    0  502    0  0.00000000000E+00  0.00000000000E+00  0.19555759792E+02  0.19555759792E+02  0.00000000000E+00 0. -1.
         -2   -1    0    0    0  501 -0.00000000000E+00 -0.00000000000E+00 -0.47986609539E+02  0.47986609539E+02  0.00000000000E+00 0.  1.
          1    1    1    2  502    0  0.22098167240E+01 -0.22105436078E+02  0.90371393194E+01  0.23983400118E+02  0.00000000000E+00 0. -1.
         -1    1    1    2    0  501 -0.22098167240E+01  0.22105436078E+02 -0.37467989067E+02  0.43558969213E+02  0.00000000000E+00 0.  1.
</event>
<event>
 4    1  0.6629728E+001  0.2110412E+02  0.7546771E-02  0.1517783E+00
          2   -1    0    0  502    0  0.00000000000E+00  0.00000000000E+00  0.54229771147E+03  0.54229771147E+03  0.00000000000E+00 0. -1.
         -2   -1    0    0    0  501 -0.00000000000E+00 -0.00000000000E+00 -0.82995133815E+00  0.82995133815E+00  0.00000000000E+00 0.  1.
          1    1    1    2  502    0  0.20062035071E+02 -0.65497016105E+01  0.29847544445E+03  0.29922061222E+03  0.00000000000E+00 0. -1.
         -1    1    1    2    0  501 -0.20062035071E+02  0.65497016105E+01  0.24299231569E+03  0.24390705059E+03  0.00000000000E+00 0.  1.
</event>
<event>
 4    1  0.6629728E+001  0.4727849E+02  0.7546771E-02  0.1310424E+00
          2   -1    0    0  502    0  0.00000000000E+00  0.00000000000E+00  0.20922785962E+03  0.20922785962E+03  0.00000000000E+00 0.  1.
         -2   -1    0    0    0  501 -0.00000000000E+00 -0.00000000000E+00 -0.17553501509E+02  0.17553501509E+02  0.00000000000E+00 0. -1.
          1    1    1    2  502    0 -0.12076612846E+02  0.45710078882E+02  0.16677509445E+03  0.17334701618E+03  0.00000000000E+00 0.  1.
         -1    1    1    2    0  501  0.12076612846E+02 -0.45710078882E+02  0.24899263657E+02  0.53434344947E+02  0.00000000000E+00 0. -1.
</event>
<event>
 4    1  0.6629728E+001  0.2705524E+02  0.7546771E-02  0.1447054E+00
          2   -1    0    0  502    0  0.00000000000E+00  0.00000000000E+00  0.14358274072E+04  0.14358274072E+04  0.00000000000E+00 0. -1.
         -2   -1    0    0    0  501 -0.00000000000E+00 -0.00000000000E+00 -0.24877668539E+01  0.24877668539E+01  0.00000000000E+00 0.  1.
          1    1    1    2  502    0  0.26992641422E+02  0.18393090743E+01  0.75417925711E+02  0.80123961880E+02  0.00000000000E+00 0.  1.
         -1    1    1    2    0  501 -0.26992641422E+02 -0.18393090743E+01  0.13579217147E+04  0.13581912122E+04  0.00000000000E+00 0. -1.
</event>
<event>
 4    1  0.6629728E+001  0.2397321E+02  0.7546771E-02  0.1480626E+00
          2   -1    0    0  502    0  0.00000000000E+00  0.00000000000E+00  0.46341367417E+02  0.46341367417E+02  0.00000000000E+00 0.  1.
         -2   -1    0    0    0  501 -0.00000000000E+00 -0.00000000000E+00 -0.19678257453E+02  0.19678257453E+02  0.00000000000E+00 0. -1.
          1    1    1    2  502    0  0.12263890294E+02 -0.20598832818E+02  0.33404480338E+02  0.41116593064E+02  0.00000000000E+00 0.  1.
         -1    1    1    2    0  501 -0.12263890294E+02  0.20598832818E+02 -0.67413703739E+01  0.24903031806E+02  0.00000000000E+00 0. -1.
</event>
<event>
 4    1  0.6629728E+001  0.3743162E+02  0.7546771E-02  0.1364231E+00
          2   -1    0    0  502    0  0.00000000000E+00  0.00000000000E+00  0.68506440210E+02  0.68506440210E+02  0.00000000000E+00 0.  1.
         -2   -1    0    0    0  501 -0.00000000000E+00 -0.00000000000E+00 -0.21174446597E+02  0.21174446597E+02  0.00000000000E+00 0. -1.
          1    1    1    2  502    0  0.37058375868E+02 -0.52728549397E+01  0.15386116249E+02  0.40470468177E+02  0.00000000000E+00 0. -1.
         -1    1    1    2    0  501 -0.37058375868E+02  0.52728549397E+01  0.31945877363E+02  0.49210418630E+02  0.00000000000E+00 0.  1.
</event>
<event>
 4    1  0.6629728E+001  0.5166157E+02  0.7546771E-02  0.1291125E+00
          2   -1    0    0  502    0  0.00000000000E+00  0.00000000000E+00  0.55562405721E+03  0.55562405721E+03  0.00000000000E+00 0.  1.
         -2   -1    0    0    0  501 -0.00000000000E+00 -0.00000000000E+00 -0.65019598515E+01  0.65019598515E+01  0.00000000000E+00 0. -1.
          1    1    1    2  502    0  0.51389624009E+02  0.52938380362E+01  0.13090819768E+03  0.14073334500E+03  0.00000000000E+00 0. -1.
         -1    1    1    2    0  501 -0.51389624009E+02 -0.52938380362E+01  0.41821389968E+03  0.42139267206E+03  0.00000000000E+00 0.  1.
</event>
<event>
 4    1  0.6629728E+001  0.2205764E+02  0.7546771E-02  0.1504683E+00
          2   -1    0    0  502    0  0.00000000000E+00  0.00000000000E+00  0.32581258148E+02  0.32581258148E+02  0.00000000000E+00 0. -1.
         -2   -1    0    0    0  501 -0.00000000000E+00 -0.00000000000E+00 -0.15309638575E+02  0.15309638575E+02  0.00000000000E+00 0.  1.
          1    1    1    2  502    0  0.20882515224E+02  0.71035318649E+01  0.12391050582E+02  0.25299757737E+02  0.00000000000E+00 0. -1.
         -1    1    1    2    0  501 -0.20882515224E+02 -0.71035318649E+01  0.48805689903E+01  0.22591138986E+02  0.00000000000E+00 0.  1.
</event>
<event>
 4    1  0.6629728E+001  0.3712020E+02  0.7546771E-02  0.1366241E+00
          2   -1    0    0  502    0  0.00000000000E+00  0.00000000000E+00  0.83095678157E+03  0.83095678157E+03  0.00000000000E+00 0.  1.
         -2   -1    0    0    0  501 -0.00000000000E+00 -0.00000000000E+00 -0.17115396045E+01  0.17115396045E+01  0.00000000000E+00 0. -1.
          1    1    1    2  502    0  0.36925418724E+02 -0.37976944134E+01  0.34113864688E+03  0.34315227732E+03  0.00000000000E+00 0. -1.
         -1    1    1    2    0  501 -0.36925418724E+02  0.37976944134E+01  0.48810659509E+03  0.48951604386E+03  0.00000000000E+00 0.  1.
</event>
<event>
 4    1  0.6629728E+001  0.2231161E+02  0.7546771E-02  0.1501328E+00
          2   -1    0    0  502    0  0.00000000000E+00  0.00000000000E+00  0.23629520791E+02  0.23629520791E+02  0.00000000000E+00 0.  1.
         -2   -1    0    0    0  501 -0.00000000000E+00 -0.00000000000E+00 -0.63585585338E+02  0.63585585338E+02  0.00000000000E+00 0. -1.
          1    1    1    2  502    0  0.11717599921E+02  0.18986989287E+02 -0.55637162659E+02  0.59944155502E+02  0.00000000000E+00 0. -1.
         -1    1    1    2    0  501 -0.11717599921E+02 -0.18986989287E+02  0.15681098112E+02  0.27270950627E+02  0.00000000000E+00 0.  1.
</event>
<event>
 4    1  0.6629728E+001  0.2352975E+02  0.7546771E-02  0.1485951E+00
          2   -1    0    0  502    0  0.00000000000E+00  0.00000000000E+00  0.18089391131E+02  0.18089391131E+02  0.00000000000E+00 0. -1.
         -2   -1    0    0    0  501 -0.00000000000E+00 -0.00000000000E+00 -0.32752349173E+02  0.32752349173E+02  0.00000000000E+00 0.  1.
          1    1    1    2  502    0 -0.11812457612E+02  0.20349812600E+02 -0.82433049133E+00  0.23544182900E+02  0.00000000000E+00 0. -1.
         -1    1    1    2    0  501  0.11812457612E+02 -0.20349812600E+02 -0.13838627551E+02  0.27297557403E+02  0.00000000000E+00 0.  1.
</event>
<event>
 4    1  0.6629728E+001  0.2405982E+02  0.7546771E-02  0.1479602E+00
          2   -1    0    0  502    0  0.00000000000E+00  0.00000000000E+00  0.93049810364E+03  0.93049810364E+03  0.00000000000E+00 0.  1.
         -2   -1    0    0    0  501 -0.00000000000E+00 -0.00000000000E+00 -0.62776799807E+00  0.62776799807E+00  0.00000000000E+00 0. -1.
          1    1    1    2  502    0 -0.15154323469E+02 -0.18687472289E+02  0.42074884317E+03  0.42143619228E+03  0.00000000000E+00 0.  1.
         -1    1    1    2    0  501  0.15154323469E+02  0.18687472289E+02  0.50912149248E+03  0.50968967936E+03  0.00000000000E+00 0. -1.
</event>
<event>
 4    1  0.6629728E+001  0.3088113E+02  0.7546771E-02  0.1412091E+00
          2   -1    0    0  502    0  0.00000000000E+00  0.00000000000E+00  0.14820991546E+02  0.14820991546E+02  0.00000000000E+00 0. -1.
         -2   -1    0    0    0  501 -0.00000000000E+00 -0.00000000000E+00 -0.78093981122E+02  0.78093981122E+02  0.00000000000E+00 0.  1.
          1    1    1    2  502    0 -0.30180574022E+02  0.65404305997E+01 -0.51130245999E+02  0.59732288895E+02  0.00000000000E+00 0.  1.
         -1    1    1    2    0  501  0.30180574022E+02 -0.65404305997E+01 -0.12142743577E+02  0.33182683772E+02  0.00000000000E+00 0. -1.
</event>
<event>
 4    1  0.6629728E+001  0.2331071E+02  0.7546771E-02  0.1488633E+00
          2   -1    0    0  502    0  0.00000000000E+00  0.00000000000E+00  0.12610833681E+02  0.12610833681E+02  0.00000000000E+00 0. -1.
         -2   -1    0    0    0  501 -0.00000000000E+00 -0.00000000000E+00 -0.70217627715E+02  0.70217627715E+02  0.00000000000E+00 0.  1.
          1    1    1    2  502    0  0.22292287937E+02 -0.68149326985E+01 -0.54545242276E+02  0.59317559492E+02  0.00000000000E+00 0.  1.
         -1    1    1    2    0  501 -0.22292287937E+02  0.68149326985E+01 -0.30615517587E+01  0.23510901904E+02  0.00000000000E+00 0. -1.
</event>
<event>
 4    1  0.6629728E+001  0.2535768E+02  0.7546771E-02  0.1464842E+00
          2   -1    0    0  502    0  0.00000000000E+00  0.00000000000E+00  0.95451933260E+02  0.95451933260E+02  0.00000000000E+00 0. -1.
         -2   -1    0    0    0  501 -0.00000000000E+00 -0.00000000000E+00 -0.18445623421E+02  0.18445623421E+02  0.00000000000E+00 0.  1.
          1    1    1    2  502    0  0.28942037008E+01  0.25191968506E+02  0.83876415017E+02  0.87625707919E+02  0.00000000000E+00 0. -1.
         -1    1    1    2    0  501 -0.28942037008E+01 -0.25191968506E+02 -0.68701051777E+01  0.26271848763E+02  0.00000000000E+00 0.  1.
</event>
<event>
 4    1  0.6629728E+001  0.2168074E+02  0.7546771E-02  0.1509764E+00
          2   -1    0    0  502    0  0.00000000000E+00  0.00000000000E+00  0.39265208342E+01  0.39265208342E+01  0.00000000000E+00 0. -1.
         -2   -1    0    0    0  501 -0.00000000000E+00 -0.00000000000E+00 -0.12325725614E+03  0.12325725614E+03  0.00000000000E+00 0.  1.
          1    1    1    2  502    0  0.21948548263E+01  0.21569350927E+02 -0.48881406080E+02  0.53473789350E+02  0.00000000000E+00 0. -1.
         -1    1    1    2    0  501 -0.21948548263E+01 -0.21569350927E+02 -0.70449329227E+02  0.73709987625E+02  0.00000000000E+00 0.  1.
</event>
<event>
 4    1  0.6629728E+001  0.3288594E+02  0.7546771E-02  0.1396068E+00
          2   -1    0    0  502    0  0.00000000000E+00  0.00000000000E+00  0.29882121678E+02  0.29882121678E+02  0.00000000000E+00 0.  1.
         -2   -1    0    0    0  501 -0.00000000000E+00 -0.00000000000E+00 -0.52344005433E+02  0.52344005433E+02  0.00000000000E+00 0. -1.
          1    1    1    2  502    0  0.20108816967E+02 -0.26021538245E+02 -0.34069229464E+02  0.47351846519E+02  0.00000000000E+00 0.  1.
         -1    1    1    2    0  501 -0.20108816967E+02  0.26021538245E+02  0.11607345709E+02  0.34874280593E+02  0.00000000000E+00 0. -1.
</event>
<event>
 4    1  0.6629728E+001  0.5074085E+02  0.7546771E-02  0.1294992E+00
          2   -1    0    0  502    0  0.00000000000E+00  0.00000000000E+00  0.12675606722E+03  0.12675606722E+03  0.00000000000E+00 0.  1.
         -2   -1    0    0    0  501 -0.00000000000E+00 -0.00000000000E+00 -0.22240283773E+02  0.22240283773E+02  0.00000000000E+00 0. -1.
          1    1    1    2  502    0  0.38906159316E+02 -0.32572143232E+02  0.30320121908E+02  0.59109589239E+02  0.00000000000E+00 0. -1.
         -1    1    1    2    0  501 -0.38906159316E+02  0.32572143232E+02  0.74195661542E+02  0.89886761757E+02  0.00000000000E+00 0.  1.
</event>
<event>
 4    1  0.6629728E+001  0.2825391E+02  0.7546771E-02  0.1435403E+00
          2   -1    0    0  502    0  0.00000000000E+00  0.00000000000E+00  0.85134731926E+02  0.85134731926E+02  0.00000000000E+00 0. -1.
         -2   -1    0    0    0  501 -0.00000000000E+00 -0.00000000000E+00 -0.22531144891E+02  0.22531144891E+02  0.00000000000E+00 0.  1.
          1    1    1    2  502    0  0.19931585679E+02 -0.20025364940E+02  0.72435005165E+02  0.77750326828E+02  0.00000000000E+00 0. -1.
         -1    1    1    2    0  501 -0.19931585679E+02  0.20025364940E+02 -0.98314181300E+01  0.29915549988E+02  0.00000000000E+00 0.  1.
</event>
<event>
 4    1  0.6629728E+001  0.3001623E+02  0.7546771E-02  0.1419456E+00
          2   -1    0    0  502    0  0.00000000000E+00  0.00000000000E+00  0.75550222544E+03  0.75550222544E+03  0.00000000000E+00 0.  1.
         -2   -1    0    0    0  501 -0.00000000000E+00 -0.00000000000E+00 -0.11964251596E+01  0.11964251596E+01  0.00000000000E+00 0. -1.
          1    1    1    2  502    0  0.24514738769E+02  0.17320547774E+02  0.39868684925E+03  0.39981517925E+03  0.00000000000E+00 0. -1.
         -1    1    1    2    0  501 -0.24514738769E+02 -0.17320547774E+02  0.35561895102E+03  0.35688347135E+03  0.00000000000E+00 0.  1.
</event>
<event>
 4    1  0.6629728E+001  0.2168729E+02  0.7546771E-02  0.1509674E+00
          2   -1    0    0  502    0  0.00000000000E+00  0.00000000000E+00  0.24692575308E+02  0.24692575308E+02  0.00000000000E+00 0. -1.
         -2   -1    0    0    0  501 -0.00000000000E+00 -0.00000000000E+00 -0.26688557165E+02  0.26688557165E+02  0.00000000000E+00 0.  1.
          1    1    1    2  502    0  0.18249151387E+02 -0.11717813752E+02  0.12748123693E+02  0.25156576539E+02  0.00000000000E+00 0. -1.
         -1    1    1    2    0  501 -0.18249151387E+02  0.11717813752E+02 -0.14744105550E+02  0.26224555934E+02  0.00000000000E+00 0.  1.
</event>
<event>
 4    1  0.6629728E+001  0.2724611E+02  0.7546771E-02  0.1445151E+00
          2   -1    0    0  502    0  0.00000000000E+00  0.00000000000E+00  0.24558066759E+04  0.24558066759E+04  0.00000000000E+00 0. -1.
         -2   -1    0    0    0  501 -0.00000000000E+00 -0.00000000000E+00 -0.37140198449E+00  0.37140198449E+00  0.00000000000E+00 0.  1.
          1    1    1    2  502    0  0.14632157779E+02  0.22983694977E+02  0.17575082845E+04  0.17577194658E+04  0.00000000000E+00 0. -1.
         -1    1    1    2    0  501 -0.14632157779E+02 -0.22983694977E+02  0.69792698936E+03  0.69845861206E+03  0.00000000000E+00 0.  1.
</event>
<event>
 4    1  0.6629728E+001  0.2462484E+02  0.7546771E-02  0.1473044E+00
          2   -1    0    0  502    0  0.00000000000E+00  0.00000000000E+00  0.68214695423E+03  0.68214695423E+03  0.00000000000E+00 0.  1.
         -2   -1    0    0    0  501 -0.00000000000E+00 -0.00000000000E+00 -0.97651790761E+00  0.97651790761E+00  0.00000000000E+00 0. -1.
          1    1    1    2  502    0 -0.22795207788E+02 -0.93145840491E+01  0.44287767627E+03  0.44356174217E+03  0.00000000000E+00 0.  1.
         -1    1    1    2    0  501  0.22795207788E+02  0.93145840491E+01  0.23829276005E+03  0.23956172997E+03  0.00000000000E+00 0. -1.
</event>
<event>
 4    1  0.6629728E+001  0.4355549E+02  0.7546771E-02  0.1328822E+00
          2   -1    0    0  502    0  0.00000000000E+00  0.00000000000E+00  0.98986990933E+03  0.98986990933E+03  0.00000000000E+00 0.  1.
         -2   -1    0    0    0  501 -0.00000000000E+00 -0.00000000000E+00 -0.19730264931E+01  0.19730264931E+01  0.00000000000E+00 0. -1.
          1    1    1    2  502    0  0.34701111739E+02 -0.26323252761E+02  0.41000409623E+03  0.41231109579E+03  0.00000000000E+00 0. -1.
         -1    1    1    2    0  501 -0.34701111739E+02  0.26323252761E+02  0.57789278661E+03  0.57953184003E+03  0.00000000000E+00 0.  1.
</event>
<event>
 4    1  0.6629728E+001  0.3241784E+02  0.7546771E-02  0.1399686E+00
          2   -1    0    0  502    0  0.00000000000E+00  0.00000000000E+00  0.75384267312E+03  0.75384267312E+03  0.00000000000E+00 0.  1.
         -2   -1    0    0    0  501 -0.00000000000E+00 -0.00000000000E+00 -0.14001631475E+01  0.14001631475E+01  0.00000000000E+00 0. -1.
          1    1    1    2  502    0 -0.19651380119E+02  0.25782539399E+02  0.35132839441E+03  0.35282085653E+03  0.00000000000E+00 0. -1.
         -1    1    1    2    0  501  0.19651380119E+02 -0.25782539399E+02  0.40111411556E+03  0.40242197974E+03  0.00000000000E+00 0.  1.
</event>
<event>
 4    1  0.6629728E+001  0.2081294E+02  0.7546771E-02  0.1521952E+00
          2   -1    0    0  502    0  0.00000000000E+00  0.00000000000E+00  0.13516067355E+03  0.13516067355E+03  0.00000000000E+00 0.  1.
         -2   -1    0    0    0  501 -0.00000000000E+00 -0.00000000000E+00 -0.32050223702E+01  0.32050223702E+01  0.00000000000E+00 0. -1.
          1    1    1    2  502    0  0.83468560578E+01  0.19065901823E+02  0.66376202773E+02  0.69562769590E+02  0.00000000000E+00 0. -1.
         -1    1    1    2    0  501 -0.83468560578E+01 -0.19065901823E+02  0.65579448407E+02  0.68802926331E+02  0.00000000000E+00 0.  1.
</event>
<event>
 4    1  0.6629728E+001  0.2470405E+02  0.7546771E-02  0.1472142E+00
          2   -1    0    0  502    0  0.00000000000E+00  0.00000000000E+00  0.21372374808E+03  0.21372374808E+03  0.00000000000E+00 0.  1.
         -2   -1    0    0    0  501 -0.00000000000E+00 -0.00000000000E+00 -0.30193555076E+01  0.30193555076E+01  0.00000000000E+00 0. -1.
          1    1    1    2  502    0 -0.12549915172E+02  0.21278855575E+02  0.80107108244E+02  0.83829820808E+02  0.00000000000E+00 0.  1.
         -1    1    1    2    0  501  0.12549915172E+02 -0.21278855575E+02  0.13059728433E+03  0.13291328278E+03  0.00000000000E+00 0. -1.
</event>
<event>
 4    1  0.6629728E+001  0.2522368E+02  0.7546771E-02  0.1466317E+00
          2   -1    0    0  502    0  0.00000000000E+00  0.00000000000E+00  0.68388643506E+03  0.68388643506E+03  0.00000000000E+00 0.  1.
         -2   -1    0    0    0  501 -0.00000000000E+00 -0.00000000000E+00 -0.10588491419E+01  0.10588491419E+01  0.00000000000E+00 0. -1.
          1    1    1    2  502    0 -0.20976615024E+02 -0.14007697604E+02  0.22209528576E+03  0.22352304115E+03  0.00000000000E+00 0. -1.
         -1    1    1    2    0  501  0.20976615024E+02  0.14007697604E+02  0.46073230016E+03  0.46142224305E+03  0.00000000000E+00 0.  1.
</event>
<event>
 4    1  0.6629728E+001  0.3461751E+02  0.7546771E-02  0.1383272E+00
          2   -1    0    0  502    0  0.00000000000E+00  0.00000000000E+00  0.16497465237E+02  0.16497465237E+02  0.00000000000E+00 0.  1.
         -2   -1    0    0    0  501 -0.00000000000E+00 -0.00000000000E+00 -0.14544790644E+03  0.14544790644E+03  0.00000000000E+00 0. -1.
          1    1    1    2  502    0 -0.26130330495E+02  0.22706341326E+02 -0.71857564336E+01  0.35355440935E+02  0.00000000000E+00 0.  1.
         -1    1    1    2    0  501  0.26130330495E+02 -0.22706341326E+02 -0.12176468477E+03  0.12658993074E+03  0.00000000000E+00 0. -1.
</event>
<event>
 4    1  0.6629728E+001  0.3552363E+02  0.7546771E-02  0.1376919E+00
          2   -1    0    0  502    0  0.00000000000E+00  0.00000000000E+00  0.13191433494E+04  0.13191433494E+04  0.00000000000E+00 0. -1.
         -2   -1    0    0    0  501 -0.00000000000E+00 -0.00000000000E+00 -0.10064732548E+01  0.10064732548E+01  0.00000000000E+00 0.  1.
          1    1    1    2  502    0 -0.18351842540E+02  0.30416089392E+02  0.51217350717E+03  0.51340396382E+03  0.00000000000E+00 0.  1.
         -1    1    1    2    0  501  0.18351842540E+02 -0.30416089392E+02  0.80596336898E+03  0.80674585884E+03  0.00000000000E+00 0. -1.
</event>
<event>
 4    1  0.6629728E+001  0.2202881E+02  0.7546771E-02  0.1505067E+00
          2   -1    0    0  502    0  0.00000000000E+00  0.00000000000E+00  0.11753545813E+03  0.11753545813E+03  0.00000000000E+00 0. -1.
         -2   -1    0    0    0  501 -0.00000000000E+00 -0.00000000000E+00 -0.41592839482E+01  0.41592839482E+01  0.00000000000E+00 0.  1.
          1    1    1    2  502    0 -0.21016829672E+02 -0.66000926571E+01  0.61906002487E+02  0.65708610520E+02  0.00000000000E+00 0. -1.
         -1    1    1    2    0  501  0.21016829672E+02  0.66000926571E+01  0.51470171692E+02  0.55986131555E+02  0.00000000000E+00 0.  1.
</event>
<event>
 4    1  0.6629728E+001  0.2176835E+02  0.7546771E-02  0.1508571E+00
          2   -1    0    0  502    0  0.00000000000E+00  0.00000000000E+00  0.12658372046E+02  0.12658372046E+02  0.00000000000E+00 0. -1.
         -2   -1    0    0    0  501 -0.00000000000E+00 -0.00000000000E+00 -0.47270772666E+02  0.47270772666E+02  0.00000000000E+00 0.  1.
          1    1    1    2  502    0 -0.16985261119E+02  0.13614776445E+02 -0.30974816957E+02  0.37858955591E+02  0.00000000000E+00 0.  1.
         -1    1    1    2    0  501  0.16985261119E+02 -0.13614776445E+02 -0.36375836636E+01  0.22070189121E+02  0.00000000000E+00 0. -1.
</event>
<event>
 4    1  0.6629728E+001  0.2283560E+02  0.7546771E-02  0.1494573E+00
          2   -1    0    0  502    0  0.00000000000E+00  0.00000000000E+00  0.11235197594E+04  0.11235197594E+04  0.00000000000E+00 0.  1.
         -2   -1    0    0    0  501 -0.00000000000E+00 -0.00000000000E+00 -0.10250878045E+01  0.10250878045E+01  0.00000000000E+00 0. -1.
          1    1    1    2  502    0 -0.21980676341E+02  0.61898712643E+01  0.14530848910E+03  0.14709188163E+03  0.00000000000E+00 0. -1.
         -1    1    1    2    0  501  0.21980676341E+02 -0.61898712643E+01  0.97718618250E+03  0.97745296557E+03  0.00000000000E+00 0.  1.
</event>
<event>
 4    1  0.6629728E+001  0.8208663E+02  0.7546771E-02  0.1199085E+00
          2   -1    0    0  502    0  0.00000000000E+00  0.00000000000E+00  0.43346853818E+02  0.43346853818E+02  0.00000000000E+00 0. -1.
         -2   -1    0    0    0  501 -0.00000000000E+00 -0.00000000000E+00 -0.30957870507E+03  0.30957870507E+03  0.00000000000E+00 0.  1.
          1    1    1    2  502    0  0.44970726991E+02 -0.68672033143E+02 -0.86039580926E+01  0.82536310294E+02  0.00000000000E+00 0. -1.
         -1    1    1    2    0  501 -0.44970726991E+02  0.68672033143E+02 -0.25762789316E+03  0.27038924860E+03  0.00000000000E+00 0.  1.
</event>
<event>
 4    1  0.6629728E+001  0.4556007E+02  0.7546771E-02  0.1318662E+00
          2   -1    0    0  502    0  0.00000000000E+00  0.00000000000E+00  0.10725780991E+04  0.10725780991E+04  0.00000000000E+00 0.  1.
         -2   -1    0    0    0  501 -0.00000000000E+00 -0.00000000000E+00 -0.19929696540E+01  0.19929696540E+01  0.00000000000E+00 0. -1.
          1    1    1    2  502    0  0.44071581440E+02  0.11550564045E+02  0.44386632202E+03  0.44619842183E+03  0.00000000000E+00 0. -1.
         -1    1    1    2    0  501 -0.44071581440E+02 -0.11550564045E+02  0.62671880745E+03  0.62837264695E+03  0.00000000000E+00 0.  1.
</event>
<event>
 4    1  0.6629728E+001  0.2828811E+02  0.7546771E-02  0.1435081E+00
          2   -1    0    0  502    0  0.00000000000E+00  0.00000000000E+00  0.79534127913E+01  0.79534127913E+01  0.00000000000E+00 0. -1.
         -2   -1    0    0    0  501 -0.00000000000E+00 -0.00000000000E+00 -0.11481992285E+03  0.11481992285E+03  0.00000000000E+00 0.  1.
          1    1    1    2  502    0 -0.16979464002E+02  0.22625541412E+02 -0.75026319971E+02  0.80182080357E+02  0.00000000000E+00 0.  1.
         -1    1    1    2    0  501  0.16979464002E+02 -0.22625541412E+02 -0.31840190093E+02  0.42591255289E+02  0.00000000000E+00 0. -1.
</event>
<event>
 4    1  0.6629728E+001  0.2388342E+02  0.7546771E-02  0.1481693E+00
          2   -1    0    0  502    0  0.00000000000E+00  0.00000000000E+00  0.10285364137E+04  0.10285364137E+04  0.00000000000E+00 0.  1.
         -2   -1    0    0    0  501 -0.00000000000E+00 -0.00000000000E+00 -0.62156700425E+00  0.62156700425E+00  0.00000000000E+00 0. -1.
          1    1    1    2  502    0  0.63502798874E+01 -0.23023718520E+02  0.34504340138E+03  0.34586900195E+03  0.00000000000E+00 0. -1.
         -1    1    1    2    0  501 -0.63502798874E+01  0.23023718520E+02  0.68287144536E+03  0.68328897880E+03  0.00000000000E+00 0.  1.
</event>
<event>
 4    1  0.6629728E+001  0.2428040E+02  0.7546771E-02  0.1477017E+00
          2   -1    0    0  502    0  0.00000000000E+00  0.00000000000E+00  0.38547902556E+03  0.38547902556E+03  0.00000000000E+00 0. -1.
         -2   -1    0    0    0  501 -0.00000000000E+00 -0.00000000000E+00 -0.16930220792E+01  0.16930220792E+01  0.00000000000E+00 0.  1.
          1    1    1    2  502    0  0.14971935428E+02 -0.19114892170E+02  0.25208111024E+03  0.25324775240E+03  0.00000000000E+00 0. -1.
         -1    1    1    2    0  501 -0.14971935428E+02  0.19114892170E+02  0.13170489324E+03  0.13392429524E+03  0.00000000000E+00 0.  1.
</event>
<event>
 4    1  0.6629728E+001  0.2101848E+02  0.7546771E-02  0.1519001E+00
          2   -1    0    0  502    0  0.00000000000E+00  0.00000000000E+00  0.11653922289E+02  0.11653922289E+02  0.00000000000E+00 0. -1.
         -2   -1    0    0    0  501 -0.00000000000E+00 -0.00000000000E+00 -0.60106334027E+02  0.60106334027E+02  0.00000000000E+00 0.  1.
          1    1    1    2  502    0  0.17879099295E+02  0.11050541984E+02 -0.24212989022E+01  0.21157489409E+02  0.00000000000E+00 0. -1.
         -1    1    1    2    0  501 -0.17879099295E+02 -0.11050541984E+02 -0.46031112836E+02  0.50602766907E+02  0.00000000000E+00 0.  1.
</event>
<event>
 4    1  0.6629728E+001  0.2962496E+02  0.7546771E-02  0.1422884E+00
          2   -1    0    0  502    0  0.00000000000E+00  0.00000000000E+00  0.11985354459E+04  0.11985354459E+04  0.00000000000E+00 0. -1.
         -2   -1    0    0    0  501 -0.00000000000E+00 -0.00000000000E+00 -0.14522645579E+01  0.14522645579E+01  0.00000000000E+00 0.  1.
          1    1    1    2  502    0 -0.25926320771E+02 -0.14334017384E+02  0.17607544834E+03  0.17855027771E+03  0.00000000000E+00 0.  1.
         -1    1    1    2    0  501  0.25926320771E+02  0.14334017384E+02  0.10210077330E+04  0.10214374327E+04  0.00000000000E+00 0. -1.
</event>
<event>
 4    1  0.6629728E+001  0.2159278E+02  0.7546771E-02  0.1510967E+00
          2   -1    0    0  502    0  0.00000000000E+00  0.00000000000E+00  0.60495056584E+02  0.60495056584E+02  0.00000000000E+00 0. -1.
         -2   -1    0    0    0  501 -0.00000000000E+00 -0.00000000000E+00 -0.94810783768E+01  0.94810783768E+01  0.00000000000E+00 0.  1.
          1    1    1    2  502    0  0.11432615246E+01  0.21562491211E+02  0.10373054763E+02  0.23955131793E+02  0.00000000000E+00 0.  1.
         -1    1    1    2    0  501 -0.11432615246E+01 -0.21562491211E+02  0.40640923445E+02  0.46021003168E+02  0.00000000000E+00 0. -1.
</event>
<event>
 4    1  0.6629728E+001  0.2476966E+02  0.7546771E-02  0.1471397E+00
          2   -1    0    0  502    0  0.00000000000E+00  0.00000000000E+00  0.13347508298E+04  0.13347508298E+04  0.00000000000E+00 0.  1.
         -2   -1    0    0    0  501 -0.00000000000E+00 -0.00000000000E+00 -0.47196793968E+00  0.47196793968E+00  0.00000000000E+00 0. -1.
          1    1    1    2  502    0 -0.19046638731E+01 -0.24696323578E+02  0.55934416831E+03  0.55989234212E+03  0.00000000000E+00 0. -1.
         -1    1    1    2    0  501  0.19046638731E+01  0.24696323578E+02  0.77493469357E+03  0.77533045564E+03  0.00000000000E+00 0.  1.
</event>
<event>
 4    1  0.6629728E+001  0.2184892E+02  0.7546771E-02  0.1507481E+00
          2   -1    0    0  502    0  0.00000000000E+00  0.00000000000E+00  0.19305214652E+03  0.19305214652E+03  0.00000000000E+00 0.  1.
         -2   -1    0    0    0  501 -0.00000000000E+00 -0.00000000000E+00 -0.31430283867E+01  0.31430283867E+01  0.00000000000E+00 0. -1.
          1    1    1    2  502    0  0.17409554186E+02 -0.13201612404E+02  0.49654096771E+02  0.54248543512E+02  0.00000000000E+00 0.  1.
         -1    1    1    2    0  501 -0.17409554186E+02  0.13201612404E+02  0.14025502136E+03  0.14194663139E+03  0.00000000000E+00 0. -1.
</event>
<event>
 4    1  0.6629728E+001  0.3323807E+02  0.7546771E-02  0.1393392E+00
          2   -1    0    0  502    0  0.00000000000E+00  0.00000000000E+00  0.20268536843E+02  0.20268536843E+02  0.00000000000E+00 0. -1.
         -2   -1    0    0    0  501 -0.00000000000E+00 -0.00000000000E+00 -0.65670291105E+02  0.65670291105E+02  0.00000000000E+00 0.  1.
          1    1    1    2  502    0  0.50529069770E+01  0.32851754115E+02 -0.49843618859E+01  0.33609723009E+02  0.00000000000E+00 0. -1.
         -1    1    1    2    0  501 -0.50529069770E+01 -0.32851754115E+02 -0.40417392376E+02  0.52329104940E+02  0.00000000000E+00 0.  1.
</event>
<event>
 4    1  0.6629728E+001  0.2153436E+02  0.7546771E-02  0.1511771E+00
          2   -1    0    0  502    0  0.00000000000E+00  0.00000000000E+00  0.38313568700E+02  0.38313568700E+02  0.00000000000E+00 0. -1.
         -2   -1    0    0    0  501 -0.00000000000E+00 -0.00000000000E+00 -0.13263961934E+02  0.13263961934E+02  0.00000000000E+00 0.  1.
          1    1    1    2  502    0 -0.20680099182E+02  0.60051877830E+01  0.20152737017E+02  0.29493416075E+02  0.00000000000E+00 0. -1.
         -1    1    1    2    0  501  0.20680099182E+02 -0.60051877830E+01  0.48968697487E+01  0.22084114558E+02  0.00000000000E+00 0.  1.
</event>
<event>
 4    1  0.6629728E+001  0.2205347E+02  0.7546771E-02  0.1504739E+00
          2   -1    0    0  502    0  0.00000000000E+00  0.00000000000E+00  0.13308774055E+02  0.13308774055E+02  0.00000000000E+00 0. -1.
         -2   -1    0    0    0  501 -0.00000000000E+00 -0.00000000000E+00 -0.37148412082E+02  0.37148412082E+02  0.00000000000E+00 0.  1.
          1    1    1    2  502    0 -0.20506400376E+02  0.81143725807E+01 -0.15137912530E+02  0.26749054086E+02  0.00000000000E+00 0.  1.
         -1    1    1    2    0  501  0.20506400376E+02 -0.81143725807E+01 -0.87017254974E+01  0.23708132052E+02  0.00000000000E+00 0. -1.
</event>
<event>
 4    1  0.6629728E+001  0.2699168E+02  0.7546771E-02  0.1447692E+00
          2   -1    0    0  502    0  0.00000000000E+00  0.00000000000E+00  0.80514171468E+03  0.80514171468E+03  0.00000000000E+00 0.  1.
         -2   -1    0    0    0  501 -0.00000000000E+00 -0.00000000000E+00 -0.92460512250E+00  0.92460512250E+00  0.00000000000E+00 0. -1.
          1    1    1    2  502    0 -0.60719919053E+01  0.26299845089E+02  0.46098619188E+03  0.46177572483E+03  0.00000000000E+00 0. -1.
         -1    1    1    2    0  501  0.60719919053E+01 -0.26299845089E+02  0.34323091767E+03  0.34429059497E+03  0.00000000000E+00 0.  1.
</event>
<event>
 4    1  0.6629728E+001  0.2290528E+02  0.7546771E-02  0.1493691E+00
          2   -1    0    0  502    0  0.00000000000E+00  0.00000000000E+00  0.30400163410E+03  0.30400163410E+03  0.00000000000E+00 0.  1.
         -2   -1    0    0    0  501 -0.00000000000E+00 -0.00000000000E+00 -0.27250792896E+01  0.27250792896E+01  0.00000000000E+00 0. -1.
          1    1    1    2  502    0  0.79652796029E+01 -0.21475716144E+02  0.24350736047E+03  0.24458226973E+03  0.00000000000E+00 0.  1.
         -1    1    1    2    0  501 -0.79652796029E+01  0.21475716144E+02  0.57769194338E+02  0.62144443657E+02  0.00000000000E+00 0. -1.
</event>
<event>
 4    1  0.6629728E+001  0.2272010E+02  0.7546771E-02  0.1496043E+00
          2   -1    0    0  502    0  0.00000000000E+00  0.00000000000E+00  0.47547452349E+03  0.47547452349E+03  0.00000000000E+00 0. -1.
         -2   -1    0    0    0  501 -0.00000000000E+00 -0.00000000000E+00 -0.11905229810E+01  0.11905229810E+01  0.00000000000E+00 0.  1.
          1    1    1    2  502    0 -0.13703991963E+02 -0.18121910747E+02  0.30787600495E+03  0.30871319614E+03  0.00000000000E+00 0. -1.
         -1    1    1    2    0  501  0.13703991963E+02  0.18121910747E+02  0.16640799556E+03  0.16795185033E+03  0.00000000000E+00 0.  1.
</event>
<event>
 4    1  0.6629728E+001  0.3061831E+02  0.7546771E-02  0.1414298E+00
          2   -1    0    0  502    0  0.00000000000E+00  0.00000000000E+00  0.10162893570E+01  0.10162893570E+01  0.00000000000E+00 0. -1.
         -2   -1    0    0    0  501 -0.00000000000E+00 -0.00000000000E+00 -0.95153540082E+03  0.95153540082E+03  0.00000000000E+00 0.  1.
          1    1    1    2  502    0  0.30566490074E+02  0.17806834510E+01 -0.55852151789E+03  0.55936014078E+03  0.00000000000E+00 0.  1.
         -1    1    1    2    0  501 -0.30566490074E+02 -0.17806834510E+01 -0.39199759358E+03  0.39319154940E+03  0.00000000000E+00 0. -1.
</event>
<event>
 4    1  0.6629728E+001  0.2781873E+02  0.7546771E-02  0.1439553E+00
          2   -1    0    0  502    0  0.00000000000E+00  0.00000000000E+00  0.10228306513E+01  0.10228306513E+01  0.00000000000E+00 0.  1.
         -2   -1    0    0    0  501 -0.00000000000E+00 -0.00000000000E+00 -0.84899679307E+03  0.84899679307E+03  0.00000000000E+00 0. -1.
          1    1    1    2  502    0 -0.10301138283E+02  0.25841217808E+02 -0.28378463878E+03  0.28514488106E+03  0.00000000000E+00 0.  1.
         -1    1    1    2    0  501  0.10301138283E+02 -0.25841217808E+02 -0.56418932365E+03  0.56487474267E+03  0.00000000000E+00 0. -1.
</event>
<event>
 4    1  0.6629728E+001  0.2331075E+02  0.7546771E-02  0.1488632E+00
          2   -1    0    0  502    0  0.00000000000E+00  0.00000000000E+00  0.27561648408E+03  0.27561648408E+03  0.00000000000E+00 0. -1.
         -2   -1    0    0    0  501 -0.00000000000E+00 -0.00000000000E+00 -0.23186401461E+01  0.23186401461E+01  0.00000000000E+00 0.  1.
          1    1    1    2  502    0 -0.14806934070E+02  0.18004052583E+02  0.19041631497E+03  0.19183785918E+03  0.00000000000E+00 0. -1.
         -1    1    1    2    0  501  0.14806934070E+02 -0.18004052583E+02  0.82881528963E+02  0.86097265051E+02  0.00000000000E+00 0.  1.
</event>
<event>
 4    1  0.6629728E+001  0.2028224E+02  0.7546771E-02  0.1529764E+00
          2   -1    0    0  502    0  0.00000000000E+00  0.00000000000E+00  0.44018126323E+03  0.44018126323E+03  0.00000000000E+00 0. -1.
         -2   -1    0    0    0  501 -0.00000000000E+00 -0.00000000000E+00 -0.31247619624E+01  0.31247619624E+01  0.00000000000E+00 0.  1.
          1    1    1    2  502    0  0.18859803692E+02 -0.74617121488E+01  0.40409865117E+03  0.40460732720E+03  0.00000000000E+00 0. -1.
         -1    1    1    2    0  501 -0.18859803692E+02  0.74617121488E+01  0.32957850092E+02  0.38698697990E+02  0.00000000000E+00 0.  1.
</event>
<event>
 4    1  0.6629728E+001  0.2410971E+02  0.7546771E-02  0.1479015E+00
          2   -1    0    0  502    0  0.00000000000E+00  0.00000000000E+00  0.36841822350E+01  0.36841822350E+01  0.00000000000E+00 0.  1.
         -2   -1    0    0    0  501 -0.00000000000E+00 -0.00000000000E+00 -0.16681591514E+03  0.16681591514E+03  0.00000000000E+00 0. -1.
          1    1    1    2  502    0 -0.96709303893E+01  0.22085087815E+02 -0.10141045131E+03  0.10423702621E+03  0.00000000000E+00 0. -1.
         -1    1    1    2    0  501  0.96709303893E+01 -0.22085087815E+02 -0.61721281594E+02  0.66263071163E+02  0.00000000000E+00 0.  1.
</event>
<event>
 4    1  0.6629728E+001  0.5190365E+02  0.7546771E-02  0.1290123E+00
          2   -1    0    0  502    0  0.00000000000E+00  0.00000000000E+00  0.23797376548E+04  0.23797376548E+04  0.00000000000E+00 0.  1.
         -2   -1    0    0    0  501 -0.00000000000E+00 -0.00000000000E+00 -0.11848947274E+01  0.11848947274E+01  0.00000000000E+00 0. -1.
          1    1    1    2  502    0  0.24729673587E+02 -0.45633670901E+02  0.14406760560E+04  0.14416107266E+04  0.00000000000E+00 0.  1.
         -1    1    1    2    0  501 -0.24729673587E+02  0.45633670901E+02  0.93787670401E+03  0.93931182288E+03  0.00000000000E+00 0. -1.
</event>
<event>
 4    1  0.6629728E+001  0.2404724E+02  0.7546771E-02  0.1479751E+00
          2   -1    0    0  502    0  0.00000000000E+00  0.00000000000E+00  0.84875289345E+01  0.84875289345E+01  0.00000000000E+00 0.  1.
         -2   -1    0    0    0  501 -0.00000000000E+00 -0.00000000000E+00 -0.68230536616E+02  0.68230536616E+02  0.00000000000E+00 0. -1.
          1    1    1    2  502    0  0.19399052717E+02  0.14210784347E+02 -0.31331570412E+02  0.39496037049E+02  0.00000000000E+00 0.  1.
         -1    1    1    2    0  501 -0.19399052717E+02 -0.14210784347E+02 -0.28411437270E+02  0.37222028502E+02  0.00000000000E+00 0. -1.
</event>
<event>
 4    1  0.6629728E+001  0.2093588E+02  0.7546771E-02  0.1520182E+00
          2   -1    0    0  502    0  0.00000000000E+00  0.00000000000E+00  0.22711734225E+04  0.22711734225E+04  0.00000000000E+00 0.  1.
         -2   -1    0    0    0  501 -0.00000000000E+00 -0.00000000000E+00 -0.19564940888E+00  0.19564940888E+00  0.00000000000E+00 0. -1.
          1    1    1    2  502    0  0.14302242883E+02 -0.15289106605E+02  0.10030508924E+04  0.10032693575E+04  0.00000000000E+00 0.  1.
         -1    1    1    2    0  501 -0.14302242883E+02  0.15289106605E+02  0.12679268807E+04  0.12680997145E+04  0.00000000000E+00 0. -1.
</event>
<event>
 4    1  0.6629728E+001  0.4368123E+02  0.7546771E-02  0.1328167E+00
          2   -1    0    0  502    0  0.00000000000E+00  0.00000000000E+00  0.43345712642E+03  0.43345712642E+03  0.00000000000E+00 0. -1.
         -2   -1    0    0    0  501 -0.00000000000E+00 -0.00000000000E+00 -0.50846014021E+01  0.50846014021E+01  0.00000000000E+00 0.  1.
          1    1    1    2  502    0  0.33512286004E+02  0.28017433974E+02  0.29453089436E+03  0.29775240998E+03  0.00000000000E+00 0. -1.
         -1    1    1    2    0  501 -0.33512286004E+02 -0.28017433974E+02  0.13384163066E+03  0.14078931784E+03  0.00000000000E+00 0.  1.
</event>
<event>
 4    1  0.6629728E+001  0.2158683E+02  0.7546771E-02  0.1511049E+00
          2   -1    0    0  502    0  0.00000000000E+00  0.00000000000E+00  0.14862966255E+03  0.14862966255E+03  0.00000000000E+00 0. -1.
         -2   -1    0    0    0  501 -0.00000000000E+00 -0.00000000000E+00 -0.32842835323E+01  0.32842835323E+01  0.00000000000E+00 0.  1.
          1    1    1    2  502    0  0.20284760071E+02  0.73837538777E+01  0.56492346350E+02  0.60476247475E+02  0.00000000000E+00 0. -1.
         -1    1    1    2    0  501 -0.20284760071E+02 -0.73837538777E+01  0.88853032669E+02  0.91437698609E+02  0.00000000000E+00 0.  1.
</event>
<event>
 4    1  0.6629728E+001  0.2494922E+02  0.7546771E-02  0.1469372E+00
          2   -1    0    0  502    0  0.00000000000E+00  0.00000000000E+00  0.69231689780E+02  0.69231689780E+02  0.00000000000E+00 0. -1.
         -2   -1    0    0    0  501 -0.00000000000E+00 -0.00000000000E+00 -0.12534956246E+02  0.12534956246E+02  0.00000000000E+00 0.  1.
          1    1    1    2  502    0  0.16887049868E+02  0.18365488691E+02  0.50086769005E+02  0.55956662315E+02  0.00000000000E+00 0. -1.
         -1    1    1    2    0  501 -0.16887049868E+02 -0.18365488691E+02  0.66099645291E+01  0.25809983711E+02  0.00000000000E+00 0.  1.
</event>
<event>
 4    1  0.6629728E+001  0.4051018E+02  0.7546771E-02  0.1345522E+00
          2   -1    0    0  502    0  0.00000000000E+00  0.00000000000E+00  0.18838322976E+02  0.18838322976E+02  0.00000000000E+00 0. -1.
         -2   -1    0    0    0  501 -0.00000000000E+00 -0.00000000000E+00 -0.12078470961E+03  0.12078470961E+03  0.00000000000E+00 0.  1.
          1    1    1    2  502    0 -0.40171918718E+02  0.52241052477E+01 -0.14113667997E+02  0.42898367725E+02  0.00000000000E+00 0. -1.
         -1    1    1    2    0  501  0.40171918718E+02 -0.52241052477E+01 -0.87832718635E+02  0.96724664858E+02  0.00000000000E+00 0.  1.
</event>
<event>
 4    1  0.6629728E+001  0.2804753E+02  0.7546771E-02  0.1437360E+00
          2   -1    0    0  502    0  0.00000000000E+00  0.00000000000E+00  0.16410292000E+04  0.16410292000E+04  0.00000000000E+00 0. -1.
         -2   -1    0    0    0  501 -0.00000000000E+00 -0.00000000000E+00 -0.71832251942E+00  0.71832251942E+00  0.00000000000E+00 0.  1.
          1    1    1    2  502    0  0.13252410062E+02 -0.24719173805E+02  0.12936013373E+04  0.12939053612E+04  0.00000000000E+00 0. -1.
         -1    1    1    2    0  501 -0.13252410062E+02  0.24719173805E+02  0.34670954015E+03  0.34784216127E+03  0.00000000000E+00 0.  1.
</event>
<event>
 4    1  0.6629728E+001  0.2088182E+02  0.7546771E-02  0.1520959E+00
          2   -1    0    0  502    0  0.00000000000E+00  0.00000000000E+00  0.29332347646E+01  0.29332347646E+01  0.00000000000E+00 0.  1.
         -2   -1    0    0    0  501 -0.00000000000E+00 -0.00000000000E+00 -0.17099725677E+03  0.17099725677E+03  0.00000000000E+00 0. -1.
          1    1    1    2  502    0  0.14510266338E+01 -0.20831340319E+02 -0.11546465138E+03  0.11733770040E+03  0.00000000000E+00 0. -1.
         -1    1    1    2    0  501 -0.14510266338E+01  0.20831340319E+02 -0.52599370632E+02  0.56592791137E+02  0.00000000000E+00 0.  1.
</event>
<event>
 4    1  0.6629728E+001  0.4201497E+02  0.7546771E-02  0.1337066E+00
          2   -1    0    0  502    0  0.00000000000E+00  0.00000000000E+00  0.24617378772E+02  0.24617378772E+02  0.00000000000E+00 0.  1.
         -2   -1    0    0    0  501 -0.00000000000E+00 -0.00000000000E+00 -0.71712846593E+02  0.71712846593E+02  0.00000000000E+00 0. -1.
          1    1    1    2  502    0 -0.40822860203E+02  0.99374119329E+01 -0.23143681784E+02  0.47967573189E+02  0.00000000000E+00 0. -1.
         -1    1    1    2    0  501  0.40822860203E+02 -0.99374119329E+01 -0.23951786037E+02  0.48362652176E+02  0.00000000000E+00 0.  1.
</event>
<event>
 4    1  0.6629728E+001  0.2135885E+02  0.7546771E-02  0.1514203E+00
          2   -1    0    0  502    0  0.00000000000E+00  0.00000000000E+00  0.26056292601E+02  0.26056292601E+02  0.00000000000E+00 0.  1.
         -2   -1    0    0    0  501 -0.00000000000E+00 -0.00000000000E+00 -0.21808458577E+02  0.21808458577E+02  0.00000000000E+00 0. -1.
          1    1    1    2  502    0  0.20589629542E+02 -0.56804502131E+01 -0.85032511634E+01  0.22989250524E+02  0.00000000000E+00 0. -1.
         -1    1    1    2    0  501 -0.20589629542E+02  0.56804502131E+01  0.12751085188E+02  0.24875500654E+02  0.00000000000E+00 0.  1.
</event>
<event>
 4    1  0.6629728E+001  0.3770325E+02  0.7546771E-02  0.1362497E+00
          2   -1    0    0  502    0  0.00000000000E+00  0.00000000000E+00  0.18402283743E+04  0.18402283743E+04  0.00000000000E+00 0.  1.
         -2   -1    0    0    0  501 -0.00000000000E+00 -0.00000000000E+00 -0.14221204973E+01  0.14221204973E+01  0.00000000000E+00 0. -1.
          1    1    1    2  502    0  0.37221439389E+02  0.60082822172E+01  0.15417699059E+04  0.15422308445E+04  0.00000000000E+00 0.  1.
         -1    1    1    2    0  501 -0.37221439389E+02 -0.60082822172E+01  0.29703634789E+03  0.29941965028E+03  0.00000000000E+00 0. -1.
</event>
<event>
 4    1  0.6629728E+001  0.3169695E+02  0.7546771E-02  0.1405402E+00
          2   -1    0    0  502    0  0.00000000000E+00  0.00000000000E+00  0.35364882524E+02  0.35364882524E+02  0.00000000000E+00 0.  1.
         -2   -1    0    0    0  501 -0.00000000000E+00 -0.00000000000E+00 -0.30588986953E+02  0.30588986953E+02  0.00000000000E+00 0. -1.
          1    1    1    2  502    0  0.30985072378E+02 -0.66799709457E+01 -0.64146376638E+01  0.32339516052E+02  0.00000000000E+00 0. -1.
         -1    1    1    2    0  501 -0.30985072378E+02  0.66799709457E+01  0.11190533235E+02  0.33614353425E+02  0.00000000000E+00 0.  1.
</event>
<event>
 4    1  0.6629728E+001  0.8838369E+02  0.7546771E-02  0.1185618E+00
          2   -1    0    0  502    0  0.00000000000E+00  0.00000000000E+00  0.14309856402E+03  0.14309856402E+03  0.00000000000E+00 0.  1.
         -2   -1    0    0    0  501 -0.00000000000E+00 -0.00000000000E+00 -0.55477907120E+02  0.55477907120E+02  0.00000000000E+00 0. -1.
          1    1    1    2  502    0  0.80531980353E+02 -0.36418087074E+02  0.31245764523E+02  0.93744198361E+02  0.00000000000E+00 0. -1.
         -1    1    1    2    0  501 -0.80531980353E+02  0.36418087074E+02  0.56374892380E+02  0.10483227278E+03  0.00000000000E+00 0.  1.
</event>
<event>
 4    1  0.6629728E+001  0.2050795E+02  0.7546771E-02  0.1526407E+00
          2   -1    0    0  502    0  0.00000000000E+00  0.00000000000E+00  0.10439202559E+02  0.10439202559E+02  0.00000000000E+00 0.  1.
         -2   -1    0    0    0  501 -0.00000000000E+00 -0.00000000000E+00 -0.40295279401E+02  0.40295279401E+02  0.00000000000E+00 0. -1.
          1    1    1    2  502    0 -0.19456517957E+02  0.64822814476E+01 -0.14590402159E+02  0.25168549798E+02  0.00000000000E+00 0.  1.
         -1    1    1    2    0  501  0.19456517957E+02 -0.64822814476E+01 -0.15265674684E+02  0.25565932162E+02  0.00000000000E+00 0. -1.
</event>
<event>
 4    1  0.6629728E+001  0.5292532E+02  0.7546771E-02  0.1285964E+00
          2   -1    0    0  502    0  0.00000000000E+00  0.00000000000E+00  0.13578650956E+04  0.13578650956E+04  0.00000000000E+00 0. -1.
         -2   -1    0    0    0  501 -0.00000000000E+00 -0.00000000000E+00 -0.26356998479E+01  0.26356998479E+01  0.00000000000E+00 0.  1.
          1    1    1    2  502    0  0.19659691546E+02 -0.49138442361E+02  0.99474388271E+03  0.99615083305E+03  0.00000000000E+00 0. -1.
         -1    1    1    2    0  501 -0.19659691546E+02  0.49138442361E+02  0.36048551309E+03  0.36434996245E+03  0.00000000000E+00 0.  1.
</event>
<event>
 4    1  0.6629728E+001  0.3363298E+02  0.7546771E-02  0.1390437E+00
          2   -1    0    0  502    0  0.00000000000E+00  0.00000000000E+00  0.11075079737E+04  0.11075079737E+04  0.00000000000E+00 0. -1.
         -2   -1    0    0    0  501 -0.00000000000E+00 -0.00000000000E+00 -0.10345535870E+01  0.10345535870E+01  0.00000000000E+00 0.  1.
          1    1    1    2  502    0 -0.64970894025E+01  0.32999474710E+02  0.61580174406E+03  0.61671951930E+03  0.00000000000E+00 0. -1.
         -1    1    1    2    0  501  0.64970894025E+01 -0.32999474710E+02  0.49067167607E+03  0.49182300800E+03  0.00000000000E+00 0.  1.
</event>
<event>
 4    1  0.6629728E+001  0.4812560E+02  0.7546771E-02  0.1306510E+00
          2   -1    0    0  502    0  0.00000000000E+00  0.00000000000E+00  0.14209498044E+04  0.14209498044E+04  0.00000000000E+00 0.  1.
         -2   -1    0    0    0  501 -0.00000000000E+00 -0.00000000000E+00 -0.20584717694E+01  0.20584717694E+01  0.00000000000E+00 0. -1.
          1    1    1    2  502    0 -0.42099280887E+02  0.23317889995E+02  0.38481261577E+03  0.38781029216E+03  0.00000000000E+00 0. -1.
         -1    1    1    2    0  501  0.42099280887E+02 -0.23317889995E+02  0.10340787168E+04  0.10351979840E+04  0.00000000000E+00 0.  1.
</event>
<event>
 4    1  0.6629728E+001  0.2191582E+02  0.7546771E-02  0.1506580E+00
          2   -1    0    0  502    0  0.00000000000E+00  0.00000000000E+00  0.17679875172E+04  0.17679875172E+04  0.00000000000E+00 0.  1.
         -2   -1    0    0    0  501 -0.00000000000E+00 -0.00000000000E+00 -0.34181724891E+00  0.34181724891E+00  0.00000000000E+00 0. -1.
          1    1    1    2  502    0  0.37481678183E+01 -0.21592923525E+02  0.48327712473E+03  0.48377379259E+03  0.00000000000E+00 0. -1.
         -1    1    1    2    0  501 -0.37481678183E+01  0.21592923525E+02  0.12843685752E+04  0.12845555418E+04  0.00000000000E+00 0.  1.
</event>
<event>
 4    1  0.6629728E+001  0.2181807E+02  0.7546771E-02  0.1507898E+00
          2   -1    0    0  502    0  0.00000000000E+00  0.00000000000E+00  0.38674721665E+00  0.38674721665E+00  0.00000000000E+00 0. -1.
         -2   -1    0    0    0  501 -0.00000000000E+00 -0.00000000000E+00 -0.12348825126E+04  0.12348825126E+04  0.00000000000E+00 0.  1.
          1    1    1    2  502    0 -0.16980001031E+02 -0.13700650349E+02 -0.65253733656E+03  0.65290198641E+03  0.00000000000E+00 0.  1.
         -1    1    1    2    0  501  0.16980001031E+02  0.13700650349E+02 -0.58195842880E+03  0.58236727338E+03  0.00000000000E+00 0. -1.
</event>
<event>
 4    1  0.6629728E+001  0.2103346E+02  0.7546771E-02  0.1518788E+00
          2   -1    0    0  502    0  0.00000000000E+00  0.00000000000E+00  0.10123562231E+03  0.10123562231E+03  0.00000000000E+00 0. -1.
         -2   -1    0    0    0  501 -0.00000000000E+00 -0.00000000000E+00 -0.45293090869E+01  0.45293090869E+01  0.00000000000E+00 0.  1.
          1    1    1    2  502    0  0.17521558548E+02  0.11636213789E+02  0.38437437806E+02  0.43816014314E+02  0.00000000000E+00 0.  1.
         -1    1    1    2    0  501 -0.17521558548E+02 -0.11636213789E+02  0.58268875416E+02  0.61948917081E+02  0.00000000000E+00 0. -1.
</event>
<event>
 4    1  0.6629728E+001  0.2525685E+02  0.7546771E-02  0.1465950E+00
          2   -1    0    0  502    0  0.00000000000E+00  0.00000000000E+00  0.61165296755E+02  0.61165296755E+02  0.00000000000E+00 0. -1.
         -2   -1    0    0    0  501 -0.00000000000E+00 -0.00000000000E+00 -0.17823535602E+03  0.17823535602E+03  0.00000000000E+00 0.  1.
          1    1    1    2  502    0  0.14941265709E+02  0.20363372817E+02  0.57610441808E+02  0.62903667451E+02  0.00000000000E+00 0. -1.
         -1    1    1    2    0  501 -0.14941265709E+02 -0.20363372817E+02 -0.17468050107E+03  0.17649698532E+03  0.00000000000E+00 0.  1.
</event>
<event>
 4    1  0.6629728E+001  0.2184647E+02  0.7546771E-02  0.1507514E+00
          2   -1    0    0  502    0  0.00000000000E+00  0.00000000000E+00  0.13260963448E+02  0.13260963448E+02  0.00000000000E+00 0.  1.
         -2   -1    0    0    0  501 -0.00000000000E+00 -0.00000000000E+00 -0.10328942281E+03  0.10328942281E+03  0.00000000000E+00 0. -1.
          1    1    1    2  502    0  0.21489706661E+02  0.39320008144E+01 -0.92053436970E+02  0.94610271011E+02  0.00000000000E+00 0. -1.
         -1    1    1    2    0  501 -0.21489706661E+02 -0.39320008144E+01  0.20249776078E+01  0.21940115248E+02  0.00000000000E+00 0.  1.
</event>
<event>
 4    1  0.6629728E+001  0.2451161E+02  0.7546771E-02  0.1474342E+00
          2   -1    0    0  502    0  0.00000000000E+00  0.00000000000E+00  0.19579419323E+04  0.19579419323E+04  0.00000000000E+00 0.  1.
         -2   -1    0    0    0  501 -0.00000000000E+00 -0.00000000000E+00 -0.31501333288E+00  0.31501333288E+00  0.00000000000E+00 0. -1.
          1    1    1    2  502    0 -0.14278714972E+02  0.19923291851E+02  0.11363103849E+04  0.11365747270E+04  0.00000000000E+00 0.  1.
         -1    1    1    2    0  501  0.14278714972E+02 -0.19923291851E+02  0.82131653404E+03  0.82168221859E+03  0.00000000000E+00 0. -1.
</event>
<event>
 4    1  0.6629728E+001  0.2506036E+02  0.7546771E-02  0.1468129E+00
          2   -1    0    0  502    0  0.00000000000E+00  0.00000000000E+00  0.18634068467E+01  0.18634068467E+01  0.00000000000E+00 0.  1.
         -2   -1    0    0    0  501 -0.00000000000E+00 -0.00000000000E+00 -0.33706142768E+03  0.33706142768E+03  0.00000000000E+00 0. -1.
          1    1    1    2  502    0  0.11777413908E+02  0.22120444504E+02 -0.16592856607E+03  0.16781034110E+03  0.00000000000E+00 0. -1.
         -1    1    1    2    0  501 -0.11777413908E+02 -0.22120444504E+02 -0.16926945476E+03  0.17111449342E+03  0.00000000000E+00 0.  1.
</event>
<event>
 4    1  0.6629728E+001  0.3942711E+02  0.7546771E-02  0.1351876E+00
          2   -1    0    0  502    0  0.00000000000E+00  0.00000000000E+00  0.25351323172E+04  0.25351323172E+04  0.00000000000E+00 0.  1.
         -2   -1    0    0    0  501 -0.00000000000E+00 -0.00000000000E+00 -0.65853817834E+00  0.65853817834E+00  0.00000000000E+00 0. -1.
          1    1    1    2  502    0 -0.38818706494E+02  0.68996131515E+01  0.93449090365E+03  0.93532226833E+03  0.00000000000E+00 0. -1.
         -1    1    1    2    0  501  0.38818706494E+02 -0.68996131515E+01  0.15999828754E+04  0.16004685870E+04  0.00000000000E+00 0.  1.
</event>
<event>
 4    1  0.6629728E+001  0.5762308E+02  0.7546771E-02  0.1268130E+00
          2   -1    0    0  502    0  0.00000000000E+00  0.00000000000E+00  0.26884478728E+04  0.26884478728E+04  0.00000000000E+00 0. -1.
         -2   -1    0    0    0  501 -0.00000000000E+00 -0.00000000000E+00 -0.16796796148E+01  0.16796796148E+01  0.00000000000E+00 0.  1.
          1    1    1    2  502    0 -0.34166297860E+02  0.46401326553E+02  0.20354054474E+04  0.20362209493E+04  0.00000000000E+00 0. -1.
         -1    1    1    2    0  501  0.34166297860E+02 -0.46401326553E+02  0.65136274577E+03  0.65390660311E+03  0.00000000000E+00 0.  1.
</event>
<event>
 4    1  0.6629728E+001  0.2087662E+02  0.7546771E-02  0.1521034E+00
          2   -1    0    0  502    0  0.00000000000E+00  0.00000000000E+00  0.18085031968E+04  0.18085031968E+04  0.00000000000E+00 0.  1.
         -2   -1    0    0    0  501 -0.00000000000E+00 -0.00000000000E+00 -0.27322927646E+00  0.27322927646E+00  0.00000000000E+00 0. -1.
          1    1    1    2  502    0 -0.18983247794E+02 -0.86873163839E+01  0.59346126543E+03  0.59382834787E+03  0.00000000000E+00 0. -1.
         -1    1    1    2    0  501  0.18983247794E+02  0.86873163839E+01  0.12147687021E+04  0.12149480782E+04  0.00000000000E+00 0.  1.
</event>
<event>
 4    1  0.6629728E+001  0.2154838E+02  0.7546771E-02  0.1511577E+00
          2   -1    0    0  502    0  0.00000000000E+00  0.00000000000E+00  0.87525138420E+02  0.87525138420E+02  0.00000000000E+00 0. -1.
         -2   -1    0    0    0  501 -0.00000000000E+00 -0.00000000000E+00 -0.53539429614E+01  0.53539429614E+01  0.00000000000E+00 0.  1.
          1    1    1    2  502    0 -0.74932766195E+01  0.20203555031E+02  0.45519524257E+02  0.50362286673E+02  0.00000000000E+00 0. -1.
         -1    1    1    2    0  501  0.74932766195E+01 -0.20203555031E+02  0.36651671201E+02  0.42516794708E+02  0.00000000000E+00 0.  1.
</event>
<event>
 4    1  0.6629728E+001  0.4336787E+02  0.7546771E-02  0.1329805E+00
          2   -1    0    0  502    0  0.00000000000E+00  0.00000000000E+00  0.58294733292E+02  0.58294733292E+02  0.00000000000E+00 0.  1.
         -2   -1    0    0    0  501 -0.00000000000E+00 -0.00000000000E+00 -0.32512700144E+02  0.32512700144E+02  0.00000000000E+00 0. -1.
          1    1    1    2  502    0 -0.10410371053E+02  0.42099842373E+02  0.16868711078E+02  0.46533063156E+02  0.00000000000E+00 0. -1.
         -1    1    1    2    0  501  0.10410371053E+02 -0.42099842373E+02  0.89133220700E+01  0.44274370279E+02  0.00000000000E+00 0.  1.
</event>
<event>
 4    1  0.6629728E+001  0.2265907E+02  0.7546771E-02  0.1496824E+00
          2   -1    0    0  502    0  0.00000000000E+00  0.00000000000E+00  0.21362857068E+02  0.21362857068E+02  0.00000000000E+00 0.  1.
         -2   -1    0    0    0  501 -0.00000000000E+00 -0.00000000000E+00 -0.26417439902E+02  0.26417439902E+02  0.00000000000E+00 0. -1.
          1    1    1    2  502    0 -0.22551188232E+02  0.22084681162E+01  0.46487001463E+01  0.23131014573E+02  0.00000000000E+00 0.  1.
         -1    1    1    2    0  501  0.22551188232E+02 -0.22084681162E+01 -0.97032829807E+01  0.24649282398E+02  0.00000000000E+00 0. -1.
</event>
<event>
 4    1  0.6629728E+001  0.2221453E+02  0.7546771E-02  0.1502604E+00
          2   -1    0    0  502    0  0.00000000000E+00  0.00000000000E+00  0.18794061011E+03  0.18794061011E+03  0.00000000000E+00 0.  1.
         -2   -1    0    0    0  501 -0.00000000000E+00 -0.00000000000E+00 -0.72705279212E+01  0.72705279212E+01  0.00000000000E+00 0. -1.
          1    1    1    2  502    0  0.21299270776E+02 -0.63108311314E+01  0.12320782616E+02  0.25402503999E+02  0.00000000000E+00 0. -1.
         -1    1    1    2    0  501 -0.21299270776E+02  0.63108311314E+01  0.16834929957E+03  0.16980863403E+03  0.00000000000E+00 0.  1.
</event>
<event>
 4    1  0.6629728E+001  0.3668134E+02  0.7546771E-02  0.1369113E+00
          2   -1    0    0  502    0  0.00000000000E+00  0.00000000000E+00  0.56315754394E+02  0.56315754394E+02  0.00000000000E+00 0.  1.
         -2   -1    0    0    0  501 -0.00000000000E+00 -0.00000000000E+00 -0.24461186133E+02  0.24461186133E+02  0.00000000000E+00 0. -1.
          1    1    1    2  502    0 -0.11435938771E+02  0.34853124991E+02  0.22085803165E+02  0.42817096102E+02  0.00000000000E+00 0.  1.
         -1    1    1    2    0  501  0.11435938771E+02 -0.34853124991E+02  0.97687650956E+01  0.37959844424E+02  0.00000000000E+00 0. -1.
</event>
<event>
 4    1  0.6629728E+001  0.2746475E+02  0.7546771E-02  0.1442995E+00
          2   -1    0    0  502    0  0.00000000000E+00  0.00000000000E+00  0.14142045002E+02  0.14142045002E+02  0.00000000000E+00 0.  1.
         -2   -1    0    0    0  501 -0.00000000000E+00 -0.00000000000E+00 -0.54425549970E+02  0.54425549970E+02  0.00000000000E+00 0. -1.
          1    1    1    2  502    0  0.16769005979E+02 -0.21751159033E+02 -0.15296075691E+02  0.31436959336E+02  0.00000000000E+00 0.  1.
         -1    1    1    2    0  501 -0.16769005979E+02  0.21751159033E+02 -0.24987429277E+02  0.37130635635E+02  0.00000000000E+00 0. -1.
</event>
<event>
 4    1  0.6629728E+001  0.4119387E+02  0.7546771E-02  0.1341628E+00
          2   -1    0    0  502    0  0.00000000000E+00  0.00000000000E+00  0.45080989979E+02  0.45080989979E+02  0.00000000000E+00 0. -1.
         -2   -1    0    0    0  501 -0.00000000000E+00 -0.00000000000E+00 -0.51135705567E+02  0.51135705567E+02  0.00000000000E+00 0.  1.
          1    1    1    2  502    0  0.40106911651E-01 -0.41193850004E+02  0.21685630566E+02  0.46553211058E+02  0.00000000000E+00 0. -1.
         -1    1    1    2    0  501 -0.40106911651E-01  0.41193850004E+02 -0.27740346153E+02  0.49663484488E+02  0.00000000000E+00 0.  1.
</event>
<event>
 4    1  0.6629728E+001  0.4513622E+02  0.7546771E-02  0.1320760E+00
          2   -1    0    0  502    0  0.00000000000E+00  0.00000000000E+00  0.41026460462E+03  0.41026460462E+03  0.00000000000E+00 0. -1.
         -2   -1    0    0    0  501 -0.00000000000E+00 -0.00000000000E+00 -0.49827130604E+01  0.49827130604E+01  0.00000000000E+00 0.  1.
          1    1    1    2  502    0 -0.79080901559E+01  0.44438049479E+02  0.19053251806E+03  0.19580581852E+03  0.00000000000E+00 0. -1.
         -1    1    1    2    0  501  0.79080901559E+01 -0.44438049479E+02  0.21474937351E+03  0.21944149916E+03  0.00000000000E+00 0.  1.
</event>
<event>
 4    1  0.6629728E+001  0.2477855E+02  0.7546771E-02  0.1471296E+00
          2   -1    0    0  502    0  0.00000000000E+00  0.00000000000E+00  0.49286940514E+00  0.49286940514E+00  0.00000000000E+00 0.  1.
         -2   -1    0    0    0  501 -0.00000000000E+00 -0.00000000000E+00 -0.15600783694E+04  0.15600783694E+04  0.00000000000E+00 0. -1.
          1    1    1    2  502    0  0.20815493237E+02  0.13442165080E+02 -0.42953003434E+03  0.43024414809E+03  0.00000000000E+00 0. -1.
         -1    1    1    2    0  501 -0.20815493237E+02 -0.13442165080E+02 -0.11300554657E+04  0.11303270908E+04  0.00000000000E+00 0.  1.
</event>
<event>
 4    1  0.6629728E+001  0.3202772E+02  0.7546771E-02  0.1402757E+00
          2   -1    0    0  502    0  0.00000000000E+00  0.00000000000E+00  0.45879004837E+03  0.45879004837E+03  0.00000000000E+00 0.  1.
         -2   -1    0    0    0  501 -0.00000000000E+00 -0.00000000000E+00 -0.29668737890E+01  0.29668737890E+01  0.00000000000E+00 0. -1.
          1    1    1    2  502    0  0.27299111857E+02  0.16749128306E+02  0.34251741703E+03  0.34401156343E+03  0.00000000000E+00 0.  1.
         -1    1    1    2    0  501 -0.27299111857E+02 -0.16749128306E+02  0.11330575756E+03  0.11774535873E+03  0.00000000000E+00 0. -1.
</event>
<event>
 4    1  0.6629728E+001  0.2920752E+02  0.7546771E-02  0.1426610E+00
          2   -1    0    0  502    0  0.00000000000E+00  0.00000000000E+00  0.69580693006E+01  0.69580693006E+01  0.00000000000E+00 0.  1.
         -2   -1    0    0    0  501 -0.00000000000E+00 -0.00000000000E+00 -0.12268345435E+03  0.12268345435E+03  0.00000000000E+00 0. -1.
          1    1    1    2  502    0 -0.15181793232E+02  0.24951806779E+02 -0.59523628885E+02  0.66303407929E+02  0.00000000000E+00 0.  1.
         -1    1    1    2    0  501  0.15181793232E+02 -0.24951806779E+02 -0.56201756166E+02  0.63338115723E+02  0.00000000000E+00 0. -1.
</event>
<event>
 4    1  0.6629728E+001  0.2754560E+02  0.7546771E-02  0.1442203E+00
          2   -1    0    0  502    0  0.00000000000E+00  0.00000000000E+00  0.10201956402E+04  0.10201956402E+04  0.00000000000E+00 0. -1.
         -2   -1    0    0    0  501 -0.00000000000E+00 -0.00000000000E+00 -0.74563372776E+00  0.74563372776E+00  0.00000000000E+00 0.  1.
          1    1    1    2  502    0  0.25785429934E+02  0.96887418373E+01  0.48399806261E+03  0.48478127514E+03  0.00000000000E+00 0.  1.
         -1    1    1    2    0  501 -0.25785429934E+02 -0.96887418373E+01  0.53545194390E+03  0.53615999882E+03  0.00000000000E+00 0. -1.
</event>
<event>
 4    1  0.6629728E+001  0.3314927E+02  0.7546771E-02  0.1394063E+00
          2   -1    0    0  502    0  0.00000000000E+00  0.00000000000E+00  0.49765421211E+01  0.49765421211E+01  0.00000000000E+00 0.  1.
         -2   -1    0    0    0  501 -0.00000000000E+00 -0.00000000000E+00 -0.22583190111E+03  0.22583190111E+03  0.00000000000E+00 0. -1.
          1    1    1    2  502    0 -0.32671152732E+02  0.56098299030E+01 -0.12763554873E+03  0.13187004100E+03  0.00000000000E+00 0.  1.
         -1    1    1    2    0  501  0.32671152732E+02 -0.56098299030E+01 -0.93219810259E+02  0.98938402236E+02  0.00000000000E+00 0. -1.
</event>
<event>
 4    1  0.6629728E+001  0.2401710E+02  0.7546771E-02  0.1480107E+00
          2   -1    0    0  502    0  0.00000000000E+00  0.00000000000E+00  0.16865831984E+04  0.16865831984E+04  0.00000000000E+00 0.  1.
         -2   -1    0    0    0  501 -0.00000000000E+00 -0.00000000000E+00 -0.34387815154E+00  0.34387815154E+00  0.00000000000E+00 0. -1.
          1    1    1    2  502    0  0.11630359731E+01 -0.23988921199E+02  0.90536035455E+03  0.90567885731E+03  0.00000000000E+00 0.  1.
         -1    1    1    2    0  501 -0.11630359731E+01  0.23988921199E+02  0.78087896569E+03  0.78124821923E+03  0.00000000000E+00 0. -1.
</event>
<event>
 4    1  0.6629728E+001  0.2084670E+02  0.7546771E-02  0.1521465E+00
          2   -1    0    0  502    0  0.00000000000E+00  0.00000000000E+00  0.65529314611E+03  0.65529314611E+03  0.00000000000E+00 0.  1.
         -2   -1    0    0    0  501 -0.00000000000E+00 -0.00000000000E+00 -0.82969521771E+00  0.82969521771E+00  0.00000000000E+00 0. -1.
          1    1    1    2  502    0 -0.17336403557E+02  0.11577312476E+02  0.47419452669E+03  0.47465254049E+03  0.00000000000E+00 0.  1.
         -1    1    1    2    0  501  0.17336403557E+02 -0.11577312476E+02  0.18026892420E+03  0.18147030084E+03  0.00000000000E+00 0. -1.
</event>
<event>
 4    1  0.6629728E+001  0.5059775E+02  0.7546771E-02  0.1295601E+00
          2   -1    0    0  502    0  0.00000000000E+00  0.00000000000E+00  0.35152367215E+03  0.35152367215E+03  0.00000000000E+00 0.  1.
         -2   -1    0    0    0  501 -0.00000000000E+00 -0.00000000000E+00 -0.73547658148E+01  0.73547658148E+01  0.00000000000E+00 0. -1.
          1    1    1    2  502    0  0.43376535032E+02 -0.26050120668E+02  0.18981471032E+03  0.19644275713E+03  0.00000000000E+00 0. -1.
         -1    1    1    2    0  501 -0.43376535032E+02  0.26050120668E+02  0.15435419602E+03  0.16243568083E+03  0.00000000000E+00 0.  1.
</event>
<event>
 4    1  0.6629728E+001  0.2482069E+02  0.7546771E-02  0.1470819E+00
          2   -1    0    0  502    0  0.00000000000E+00  0.00000000000E+00  0.10267271067E+04  0.10267271067E+04  0.00000000000E+00 0. -1.
         -2   -1    0    0    0  501 -0.00000000000E+00 -0.00000000000E+00 -0.11294659380E+01  0.11294659380E+01  0.00000000000E+00 0.  1.
          1    1    1    2  502    0  0.24315603309E+02  0.49817790143E+01  0.16093645893E+03  0.16283921671E+03  0.00000000000E+00 0.  1.
         -1    1    1    2    0  501 -0.24315603309E+02 -0.49817790143E+01  0.86466118182E+03  0.86501735591E+03  0.00000000000E+00 0. -1.
</event>
<event>
 4    1  0.6629728E+001  0.5904309E+02  0.7546771E-02  0.1263119E+00
          2   -1    0    0  502    0  0.00000000000E+00  0.00000000000E+00  0.56201723632E+02  0.56201723632E+02  0.00000000000E+00 0.  1.
         -2   -1    0    0    0  501 -0.00000000000E+00 -0.00000000000E+00 -0.62950923230E+02  0.62950923230E+02  0.00000000000E+00 0. -1.
          1    1    1    2  502    0 -0.53602169175E+02  0.24756694618E+02 -0.10587841805E+02  0.59984905291E+02  0.00000000000E+00 0. -1.
         -1    1    1    2    0  501  0.53602169175E+02 -0.24756694618E+02  0.38386422066E+01  0.59167741572E+02  0.00000000000E+00 0.  1.
</event>
<event>
 4    1  0.6629728E+001  0.2188188E+02  0.7546771E-02  0.1507037E+00
          2   -1    0    0  502    0  0.00000000000E+00  0.00000000000E+00  0.49619449011E+03  0.49619449011E+03  0.00000000000E+00 0.  1.
         -2   -1    0    0    0  501 -0.00000000000E+00 -0.00000000000E+00 -0.97722016843E+00  0.97722016843E+00  0.00000000000E+00 0. -1.
          1    1    1    2  502    0 -0.12096707509E+02  0.18234212524E+02  0.21978545312E+03  0.22087204948E+03  0.00000000000E+00 0. -1.
         -1    1    1    2    0  501  0.12096707509E+02 -0.18234212524E+02  0.27543181683E+03  0.27629966080E+03  0.00000000000E+00 0.  1.
</event>
<event>
 4    1  0.6629728E+001  0.2050310E+02  0.7546771E-02  0.1526479E+00
          2   -1    0    0  502    0  0.00000000000E+00  0.00000000000E+00  0.25029223169E+01  0.25029223169E+01  0.00000000000E+00 0. -1.
         -2   -1    0    0    0  501 -0.00000000000E+00 -0.00000000000E+00 -0.17687416817E+03  0.17687416817E+03  0.00000000000E+00 0.  1.
          1    1    1    2  502    0  0.42638833411E+01  0.20054830417E+02 -0.10732659864E+03  0.10926745032E+03  0.00000000000E+00 0.  1.
         -1    1    1    2    0  501 -0.42638833411E+01 -0.20054830417E+02 -0.67044647218E+02  0.70109640170E+02  0.00000000000E+00 0. -1.
</event>
<event>
 4    1  0.6629728E+001  0.2566581E+02  0.7546771E-02  0.1461491E+00
          2   -1    0    0  502    0  0.00000000000E+00  0.00000000000E+00  0.20385094948E+02  0.20385094948E+02  0.00000000000E+00 0. -1.
         -2   -1    0    0    0  501 -0.00000000000E+00 -0.00000000000E+00 -0.34501574290E+02  0.34501574290E+02  0.00000000000E+00 0.  1.
          1    1    1    2  502    0  0.44172674358E+01  0.25282832600E+02 -0.14867746465E+00  0.25666242048E+02  0.00000000000E+00 0. -1.
         -1    1    1    2    0  501 -0.44172674358E+01 -0.25282832600E+02 -0.13967801878E+02  0.29220427190E+02  0.00000000000E+00 0.  1.
</event>
<event>
 4    1  0.6629728E+001  0.3574858E+02  0.7546771E-02  0.1375376E+00
          2   -1    0    0  502    0  0.00000000000E+00  0.00000000000E+00  0.26251950286E+03  0.26251950286E+03  0.00000000000E+00 0.  1.
         -2   -1    0    0    0  501 -0.00000000000E+00 -0.00000000000E+00 -0.59453632327E+01  0.59453632327E+01  0.00000000000E+00 0. -1.
          1    1    1    2  502    0  0.25670693404E+01 -0.35656287526E+02  0.18542667716E+03  0.18884123831E+03  0.00000000000E+00 0.  1.
         -1    1    1    2    0  501 -0.25670693404E+01  0.35656287526E+02  0.71147462462E+02  0.79623627774E+02  0.00000000000E+00 0. -1.
</event>
<event>
 4    1  0.6629728E+001  0.5868963E+02  0.7546771E-02  0.1264351E+00
          2   -1    0    0  502    0  0.00000000000E+00  0.00000000000E+00  0.15167100682E+03  0.15167100682E+03  0.00000000000E+00 0. -1.
         -2   -1    0    0    0  501 -0.00000000000E+00 -0.00000000000E+00 -0.36715134855E+02  0.36715134855E+02  0.00000000000E+00 0.  1.
          1    1    1    2  502    0 -0.58501210493E+02  0.46990744061E+01 -0.69721896688E+00  0.58693773466E+02  0.00000000000E+00 0.  1.
         -1    1    1    2    0  501  0.58501210493E+02 -0.46990744061E+01  0.11565309093E+03  0.12969236821E+03  0.00000000000E+00 0. -1.
</event>
<event>
 4    1  0.6629728E+001  0.2287243E+02  0.7546771E-02  0.1494106E+00
          2   -1    0    0  502    0  0.00000000000E+00  0.00000000000E+00  0.98731061552E+00  0.98731061552E+00  0.00000000000E+00 0. -1.
         -2   -1    0    0    0  501 -0.00000000000E+00 -0.00000000000E+00 -0.53107347231E+03  0.53107347231E+03  0.00000000000E+00 0.  1.
          1    1    1    2  502    0  0.18912868003E+02  0.12862793065E+02 -0.27769780656E+03  0.27863815207E+03  0.00000000000E+00 0.  1.
         -1    1    1    2    0  501 -0.18912868003E+02 -0.12862793065E+02 -0.25238835513E+03  0.25342263085E+03  0.00000000000E+00 0. -1.
</event>
<event>
 4    1  0.6629728E+001  0.3663167E+02  0.7546771E-02  0.1369441E+00
          2   -1    0    0  502    0  0.00000000000E+00  0.00000000000E+00  0.12415109846E+02  0.12415109846E+02  0.00000000000E+00 0.  1.
         -2   -1    0    0    0  501 -0.00000000000E+00 -0.00000000000E+00 -0.12569761127E+03  0.12569761127E+03  0.00000000000E+00 0. -1.
          1    1    1    2  502    0  0.21674396653E+02 -0.29531341066E+02 -0.30791308979E+02  0.47853780249E+02  0.00000000000E+00 0.  1.
         -1    1    1    2    0  501 -0.21674396653E+02  0.29531341066E+02 -0.82491192443E+02  0.90258940865E+02  0.00000000000E+00 0. -1.
</event>
<event>
 4    1  0.6629728E+001  0.7194835E+02  0.7546771E-02  0.1223885E+00
          2   -1    0    0  502    0  0.00000000000E+00  0.00000000000E+00  0.96535395012E+03  0.96535395012E+03  0.00000000000E+00 0. -1.
         -2   -1    0    0    0  501 -0.00000000000E+00 -0.00000000000E+00 -0.11280110140E+02  0.11280110140E+02  0.00000000000E+00 0.  1.
          1    1    1    2  502    0 -0.51344585451E+01 -0.71764910007E+02  0.83072783893E+03  0.83383769844E+03  0.00000000000E+00 0. -1.
         -1    1    1    2    0  501  0.51344585451E+01  0.71764910007E+02  0.12334600105E+03  0.14279636182E+03  0.00000000000E+00 0.  1.
</event>
<event>
 4    1  0.6629728E+001  0.2769472E+02  0.7546771E-02  0.1440752E+00
          2   -1    0    0  502    0  0.00000000000E+00  0.00000000000E+00  0.65343160674E+01  0.65343160674E+01  0.00000000000E+00 0.  1.
         -2   -1    0    0    0  501 -0.00000000000E+00 -0.00000000000E+00 -0.15304962876E+03  0.15304962876E+03  0.00000000000E+00 0. -1.
          1    1    1    2  502    0 -0.27062893309E+02  0.58819271959E+01 -0.34737054712E+02  0.44425895960E+02  0.00000000000E+00 0.  1.
         -1    1    1    2    0  501  0.27062893309E+02 -0.58819271959E+01 -0.11177825798E+03  0.11515804887E+03  0.00000000000E+00 0. -1.
</event>
<event>
 4    1  0.6629728E+001  0.2910746E+02  0.7546771E-02  0.1427514E+00
          2   -1    0    0  502    0  0.00000000000E+00  0.00000000000E+00  0.13644531543E+02  0.13644531543E+02  0.00000000000E+00 0. -1.
         -2   -1    0    0    0  501 -0.00000000000E+00 -0.00000000000E+00 -0.62146112930E+02  0.62146112930E+02  0.00000000000E+00 0.  1.
          1    1    1    2  502    0 -0.94926976477E+01  0.27516048746E+02 -0.25347611737E+02  0.38597223579E+02  0.00000000000E+00 0.  1.
         -1    1    1    2    0  501  0.94926976477E+01 -0.27516048746E+02 -0.23153969650E+02  0.37193420894E+02  0.00000000000E+00 0. -1.
</event>
<event>
 4    1  0.6629728E+001  0.4510429E+02  0.7546771E-02  0.1320919E+00
          2   -1    0    0  502    0  0.00000000000E+00  0.00000000000E+00  0.54317554102E+01  0.54317554102E+01  0.00000000000E+00 0. -1.
         -2   -1    0    0    0  501 -0.00000000000E+00 -0.00000000000E+00 -0.42053422618E+03  0.42053422618E+03  0.00000000000E+00 0.  1.
          1    1    1    2  502    0  0.27252326530E+02  0.35940333169E+02 -0.13711322992E+03  0.14434138239E+03  0.00000000000E+00 0. -1.
         -1    1    1    2    0  501 -0.27252326530E+02 -0.35940333169E+02 -0.27798924085E+03  0.28162459921E+03  0.00000000000E+00 0.  1.
</event>
<event>
 4    1  0.6629728E+001  0.2859299E+02  0.7546771E-02  0.1432231E+00
          2   -1    0    0  502    0  0.00000000000E+00  0.00000000000E+00  0.24705636071E+01  0.24705636071E+01  0.00000000000E+00 0.  1.
         -2   -1    0    0    0  501 -0.00000000000E+00 -0.00000000000E+00 -0.33419116773E+03  0.33419116773E+03  0.00000000000E+00 0. -1.
          1    1    1    2  502    0 -0.16628041832E+02  0.23260857239E+02 -0.18251391201E+03  0.18474005340E+03  0.00000000000E+00 0. -1.
         -1    1    1    2    0  501  0.16628041832E+02 -0.23260857239E+02 -0.14920669212E+03  0.15192167794E+03  0.00000000000E+00 0.  1.
</event>
<event>
 4    1  0.6629728E+001  0.2147824E+02  0.7546771E-02  0.1512545E+00
          2   -1    0    0  502    0  0.00000000000E+00  0.00000000000E+00  0.35036592495E+03  0.35036592495E+03  0.00000000000E+00 0. -1.
         -2   -1    0    0    0  501 -0.00000000000E+00 -0.00000000000E+00 -0.15825261299E+01  0.15825261299E+01  0.00000000000E+00 0.  1.
          1    1    1    2  502    0 -0.19840515252E+02  0.82260922957E+01  0.10226420720E+03  0.10449537174E+03  0.00000000000E+00 0.  1.
         -1    1    1    2    0  501  0.19840515252E+02 -0.82260922957E+01  0.24651919162E+03  0.24745307935E+03  0.00000000000E+00 0. -1.
</event>
<event>
 4    1  0.6629728E+001  0.2367217E+02  0.7546771E-02  0.1484226E+00
          2   -1    0    0  502    0  0.00000000000E+00  0.00000000000E+00  0.16471164464E+01  0.16471164464E+01  0.00000000000E+00 0. -1.
         -2   -1    0    0    0  501 -0.00000000000E+00 -0.00000000000E+00 -0.39678442654E+03  0.39678442654E+03  0.00000000000E+00 0.  1.
          1    1    1    2  502    0  0.39560766009E+01 -0.23339256699E+02 -0.27279026113E+03  0.27381544516E+03  0.00000000000E+00 0.  1.
         -1    1    1    2    0  501 -0.39560766009E+01  0.23339256699E+02 -0.12234704897E+03  0.12461609782E+03  0.00000000000E+00 0. -1.
</event>
<event>
 4    1  0.6629728E+001  0.2245638E+02  0.7546771E-02  0.1499440E+00
          2   -1    0    0  502    0  0.00000000000E+00  0.00000000000E+00  0.16651150969E+04  0.16651150969E+04  0.00000000000E+00 0. -1.
         -2   -1    0    0    0  501 -0.00000000000E+00 -0.00000000000E+00 -0.39375285344E+00  0.39375285344E+00  0.00000000000E+00 0.  1.
          1    1    1    2  502    0 -0.17434500974E+02 -0.14153702524E+02  0.12324720675E+04  0.12326766349E+04  0.00000000000E+00 0. -1.
         -1    1    1    2    0  501  0.17434500974E+02  0.14153702524E+02  0.43224927659E+03  0.43283221487E+03  0.00000000000E+00 0.  1.
</event>
<event>
 4    1  0.6629728E+001  0.3870358E+02  0.7546771E-02  0.1356255E+00
          2   -1    0    0  502    0  0.00000000000E+00  0.00000000000E+00  0.49358235715E+03  0.49358235715E+03  0.00000000000E+00 0.  1.
         -2   -1    0    0    0  501 -0.00000000000E+00 -0.00000000000E+00 -0.64904975723E+01  0.64904975723E+01  0.00000000000E+00 0. -1.
          1    1    1    2  502    0  0.33060710450E+02  0.20123524691E+02  0.42598870417E+03  0.42774331426E+03  0.00000000000E+00 0.  1.
         -1    1    1    2    0  501 -0.33060710450E+02 -0.20123524691E+02  0.61103155410E+02  0.72329540456E+02  0.00000000000E+00 0. -1.
</event>
<event>
 4    1  0.6629728E+001  0.2203776E+02  0.7546771E-02  0.1504948E+00
          2   -1    0    0  502    0  0.00000000000E+00  0.00000000000E+00  0.19527475980E+04  0.19527475980E+04  0.00000000000E+00 0.  1.
         -2   -1    0    0    0  501 -0.00000000000E+00 -0.00000000000E+00 -0.32099266120E+00  0.32099266120E+00  0.00000000000E+00 0. -1.
          1    1    1    2  502    0 -0.20067872921E+02  0.91073208345E+01  0.51280397980E+03  0.51327729788E+03  0.00000000000E+00 0. -1.
         -1    1    1    2    0  501  0.20067872921E+02 -0.91073208345E+01  0.14396226255E+04  0.14397912927E+04  0.00000000000E+00 0.  1.
</event>
<event>
 4    1  0.6629728E+001  0.2379558E+02  0.7546771E-02  0.1482742E+00
          2   -1    0    0  502    0  0.00000000000E+00  0.00000000000E+00  0.28724998474E+01  0.28724998474E+01  0.00000000000E+00 0. -1.
         -2   -1    0    0    0  501 -0.00000000000E+00 -0.00000000000E+00 -0.19793453284E+03  0.19793453284E+03  0.00000000000E+00 0.  1.
          1    1    1    2  502    0  0.86162798967E+01  0.22180836625E+02 -0.91093788488E+02  0.94150454559E+02  0.00000000000E+00 0.  1.
         -1    1    1    2    0  501 -0.86162798967E+01 -0.22180836625E+02 -0.10396824450E+03  0.10665657813E+03  0.00000000000E+00 0. -1.
</event>
<event>
 4    1  0.6629728E+001  0.2424107E+02  0.7546771E-02  0.1477475E+00
          2   -1    0    0  502    0  0.00000000000E+00  0.00000000000E+00  0.26716158568E+03  0.26716158568E+03  0.00000000000E+00 0.  1.
         -2   -1    0    0    0  501 -0.00000000000E+00 -0.00000000000E+00 -0.23261768977E+01  0.23261768977E+01  0.00000000000E+00 0. -1.
          1    1    1    2  502    0 -0.24115816322E+02  0.24610674035E+01  0.16385809963E+03  0.16564149922E+03  0.00000000000E+00 0.  1.
         -1    1    1    2    0  501  0.24115816322E+02 -0.24610674035E+01  0.10097730915E+03  0.10384626336E+03  0.00000000000E+00 0. -1.
</event>
<event>
 4    1  0.6629728E+001  0.2774756E+02  0.7546771E-02  0.1440240E+00
          2   -1    0    0  502    0  0.00000000000E+00  0.00000000000E+00  0.77444024685E+01  0.77444024685E+01  0.00000000000E+00 0.  1.
         -2   -1    0    0    0  501 -0.00000000000E+00 -0.00000000000E+00 -0.13086656347E+03  0.13086656347E+03  0.00000000000E+00 0. -1.
          1    1    1    2  502    0 -0.23516214635E+02 -0.14728029476E+02 -0.27586130679E+02  0.39126995909E+02  0.00000000000E+00 0.  1.
         -1    1    1    2    0  501  0.23516214635E+02  0.14728029476E+02 -0.95536030327E+02  0.99483970034E+02  0.00000000000E+00 0. -1.
</event>
<event>
 4    1  0.6629728E+001  0.2514044E+02  0.7546771E-02  0.1467238E+00
          2   -1    0    0  502    0  0.00000000000E+00  0.00000000000E+00  0.36439181152E+01  0.36439181152E+01  0.00000000000E+00 0.  1.
         -2   -1    0    0    0  501 -0.00000000000E+00 -0.00000000000E+00 -0.49545204336E+03  0.49545204336E+03  0.00000000000E+00 0. -1.
          1    1    1    2  502    0  0.24863517074E+02  0.37211892254E+01 -0.44708266975E+03  0.44778896293E+03  0.00000000000E+00 0. -1.
         -1    1    1    2    0  501 -0.24863517074E+02 -0.37211892254E+01 -0.44725455492E+02  0.51306998543E+02  0.00000000000E+00 0.  1.
</event>
<event>
 4    1  0.6629728E+001  0.3649638E+02  0.7546771E-02  0.1370338E+00
          2   -1    0    0  502    0  0.00000000000E+00  0.00000000000E+00  0.33997819604E+03  0.33997819604E+03  0.00000000000E+00 0. -1.
         -2   -1    0    0    0  501 -0.00000000000E+00 -0.00000000000E+00 -0.44476211178E+01  0.44476211178E+01  0.00000000000E+00 0.  1.
          1    1    1    2  502    0  0.36447611700E+02 -0.18860214242E+01  0.10833009710E+03  0.11431270889E+03  0.00000000000E+00 0.  1.
         -1    1    1    2    0  501 -0.36447611700E+02  0.18860214242E+01  0.22720047782E+03  0.23011310827E+03  0.00000000000E+00 0. -1.
</event>
<event>
 4    1  0.6629728E+001  0.2153741E+02  0.7546771E-02  0.1511729E+00
          2   -1    0    0  502    0  0.00000000000E+00  0.00000000000E+00  0.90514929225E+00  0.90514929225E+00  0.00000000000E+00 0. -1.
         -2   -1    0    0    0  501 -0.00000000000E+00 -0.00000000000E+00 -0.53791434546E+03  0.53791434546E+03  0.00000000000E+00 0.  1.
          1    1    1    2  502    0 -0.20757222701E+02 -0.57443493335E+01 -0.20990813890E+03  0.21101015762E+03  0.00000000000E+00 0.  1.
         -1    1    1    2    0  501  0.20757222701E+02  0.57443493335E+01 -0.32710105727E+03  0.32780933713E+03  0.00000000000E+00 0. -1.
</event>
<event>
 4    1  0.6629728E+001  0.2277733E+02  0.7546771E-02  0.1495313E+00
          2   -1    0    0  502    0  0.00000000000E+00  0.00000000000E+00  0.37475183738E+03  0.37475183738E+03  0.00000000000E+00 0. -1.
         -2   -1    0    0    0  501 -0.00000000000E+00 -0.00000000000E+00 -0.16616699451E+01  0.16616699451E+01  0.00000000000E+00 0.  1.
          1    1    1    2  502    0  0.22763804427E+02  0.78487869382E+00  0.26342509163E+03  0.26440799105E+03  0.00000000000E+00 0.  1.
         -1    1    1    2    0  501 -0.22763804427E+02 -0.78487869382E+00  0.10966507580E+03  0.11200551628E+03  0.00000000000E+00 0. -1.
</event>
<event>
 4    1  0.6629728E+001  0.2624154E+02  0.7546771E-02  0.1455379E+00
          2   -1    0    0  502    0  0.00000000000E+00  0.00000000000E+00  0.21156045643E+04  0.21156045643E+04  0.00000000000E+00 0. -1.
         -2   -1    0    0    0  501 -0.00000000000E+00 -0.00000000000E+00 -0.34635690431E+00  0.34635690431E+00  0.00000000000E+00 0.  1.
          1    1    1    2  502    0  0.21720581492E+02 -0.14725307680E+02  0.79797665623E+03  0.79840801739E+03  0.00000000000E+00 0. -1.
         -1    1    1    2    0  501 -0.21720581492E+02  0.14725307680E+02  0.13172815512E+04  0.13175429039E+04  0.00000000000E+00 0.  1.
</event>
<event>
 4    1  0.6629728E+001  0.2186205E+02  0.7546771E-02  0.1507304E+00
          2   -1    0    0  502    0  0.00000000000E+00  0.00000000000E+00  0.11709364958E+01  0.11709364958E+01  0.00000000000E+00 0.  1.
         -2   -1    0    0    0  501 -0.00000000000E+00 -0.00000000000E+00 -0.41884621063E+03  0.41884621063E+03  0.00000000000E+00 0. -1.
          1    1    1    2  502    0 -0.18015075015E+02  0.12385724593E+02 -0.17531948053E+03  0.17667730289E+03  0.00000000000E+00 0. -1.
         -1    1    1    2    0  501  0.18015075015E+02 -0.12385724593E+02 -0.24235579361E+03  0.24333984424E+03  0.00000000000E+00 0.  1.
</event>
<event>
 4    1  0.6629728E+001  0.2145907E+02  0.7546771E-02  0.1512810E+00
          2   -1    0    0  502    0  0.00000000000E+00  0.00000000000E+00  0.11408583877E+03  0.11408583877E+03  0.00000000000E+00 0. -1.
         -2   -1    0    0    0  501 -0.00000000000E+00 -0.00000000000E+00 -0.40796960132E+01  0.40796960132E+01  0.00000000000E+00 0.  1.
          1    1    1    2  502    0  0.14796474284E+02 -0.15542078042E+02  0.61092227843E+02  0.64751464416E+02  0.00000000000E+00 0. -1.
         -1    1    1    2    0  501 -0.14796474284E+02  0.15542078042E+02  0.48913914918E+02  0.53414070372E+02  0.00000000000E+00 0.  1.
</event>
<event>
 4    1  0.6629728E+001  0.3051279E+02  0.7546771E-02  0.1415192E+00
          2   -1    0    0  502    0  0.00000000000E+00  0.00000000000E+00  0.99457633643E+02  0.99457633643E+02  0.00000000000E+00 0. -1.
         -2   -1    0    0    0  501 -0.00000000000E+00 -0.00000000000E+00 -0.98839377845E+01  0.98839377845E+01  0.00000000000E+00 0.  1.
          1    1    1    2  502    0 -0.18840282226E+02  0.24001541069E+02  0.57361177737E+02  0.64971800955E+02  0.00000000000E+00 0. -1.
         -1    1    1    2    0  501  0.18840282226E+02 -0.24001541069E+02  0.32212518121E+02  0.44369770472E+02  0.00000000000E+00 0.  1.
</event>
<event>
 4    1  0.6629728E+001  0.2420772E+02  0.7546771E-02  0.1477865E+00
          2   -1    0    0  502    0  0.00000000000E+00  0.00000000000E+00  0.80467549395E+01  0.80467549395E+01  0.00000000000E+00 0. -1.
         -2   -1    0    0    0  501 -0.00000000000E+00 -0.00000000000E+00 -0.13495579996E+03  0.13495579996E+03  0.00000000000E+00 0.  1.
          1    1    1    2  502    0 -0.11299452635E+02  0.21408789884E+02 -0.11196857949E+03  0.11455556166E+03  0.00000000000E+00 0.  1.
         -1    1    1    2    0  501  0.11299452635E+02 -0.21408789884E+02 -0.14940465532E+02  0.28446993241E+02  0.00000000000E+00 0. -1.
</event>
<event>
 4    1  0.6629728E+001  0.2407079E+02  0.7546771E-02  0.1479473E+00
          2   -1    0    0  502    0  0.00000000000E+00  0.00000000000E+00  0.65267773622E+03  0.65267773622E+03  0.00000000000E+00 0. -1.
         -2   -1    0    0    0  501 -0.00000000000E+00 -0.00000000000E+00 -0.17487135907E+01  0.17487135907E+01  0.00000000000E+00 0.  1.
          1    1    1    2  502    0 -0.22074614791E+02 -0.95976292812E+01  0.55506265021E+03  0.55558433092E+03  0.00000000000E+00 0. -1.
         -1    1    1    2    0  501  0.22074614791E+02  0.95976292812E+01  0.95866372428E+02  0.98842118899E+02  0.00000000000E+00 0.  1.
</event>
<event>
 4    1  0.6629728E+001  0.3704491E+02  0.7546771E-02  0.1366730E+00
          2   -1    0    0  502    0  0.00000000000E+00  0.00000000000E+00  0.33791006234E+03  0.33791006234E+03  0.00000000000E+00 0. -1.
         -2   -1    0    0    0  501 -0.00000000000E+00 -0.00000000000E+00 -0.47910969335E+01  0.47910969335E+01  0.00000000000E+00 0.  1.
          1    1    1    2  502    0 -0.34509609167E+02  0.13468935729E+02  0.99679760856E+02  0.10634086740E+03  0.00000000000E+00 0.  1.
         -1    1    1    2    0  501  0.34509609167E+02 -0.13468935729E+02  0.23343920455E+03  0.23636029188E+03  0.00000000000E+00 0. -1.
</event>
<event>
 4    1  0.6629728E+001  0.2335701E+02  0.7546771E-02  0.1488063E+00
          2   -1    0    0  502    0  0.00000000000E+00  0.00000000000E+00  0.49028514985E+03  0.49028514985E+03  0.00000000000E+00 0. -1.
         -2   -1    0    0    0  501 -0.00000000000E+00 -0.00000000000E+00 -0.13577155158E+01  0.13577155158E+01  0.00000000000E+00 0.  1.
          1    1    1    2  502    0  0.13510239495E+02 -0.19053167653E+02  0.14004099590E+03  0.14197545669E+03  0.00000000000E+00 0.  1.
         -1    1    1    2    0  501 -0.13510239495E+02  0.19053167653E+02  0.34888643843E+03  0.34966740868E+03  0.00000000000E+00 0. -1.
</event>
<event>
 4    1  0.6629728E+001  0.4053768E+02  0.7546771E-02  0.1345364E+00
          2   -1    0    0  502    0  0.00000000000E+00  0.00000000000E+00  0.29924360491E+03  0.29924360491E+03  0.00000000000E+00 0.  1.
         -2   -1    0    0    0  501 -0.00000000000E+00 -0.00000000000E+00 -0.54980362696E+01  0.54980362696E+01  0.00000000000E+00 0. -1.
          1    1    1    2  502    0  0.27201176020E+02 -0.30056601406E+02  0.15211703566E+03  0.15742584223E+03  0.00000000000E+00 0. -1.
         -1    1    1    2    0  501 -0.27201176020E+02  0.30056601406E+02  0.14162853298E+03  0.14731579894E+03  0.00000000000E+00 0.  1.
</event>
<event>
 4    1  0.6629728E+001  0.2127588E+02  0.7546771E-02  0.1515362E+00
          2   -1    0    0  502    0  0.00000000000E+00  0.00000000000E+00  0.21416822514E+03  0.21416822514E+03  0.00000000000E+00 0.  1.
         -2   -1    0    0    0  501 -0.00000000000E+00 -0.00000000000E+00 -0.25193258180E+01  0.25193258180E+01  0.00000000000E+00 0. -1.
          1    1    1    2  502    0  0.64750461941E+01  0.20266642512E+02  0.62344857395E+02  0.65875217385E+02  0.00000000000E+00 0. -1.
         -1    1    1    2    0  501 -0.64750461941E+01 -0.20266642512E+02  0.14930404193E+03  0.15081233357E+03  0.00000000000E+00 0.  1.
</event>
<event>
 4    1  0.6629728E+001  0.2308333E+02  0.7546771E-02  0.1491454E+00
          2   -1    0    0  502    0  0.00000000000E+00  0.00000000000E+00  0.11127450022E+03  0.11127450022E+03  0.00000000000E+00 0. -1.
         -2   -1    0    0    0  501 -0.00000000000E+00 -0.00000000000E+00 -0.64099179827E+01  0.64099179827E+01  0.00000000000E+00 0.  1.
          1    1    1    2  502    0 -0.55001389974E+01  0.22418486903E+02  0.82026562375E+02  0.85212657622E+02  0.00000000000E+00 0. -1.
         -1    1    1    2    0  501  0.55001389974E+01 -0.22418486903E+02  0.22838019864E+02  0.32471760583E+02  0.00000000000E+00 0.  1.
</event>
<event>
 4    1  0.6629728E+001  0.7874834E+02  0.7546771E-02  0.1206784E+00
          2   -1    0    0  502    0  0.00000000000E+00  0.00000000000E+00  0.25393889178E+04  0.25393889178E+04  0.00000000000E+00 0. -1.
         -2   -1    0    0    0  501 -0.00000000000E+00 -0.00000000000E+00 -0.24760690619E+01  0.24760690619E+01  0.00000000000E+00 0.  1.
          1    1    1    2  502    0 -0.78746013400E+02 -0.60567124934E+00  0.14174390274E+04  0.14196248441E+04  0.00000000000E+00 0. -1.
         -1    1    1    2    0  501  0.78746013400E+02  0.60567124934E+00  0.11194738213E+04  0.11222401428E+04  0.00000000000E+00 0.  1.
</event>
<event>
 4    1  0.6629728E+001  0.3633615E+02  0.7546771E-02  0.1371405E+00
          2   -1    0    0  502    0  0.00000000000E+00  0.00000000000E+00  0.90870487891E+03  0.90870487891E+03  0.00000000000E+00 0. -1.
         -2   -1    0    0    0  501 -0.00000000000E+00 -0.00000000000E+00 -0.14564736907E+01  0.14564736907E+01  0.00000000000E+00 0.  1.
          1    1    1    2  502    0  0.25521566897E+02 -0.25864360471E+02  0.43128495644E+03  0.43281292630E+03  0.00000000000E+00 0.  1.
         -1    1    1    2    0  501 -0.25521566897E+02  0.25864360471E+02  0.47596344878E+03  0.47734842630E+03  0.00000000000E+00 0. -1.
</event>
<event>
 4    1  0.6629728E+001  0.2337348E+02  0.7546771E-02  0.1487861E+00
          2   -1    0    0  502    0  0.00000000000E+00  0.00000000000E+00  0.10758462256E+04  0.10758462256E+04  0.00000000000E+00 0.  1.
         -2   -1    0    0    0  501 -0.00000000000E+00 -0.00000000000E+00 -0.52922690264E+00  0.52922690264E+00  0.00000000000E+00 0. -1.
          1    1    1    2  502    0 -0.22658267228E+02 -0.57378320007E+01  0.42937938231E+03  0.43001508548E+03  0.00000000000E+00 0.  1.
         -1    1    1    2    0  501  0.22658267228E+02  0.57378320007E+01  0.64593761638E+03  0.64636036701E+03  0.00000000000E+00 0. -1.
</event>
<event>
 4    1  0.6629728E+001  0.5393123E+02  0.7546771E-02  0.1281972E+00
          2   -1    0    0  502    0  0.00000000000E+00  0.00000000000E+00  0.99242174326E+03  0.99242174326E+03  0.00000000000E+00 0.  1.
         -2   -1    0    0    0  501 -0.00000000000E+00 -0.00000000000E+00 -0.38574087364E+01  0.38574087364E+01  0.00000000000E+00 0. -1.
          1    1    1    2  502    0 -0.37802271599E+02  0.38465127566E+02  0.73843075401E+03  0.74039756634E+03  0.00000000000E+00 0.  1.
         -1    1    1    2    0  501  0.37802271599E+02 -0.38465127566E+02  0.25013358051E+03  0.25588158566E+03  0.00000000000E+00 0. -1.
</event>
<event>
 4    1  0.6629728E+001  0.2957592E+02  0.7546771E-02  0.1423318E+00
          2   -1    0    0  502    0  0.00000000000E+00  0.00000000000E+00  0.34218981499E+03  0.34218981499E+03  0.00000000000E+00 0. -1.
         -2   -1    0    0    0  501 -0.00000000000E+00 -0.00000000000E+00 -0.35361443034E+01  0.35361443034E+01  0.00000000000E+00 0.  1.
          1    1    1    2  502    0 -0.20064398120E+01 -0.29507782230E+02  0.78331599093E+02  0.83729173107E+02  0.00000000000E+00 0.  1.
         -1    1    1    2    0  501  0.20064398120E+01  0.29507782230E+02  0.26032207160E+03  0.26199678619E+03  0.00000000000E+00 0. -1.
</event>
<event>
 4    1  0.6629728E+001  0.3998326E+02  0.7546771E-02  0.1348584E+00
          2   -1    0    0  502    0  0.00000000000E+00  0.00000000000E+00  0.16701809637E+04  0.16701809637E+04  0.00000000000E+00 0. -1.
         -2   -1    0    0    0  501 -0.00000000000E+00 -0.00000000000E+00 -0.10166216970E+01  0.10166216970E+01  0.00000000000E+00 0.  1.
          1    1    1    2  502    0 -0.27207648377E+02 -0.29298547158E+02  0.10366373016E+04  0.10374080952E+04  0.00000000000E+00 0. -1.
         -1    1    1    2    0  501  0.27207648377E+02  0.29298547158E+02  0.63252704045E+03  0.63378949020E+03  0.00000000000E+00 0.  1.
</event>
<event>
 4    1  0.6629728E+001  0.2042102E+02  0.7546771E-02  0.1527694E+00
          2   -1    0    0  502    0  0.00000000000E+00  0.00000000000E+00  0.20235351125E+03  0.20235351125E+03  0.00000000000E+00 0. -1.
         -2   -1    0    0    0  501 -0.00000000000E+00 -0.00000000000E+00 -0.21224387472E+01  0.21224387472E+01  0.00000000000E+00 0.  1.
          1    1    1    2  502    0 -0.20170588737E+02 -0.31883391504E+01  0.11753286421E+03  0.11929372291E+03  0.00000000000E+00 0.  1.
         -1    1    1    2    0  501  0.20170588737E+02  0.31883391504E+01  0.82698208293E+02  0.85182227086E+02  0.00000000000E+00 0. -1.
</event>
<event>
 4    1  0.6629728E+001  0.4787217E+02  0.7546771E-02  0.1307671E+00
          2   -1    0    0  502    0  0.00000000000E+00  0.00000000000E+00  0.77885304740E+03  0.77885304740E+03  0.00000000000E+00 0.  1.
         -2   -1    0    0    0  501 -0.00000000000E+00 -0.00000000000E+00 -0.32042675154E+01  0.32042675154E+01  0.00000000000E+00 0. -1.
          1    1    1    2  502    0  0.39175168916E+02  0.27514556610E+02  0.27605201929E+03  0.28017220069E+03  0.00000000000E+00 0.  1.
         -1    1    1    2    0  501 -0.39175168916E+02 -0.27514556610E+02  0.49959676059E+03  0.50188511423E+03  0.00000000000E+00 0. -1.
</event>
<event>
 4    1  0.6629728E+001  0.3537747E+02  0.7546771E-02  0.1377929E+00
          2   -1    0    0  502    0  0.00000000000E+00  0.00000000000E+00  0.28764398605E+02  0.28764398605E+02  0.00000000000E+00 0.  1.
         -2   -1    0    0    0  501 -0.00000000000E+00 -0.00000000000E+00 -0.52838767557E+02  0.52838767557E+02  0.00000000000E+00 0. -1.
          1    1    1    2  502    0  0.31805970150E+02 -0.15490177164E+02  0.51059997353E+01  0.35744042288E+02  0.00000000000E+00 0.  1.
         -1    1    1    2    0  501 -0.31805970150E+02  0.15490177164E+02 -0.29180368688E+02  0.45859123874E+02  0.00000000000E+00 0. -1.
</event>
<event>
 4    1  0.6629728E+001  0.7568747E+02  0.7546771E-02  0.1214229E+00
          2   -1    0    0  502    0  0.00000000000E+00  0.00000000000E+00  0.12503561357E+04  0.12503561357E+04  0.00000000000E+00 0.  1.
         -2   -1    0    0    0  501 -0.00000000000E+00 -0.00000000000E+00 -0.51234579380E+01  0.51234579380E+01  0.00000000000E+00 0. -1.
          1    1    1    2  502    0 -0.56662037096E+02 -0.50179745477E+02  0.82676808156E+03  0.83022530315E+03  0.00000000000E+00 0.  1.
         -1    1    1    2    0  501  0.56662037096E+02  0.50179745477E+02  0.41846459620E+03  0.42525429049E+03  0.00000000000E+00 0. -1.
</event>
<event>
 4    1  0.6629728E+001  0.3709759E+02  0.7546771E-02  0.1366388E+00
          2   -1    0    0  502    0  0.00000000000E+00  0.00000000000E+00  0.24558895969E+04  0.24558895969E+04  0.00000000000E+00 0. -1.
         -2   -1    0    0    0  501 -0.00000000000E+00 -0.00000000000E+00 -0.76873685485E+00  0.76873685485E+00  0.00000000000E+00 0.  1.
          1    1    1    2  502    0 -0.17736570426E+02  0.32582894671E+02  0.58807595789E+03  0.58924490936E+03  0.00000000000E+00 0.  1.
         -1    1    1    2    0  501  0.17736570426E+02 -0.32582894671E+02  0.18670449022E+04  0.18674134244E+04  0.00000000000E+00 0. -1.
</event>
<event>
 4    1  0.6629728E+001  0.2602932E+02  0.7546771E-02  0.1457610E+00
          2   -1    0    0  502    0  0.00000000000E+00  0.00000000000E+00  0.19721532004E+04  0.19721532004E+04  0.00000000000E+00 0.  1.
         -2   -1    0    0    0  501 -0.00000000000E+00 -0.00000000000E+00 -0.35818283787E+00  0.35818283787E+00  0.00000000000E+00 0. -1.
          1    1    1    2  502    0  0.90457370688E+01 -0.24406968585E+02  0.11852674954E+04  0.11855532722E+04  0.00000000000E+00 0.  1.
         -1    1    1    2    0  501 -0.90457370688E+01  0.24406968585E+02  0.78652752216E+03  0.78695811108E+03  0.00000000000E+00 0. -1.
</event>
<event>
 4    1  0.6629728E+001  0.3746372E+02  0.7546771E-02  0.1364025E+00
          2   -1    0    0  502    0  0.00000000000E+00  0.00000000000E+00  0.19730052415E+04  0.19730052415E+04  0.00000000000E+00 0. -1.
         -2   -1    0    0    0  501 -0.00000000000E+00 -0.00000000000E+00 -0.74317394401E+00  0.74317394401E+00  0.00000000000E+00 0.  1.
          1    1    1    2  502    0 -0.37032963799E+02 -0.56647859570E+01  0.78196680563E+03  0.78286372717E+03  0.00000000000E+00 0. -1.
         -1    1    1    2    0  501  0.37032963799E+02  0.56647859570E+01  0.11902952620E+04  0.11908846883E+04  0.00000000000E+00 0.  1.
</event>
<event>
 4    1  0.6629728E+001  0.3540501E+02  0.7546771E-02  0.1377738E+00
          2   -1    0    0  502    0  0.00000000000E+00  0.00000000000E+00  0.64859654479E+03  0.64859654479E+03  0.00000000000E+00 0. -1.
         -2   -1    0    0    0  501 -0.00000000000E+00 -0.00000000000E+00 -0.19376615727E+01  0.19376615727E+01  0.00000000000E+00 0.  1.
          1    1    1    2  502    0  0.16665389263E+02 -0.31237466621E+02  0.30679865467E+03  0.30883479245E+03  0.00000000000E+00 0.  1.
         -1    1    1    2    0  501 -0.16665389263E+02  0.31237466621E+02  0.33986022855E+03  0.34169941392E+03  0.00000000000E+00 0. -1.
</event>
<event>
 4    1  0.6629728E+001  0.2143244E+02  0.7546771E-02  0.1513179E+00
          2   -1    0    0  502    0  0.00000000000E+00  0.00000000000E+00  0.72138416804E+03  0.72138416804E+03  0.00000000000E+00 0. -1.
         -2   -1    0    0    0  501 -0.00000000000E+00 -0.00000000000E+00 -0.13606610581E+01  0.13606610581E+01  0.00000000000E+00 0.  1.
          1    1    1    2  502    0  0.79796351170E+01  0.19891580220E+02  0.62359586459E+03  0.62396406297E+03  0.00000000000E+00 0. -1.
         -1    1    1    2    0  501 -0.79796351170E+01 -0.19891580220E+02  0.96427642393E+02  0.98780766132E+02  0.00000000000E+00 0.  1.
</event>
<event>
 4    1  0.6629728E+001  0.2162926E+02  0.7546771E-02  0.1510467E+00
          2   -1    0    0  502    0  0.00000000000E+00  0.00000000000E+00  0.30631326760E+03  0.30631326760E+03  0.00000000000E+00 0. -1.
         -2   -1    0    0    0  501 -0.00000000000E+00 -0.00000000000E+00 -0.41883510654E+01  0.41883510654E+01  0.00000000000E+00 0.  1.
          1    1    1    2  502    0  0.11652587426E+02  0.18222017659E+02  0.27313672759E+02  0.34840514360E+02  0.00000000000E+00 0.  1.
         -1    1    1    2    0  501 -0.11652587426E+02 -0.18222017659E+02  0.27481124377E+03  0.27566110430E+03  0.00000000000E+00 0. -1.
</event>
<event>
 4    1  0.6629728E+001  0.4343769E+02  0.7546771E-02  0.1329439E+00
          2   -1    0    0  502    0  0.00000000000E+00  0.00000000000E+00  0.13030317701E+04  0.13030317701E+04  0.00000000000E+00 0. -1.
         -2   -1    0    0    0  501 -0.00000000000E+00 -0.00000000000E+00 -0.14702283628E+01  0.14702283628E+01  0.00000000000E+00 0.  1.
          1    1    1    2  502    0  0.38151938270E+02 -0.20766871120E+02  0.73092108243E+03  0.73221066782E+03  0.00000000000E+00 0. -1.
         -1    1    1    2    0  501 -0.38151938270E+02  0.20766871120E+02  0.57064045934E+03  0.57229133068E+03  0.00000000000E+00 0.  1.
</event>
<event>
 4    1  0.6629728E+001  0.2635397E+02  0.7546771E-02  0.1454208E+00
          2   -1    0    0  502    0  0.00000000000E+00  0.00000000000E+00  0.46081501000E+03  0.46081501000E+03  0.00000000000E+00 0.  1.
         -2   -1    0    0    0  501 -0.00000000000E+00 -0.00000000000E+00 -0.15661747301E+01  0.15661747301E+01  0.00000000000E+00 0. -1.
          1    1    1    2  502    0  0.23436656625E+02 -0.12052175134E+02  0.27449395677E+03  0.27575616784E+03  0.00000000000E+00 0.  1.
         -1    1    1    2    0  501 -0.23436656625E+02  0.12052175134E+02  0.18475487850E+03  0.18662501689E+03  0.00000000000E+00 0. -1.
</event>
<event>
 4    1  0.6629728E+001  0.2183780E+02  0.7546771E-02  0.1507631E+00
          2   -1    0    0  502    0  0.00000000000E+00  0.00000000000E+00  0.28994223306E+03  0.28994223306E+03  0.00000000000E+00 0. -1.
         -2   -1    0    0    0  501 -0.00000000000E+00 -0.00000000000E+00 -0.27671422773E+01  0.27671422773E+01  0.00000000000E+00 0.  1.
          1    1    1    2  502    0 -0.30017500956E+01 -0.21630509632E+02  0.50378388155E+02  0.54907845010E+02  0.00000000000E+00 0.  1.
         -1    1    1    2    0  501  0.30017500956E+01  0.21630509632E+02  0.23679670263E+03  0.23780153032E+03  0.00000000000E+00 0. -1.
</event>
<event>
 4    1  0.6629728E+001  0.4280365E+02  0.7546771E-02  0.1332796E+00
          2   -1    0    0  502    0  0.00000000000E+00  0.00000000000E+00  0.13414921492E+02  0.13414921492E+02  0.00000000000E+00 0. -1.
         -2   -1    0    0    0  501 -0.00000000000E+00 -0.00000000000E+00 -0.24201074519E+03  0.24201074519E+03  0.00000000000E+00 0.  1.
          1    1    1    2  502    0  0.37143312913E+02 -0.21272680578E+02 -0.30001389623E+02  0.52270795024E+02  0.00000000000E+00 0. -1.
         -1    1    1    2    0  501 -0.37143312913E+02  0.21272680578E+02 -0.19859443408E+03  0.20315487166E+03  0.00000000000E+00 0.  1.
</event>
<event>
 4    1  0.6629728E+001  0.2606612E+02  0.7546771E-02  0.1457222E+00
          2   -1    0    0  502    0  0.00000000000E+00  0.00000000000E+00  0.12632629112E+04  0.12632629112E+04  0.00000000000E+00 0. -1.
         -2   -1    0    0    0  501 -0.00000000000E+00 -0.00000000000E+00 -0.55384797777E+00  0.55384797777E+00  0.00000000000E+00 0.  1.
          1    1    1    2  502    0 -0.10858765672E+01  0.26043493176E+02  0.73876008594E+03  0.73921979630E+03  0.00000000000E+00 0. -1.
         -1    1    1    2    0  501  0.10858765672E+01 -0.26043493176E+02  0.52394897725E+03  0.52459696285E+03  0.00000000000E+00 0.  1.
</event>
<event>
 4    1  0.6629728E+001  0.5228960E+02  0.7546771E-02  0.1288539E+00
          2   -1    0    0  502    0  0.00000000000E+00  0.00000000000E+00  0.34596032698E+02  0.34596032698E+02  0.00000000000E+00 0.  1.
         -2   -1    0    0    0  501 -0.00000000000E+00 -0.00000000000E+00 -0.85490900170E+02  0.85490900170E+02  0.00000000000E+00 0. -1.
          1    1    1    2  502    0 -0.41587014126E+02  0.31697366484E+02 -0.89439273450E+01  0.53049002086E+02  0.00000000000E+00 0.  1.
         -1    1    1    2    0  501  0.41587014126E+02 -0.31697366484E+02 -0.41950940127E+02  0.67037930782E+02  0.00000000000E+00 0. -1.
</event>
<event>
 4    1  0.6629728E+001  0.2399776E+02  0.7546771E-02  0.1480335E+00
          2   -1    0    0  502    0  0.00000000000E+00  0.00000000000E+00  0.11738826229E+04  0.11738826229E+04  0.00000000000E+00 0. -1.
         -2   -1    0    0    0  501 -0.00000000000E+00 -0.00000000000E+00 -0.53750510804E+00  0.53750510804E+00  0.00000000000E+00 0.  1.
          1    1    1    2  502    0 -0.67262703202E+01 -0.23035838146E+02  0.76016018568E+03  0.76053888819E+03  0.00000000000E+00 0.  1.
         -1    1    1    2    0  501  0.67262703202E+01  0.23035838146E+02  0.41318493212E+03  0.41388123983E+03  0.00000000000E+00 0. -1.
</event>
<event>
 4    1  0.6629728E+001  0.2066225E+02  0.7546771E-02  0.1524142E+00
          2   -1    0    0  502    0  0.00000000000E+00  0.00000000000E+00  0.74582364114E+02  0.74582364114E+02  0.00000000000E+00 0.  1.
         -2   -1    0    0    0  501 -0.00000000000E+00 -0.00000000000E+00 -0.10980168524E+02  0.10980168524E+02  0.00000000000E+00 0. -1.
          1    1    1    2  502    0 -0.77411134184E+00 -0.20647738881E+02  0.22023529872E+01  0.20779286031E+02  0.00000000000E+00 0. -1.
         -1    1    1    2    0  501  0.77411134184E+00  0.20647738881E+02  0.61399842603E+02  0.64783246607E+02  0.00000000000E+00 0.  1.
</event>
<event>
 4    1  0.6629728E+001  0.3018456E+02  0.7546771E-02  0.1417999E+00
          2   -1    0    0  502    0  0.00000000000E+00  0.00000000000E+00  0.66608296544E+03  0.66608296544E+03  0.00000000000E+00 0.  1.
         -2   -1    0    0    0  501 -0.00000000000E+00 -0.00000000000E+00 -0.32994872991E+01  0.32994872991E+01  0.00000000000E+00 0. -1.
          1    1    1    2  502    0 -0.19557594955E+02 -0.22991482415E+02  0.75307504590E+02  0.81131547697E+02  0.00000000000E+00 0. -1.
         -1    1    1    2    0  501  0.19557594955E+02  0.22991482415E+02  0.58747597355E+03  0.58825090504E+03  0.00000000000E+00 0.  1.
</event>
<event>
 4    1  0.6629728E+001  0.2065761E+02  0.7546771E-02  0.1524210E+00
          2   -1    0    0  502    0  0.00000000000E+00  0.00000000000E+00  0.11221297589E+01  0.11221297589E+01  0.00000000000E+00 0.  1.
         -2   -1    0    0    0  501 -0.00000000000E+00 -0.00000000000E+00 -0.56461629530E+03  0.56461629530E+03  0.00000000000E+00 0. -1.
          1    1    1    2  502    0 -0.14733059744E+02 -0.14480117084E+02 -0.12012510941E+03  0.12188838645E+03  0.00000000000E+00 0.  1.
         -1    1    1    2    0  501  0.14733059744E+02  0.14480117084E+02 -0.44336905613E+03  0.44385003861E+03  0.00000000000E+00 0. -1.
</event>
<event>
 4    1  0.6629728E+001  0.2478087E+02  0.7546771E-02  0.1471270E+00
          2   -1    0    0  502    0  0.00000000000E+00  0.00000000000E+00  0.14730881863E+02  0.14730881863E+02  0.00000000000E+00 0.  1.
         -2   -1    0    0    0  501 -0.00000000000E+00 -0.00000000000E+00 -0.92514208656E+02  0.92514208656E+02  0.00000000000E+00 0. -1.
          1    1    1    2  502    0 -0.13900784908E+01 -0.24741855270E+02  0.85400044108E+00  0.24795585033E+02  0.00000000000E+00 0.  1.
         -1    1    1    2    0  501  0.13900784908E+01  0.24741855270E+02 -0.78637327233E+02  0.82449505485E+02  0.00000000000E+00 0. -1.
</event>
<event>
 4    1  0.6629728E+001  0.3907430E+02  0.7546771E-02  0.1353997E+00
          2   -1    0    0  502    0  0.00000000000E+00  0.00000000000E+00  0.97601420973E+01  0.97601420973E+01  0.00000000000E+00 0. -1.
         -2   -1    0    0    0  501 -0.00000000000E+00 -0.00000000000E+00 -0.18607308425E+03  0.18607308425E+03  0.00000000000E+00 0.  1.
          1    1    1    2  502    0 -0.63625350840E+01  0.38552808518E+02 -0.12723695070E+03  0.13310162479E+03  0.00000000000E+00 0.  1.
         -1    1    1    2    0  501  0.63625350840E+01 -0.38552808518E+02 -0.49075991450E+02  0.62731601558E+02  0.00000000000E+00 0. -1.
</event>
<event>
 4    1  0.6629728E+001  0.6698048E+02  0.7546771E-02  0.1237797E+00
          2   -1    0    0  502    0  0.00000000000E+00  0.00000000000E+00  0.45687236389E+03  0.45687236389E+03  0.00000000000E+00 0. -1.
         -2   -1    0    0    0  501 -0.00000000000E+00 -0.00000000000E+00 -0.10477114025E+02  0.10477114025E+02  0.00000000000E+00 0.  1.
          1    1    1    2  502    0 -0.27217756174E+02 -0.61201129087E+02  0.16466672796E+03  0.17776815168E+03  0.00000000000E+00 0.  1.
         -1    1    1    2    0  501  0.27217756174E+02  0.61201129087E+02  0.28172852190E+03  0.28958132624E+03  0.00000000000E+00 0. -1.
</event>
<event>
 4    1  0.6629728E+001  0.2500927E+02  0.7546771E-02  0.1468700E+00
          2   -1    0    0  502    0  0.00000000000E+00  0.00000000000E+00  0.35991172332E+03  0.35991172332E+03  0.00000000000E+00 0.  1.
         -2   -1    0    0    0  501 -0.00000000000E+00 -0.00000000000E+00 -0.45730683794E+01  0.45730683794E+01  0.00000000000E+00 0. -1.
          1    1    1    2  502    0  0.95548136845E+01 -0.23112099883E+02  0.32116563757E+03  0.32213790584E+03  0.00000000000E+00 0.  1.
         -1    1    1    2    0  501 -0.95548136845E+01  0.23112099883E+02  0.34173017376E+02  0.42346885861E+02  0.00000000000E+00 0. -1.
</event>
<event>
 4    1  0.6629728E+001  0.2303255E+02  0.7546771E-02  0.1492090E+00
          2   -1    0    0  502    0  0.00000000000E+00  0.00000000000E+00  0.39267474006E+03  0.39267474006E+03  0.00000000000E+00 0.  1.
         -2   -1    0    0    0  501 -0.00000000000E+00 -0.00000000000E+00 -0.16923475019E+01  0.16923475019E+01  0.00000000000E+00 0. -1.
          1    1    1    2  502    0  0.20400532311E+02  0.10691888871E+02  0.28405024751E+03  0.28498252809E+03  0.00000000000E+00 0.  1.
         -1    1    1    2    0  501 -0.20400532311E+02 -0.10691888871E+02  0.10693214505E+03  0.10938455947E+03  0.00000000000E+00 0. -1.
</event>
<event>
 4    1  0.6629728E+001  0.3008549E+02  0.7546771E-02  0.1418855E+00
          2   -1    0    0  502    0  0.00000000000E+00  0.00000000000E+00  0.15144840300E+03  0.15144840300E+03  0.00000000000E+00 0.  1.
         -2   -1    0    0    0  501 -0.00000000000E+00 -0.00000000000E+00 -0.69686621967E+01  0.69686621967E+01  0.00000000000E+00 0. -1.
          1    1    1    2  502    0  0.27603765830E+02 -0.11965324023E+02  0.10212675663E+03  0.10646601000E+03  0.00000000000E+00 0.  1.
         -1    1    1    2    0  501 -0.27603765830E+02  0.11965324023E+02  0.42352984174E+02  0.51951055190E+02  0.00000000000E+00 0. -1.
</event>
<event>
 4    1  0.6629728E+001  0.2560064E+02  0.7546771E-02  0.1462195E+00
          2   -1    0    0  502    0  0.00000000000E+00  0.00000000000E+00  0.10523726190E+03  0.10523726190E+03  0.00000000000E+00 0.  1.
         -2   -1    0    0    0  501 -0.00000000000E+00 -0.00000000000E+00 -0.73385344981E+01  0.73385344981E+01  0.00000000000E+00 0. -1.
          1    1    1    2  502    0  0.22124077140E+02 -0.12880922725E+02  0.27050464133E+02  0.37244067573E+02  0.00000000000E+00 0. -1.
         -1    1    1    2    0  501 -0.22124077140E+02  0.12880922725E+02  0.70848263264E+02  0.75331728821E+02  0.00000000000E+00 0.  1.
</event>
<event>
 4    1  0.6629728E+001  0.2248032E+02  0.7546771E-02  0.1499129E+00
          2   -1    0    0  502    0  0.00000000000E+00  0.00000000000E+00  0.27557857999E+01  0.27557857999E+01  0.00000000000E+00 0. -1.
         -2   -1    0    0    0  501 -0.00000000000E+00 -0.00000000000E+00 -0.18345586661E+03  0.18345586661E+03  0.00000000000E+00 0.  1.
          1    1    1    2  502    0 -0.76765316183E+01 -0.21129024986E+02 -0.92202979353E+02  0.94903921079E+02  0.00000000000E+00 0. -1.
         -1    1    1    2    0  501  0.76765316183E+01  0.21129024986E+02 -0.88497101457E+02  0.91307731331E+02  0.00000000000E+00 0.  1.
</event>
<event>
 4    1  0.6629728E+001  0.3455100E+02  0.7546771E-02  0.1383748E+00
          2   -1    0    0  502    0  0.00000000000E+00  0.00000000000E+00  0.98786970594E+03  0.98786970594E+03  0.00000000000E+00 0.  1.
         -2   -1    0    0    0  501 -0.00000000000E+00 -0.00000000000E+00 -0.12181578346E+01  0.12181578346E+01  0.00000000000E+00 0. -1.
          1    1    1    2  502    0 -0.34534637484E+02  0.10630483553E+01  0.44913168964E+03  0.45045870610E+03  0.00000000000E+00 0. -1.
         -1    1    1    2    0  501  0.34534637484E+02 -0.10630483553E+01  0.53751985846E+03  0.53862915768E+03  0.00000000000E+00 0.  1.
</event>
<event>
 4    1  0.6629728E+001  0.2037259E+02  0.7546771E-02  0.1528414E+00
          2   -1    0    0  502    0  0.00000000000E+00  0.00000000000E+00  0.19292658050E+01  0.19292658050E+01  0.00000000000E+00 0.  1.
         -2   -1    0    0    0  501 -0.00000000000E+00 -0.00000000000E+00 -0.31558816925E+03  0.31558816925E+03  0.00000000000E+00 0. -1.
          1    1    1    2  502    0  0.20084778164E+02  0.34123392913E+01 -0.24640108712E+03  0.24724186156E+03  0.00000000000E+00 0. -1.
         -1    1    1    2    0  501 -0.20084778164E+02 -0.34123392913E+01 -0.67257816321E+02  0.70275573491E+02  0.00000000000E+00 0.  1.
</event>
<event>
 4    1  0.6629728E+001  0.2077222E+02  0.7546771E-02  0.1522542E+00
          2   -1    0    0  502    0  0.00000000000E+00  0.00000000000E+00  0.58830341215E+03  0.58830341215E+03  0.00000000000E+00 0. -1.
         -2   -1    0    0    0  501 -0.00000000000E+00 -0.00000000000E+00 -0.92061616058E+00  0.92061616058E+00  0.00000000000E+00 0.  1.
          1    1    1    2  502    0  0.87528426907E+00  0.20753767638E+02  0.42653386672E+03  0.42703937108E+03  0.00000000000E+00 0. -1.
         -1    1    1    2    0  501 -0.87528426907E+00 -0.20753767638E+02  0.16084892927E+03  0.16218465723E+03  0.00000000000E+00 0.  1.
</event>
<event>
 4    1  0.6629728E+001  0.4825604E+02  0.7546771E-02  0.1305916E+00
          2   -1    0    0  502    0  0.00000000000E+00  0.00000000000E+00  0.10974758769E+03  0.10974758769E+03  0.00000000000E+00 0. -1.
         -2   -1    0    0    0  501 -0.00000000000E+00 -0.00000000000E+00 -0.61055152917E+02  0.61055152917E+02  0.00000000000E+00 0.  1.
          1    1    1    2  502    0 -0.20679705085E+01 -0.48211709986E+02  0.93329963170E+02  0.10506725231E+03  0.00000000000E+00 0. -1.
         -1    1    1    2    0  501  0.20679705085E+01  0.48211709986E+02 -0.44637528392E+02  0.65735488306E+02  0.00000000000E+00 0.  1.
</event>
<event>
 4    1  0.6629728E+001  0.2391790E+02  0.7546771E-02  0.1481283E+00
          2   -1    0    0  502    0  0.00000000000E+00  0.00000000000E+00  0.20796869232E+02  0.20796869232E+02  0.00000000000E+00 0. -1.
         -2   -1    0    0    0  501 -0.00000000000E+00 -0.00000000000E+00 -0.60455432729E+02  0.60455432729E+02  0.00000000000E+00 0.  1.
          1    1    1    2  502    0 -0.11778940963E+02  0.20816401011E+02  0.10162573111E+02  0.25987379504E+02  0.00000000000E+00 0. -1.
         -1    1    1    2    0  501  0.11778940963E+02 -0.20816401011E+02 -0.49821136608E+02  0.55264922457E+02  0.00000000000E+00 0.  1.
</event>
<event>
 4    1  0.6629728E+001  0.2076927E+02  0.7546771E-02  0.1522585E+00
          2   -1    0    0  502    0  0.00000000000E+00  0.00000000000E+00  0.39884830141E+02  0.39884830141E+02  0.00000000000E+00 0.  1.
         -2   -1    0    0    0  501 -0.00000000000E+00 -0.00000000000E+00 -0.12679213681E+02  0.12679213681E+02  0.00000000000E+00 0. -1.
          1    1    1    2  502    0 -0.18493218958E+02 -0.94532195149E+01  0.23679938957E+02  0.31497650954E+02  0.00000000000E+00 0. -1.
         -1    1    1    2    0  501  0.18493218958E+02  0.94532195149E+01  0.35256775029E+01  0.21066392868E+02  0.00000000000E+00 0.  1.
</event>
<event>
 4    1  0.6629728E+001  0.2103444E+02  0.7546771E-02  0.1518774E+00
          2   -1    0    0  502    0  0.00000000000E+00  0.00000000000E+00  0.86003961331E+03  0.86003961331E+03  0.00000000000E+00 0.  1.
         -2   -1    0    0    0  501 -0.00000000000E+00 -0.00000000000E+00 -0.50810168003E+01  0.50810168003E+01  0.00000000000E+00 0. -1.
          1    1    1    2  502    0  0.20646736346E+02 -0.40199669472E+01  0.83755707900E+03  0.83782116734E+03  0.00000000000E+00 0.  1.
         -1    1    1    2    0  501 -0.20646736346E+02  0.40199669472E+01  0.17401517507E+02  0.27299462770E+02  0.00000000000E+00 0. -1.
</event>
<event>
 4    1  0.6629728E+001  0.2642494E+02  0.7546771E-02  0.1453472E+00
          2   -1    0    0  502    0  0.00000000000E+00  0.00000000000E+00  0.56022233700E+03  0.56022233700E+03  0.00000000000E+00 0. -1.
         -2   -1    0    0    0  501 -0.00000000000E+00 -0.00000000000E+00 -0.22783998877E+01  0.22783998877E+01  0.00000000000E+00 0.  1.
          1    1    1    2  502    0 -0.16149445952E+02 -0.20915851122E+02  0.89688875924E+02  0.93500651855E+02  0.00000000000E+00 0.  1.
         -1    1    1    2    0  501  0.16149445952E+02  0.20915851122E+02  0.46825506118E+03  0.46900008503E+03  0.00000000000E+00 0. -1.
</event>
<event>
 4    1  0.6629728E+001  0.2147917E+02  0.7546771E-02  0.1512532E+00
          2   -1    0    0  502    0  0.00000000000E+00  0.00000000000E+00  0.17383070169E+03  0.17383070169E+03  0.00000000000E+00 0. -1.
         -2   -1    0    0    0  501 -0.00000000000E+00 -0.00000000000E+00 -0.40743636167E+01  0.40743636167E+01  0.00000000000E+00 0.  1.
          1    1    1    2  502    0 -0.13649080366E+02  0.16584851402E+02  0.13739773778E+03  0.13906650581E+03  0.00000000000E+00 0. -1.
         -1    1    1    2    0  501  0.13649080366E+02 -0.16584851402E+02  0.32358600292E+02  0.38838559496E+02  0.00000000000E+00 0.  1.
</event>
<event>
 4    1  0.6629728E+001  0.2478113E+02  0.7546771E-02  0.1471267E+00
          2   -1    0    0  502    0  0.00000000000E+00  0.00000000000E+00  0.14165640507E+03  0.14165640507E+03  0.00000000000E+00 0. -1.
         -2   -1    0    0    0  501 -0.00000000000E+00 -0.00000000000E+00 -0.46009339501E+01  0.46009339501E+01  0.00000000000E+00 0.  1.
          1    1    1    2  502    0  0.15004619343E+02 -0.19722212608E+02  0.50951956407E+02  0.56658681007E+02  0.00000000000E+00 0.  1.
         -1    1    1    2    0  501 -0.15004619343E+02  0.19722212608E+02  0.86103514712E+02  0.89598658012E+02  0.00000000000E+00 0. -1.
</event>
<event>
 4    1  0.6629728E+001  0.4014401E+02  0.7546771E-02  0.1347644E+00
          2   -1    0    0  502    0  0.00000000000E+00  0.00000000000E+00  0.76652352488E+03  0.76652352488E+03  0.00000000000E+00 0. -1.
         -2   -1    0    0    0  501 -0.00000000000E+00 -0.00000000000E+00 -0.26959353366E+01  0.26959353366E+01  0.00000000000E+00 0.  1.
          1    1    1    2  502    0  0.46067799178E+01  0.39878806783E+02  0.56237655011E+03  0.56380752546E+03  0.00000000000E+00 0. -1.
         -1    1    1    2    0  501 -0.46067799178E+01 -0.39878806783E+02  0.20145103944E+03  0.20541193476E+03  0.00000000000E+00 0.  1.
</event>
<event>
 4    1  0.6629728E+001  0.6690515E+02  0.7546771E-02  0.1238019E+00
          2   -1    0    0  502    0  0.00000000000E+00  0.00000000000E+00  0.72724671496E+03  0.72724671496E+03  0.00000000000E+00 0. -1.
         -2   -1    0    0    0  501 -0.00000000000E+00 -0.00000000000E+00 -0.62858772402E+01  0.62858772402E+01  0.00000000000E+00 0.  1.
          1    1    1    2  502    0 -0.65574532891E+02  0.13277042523E+02  0.41337608764E+03  0.41875540481E+03  0.00000000000E+00 0. -1.
         -1    1    1    2    0  501  0.65574532891E+02 -0.13277042523E+02  0.30758475008E+03  0.31477718739E+03  0.00000000000E+00 0.  1.
</event>
<event>
 4    1  0.6629728E+001  0.2084217E+02  0.7546771E-02  0.1521530E+00
          2   -1    0    0  502    0  0.00000000000E+00  0.00000000000E+00  0.62486836775E+02  0.62486836775E+02  0.00000000000E+00 0. -1.
         -2   -1    0    0    0  501 -0.00000000000E+00 -0.00000000000E+00 -0.71449444585E+01  0.71449444585E+01  0.00000000000E+00 0.  1.
          1    1    1    2  502    0  0.49379684428E+01  0.20248770023E+02  0.21946742106E+02  0.30266412223E+02  0.00000000000E+00 0.  1.
         -1    1    1    2    0  501 -0.49379684428E+01 -0.20248770023E+02  0.33395150210E+02  0.39365369011E+02  0.00000000000E+00 0. -1.
</event>
<event>
 4    1  0.6629728E+001  0.2197743E+02  0.7546771E-02  0.1505754E+00
          2   -1    0    0  502    0  0.00000000000E+00  0.00000000000E+00  0.89606660127E+02  0.89606660127E+02  0.00000000000E+00 0. -1.
         -2   -1    0    0    0  501 -0.00000000000E+00 -0.00000000000E+00 -0.57352178282E+01  0.57352178282E+01  0.00000000000E+00 0.  1.
          1    1    1    2  502    0  0.18288725495E+02 -0.12187292844E+02  0.53626162275E+02  0.57954920994E+02  0.00000000000E+00 0. -1.
         -1    1    1    2    0  501 -0.18288725495E+02  0.12187292844E+02  0.30245280025E+02  0.37386956962E+02  0.00000000000E+00 0.  1.
</event>
<event>
 4    1  0.6629728E+001  0.5258290E+02  0.7546771E-02  0.1287346E+00
          2   -1    0    0  502    0  0.00000000000E+00  0.00000000000E+00  0.33375057957E+04  0.33375057957E+04  0.00000000000E+00 0. -1.
         -2   -1    0    0    0  501 -0.00000000000E+00 -0.00000000000E+00 -0.12694710664E+01  0.12694710664E+01  0.00000000000E+00 0.  1.
          1    1    1    2  502    0  0.45684675683E+02  0.26035968409E+02  0.26520721322E+04  0.26525933642E+04  0.00000000000E+00 0. -1.
         -1    1    1    2    0  501 -0.45684675683E+02 -0.26035968409E+02  0.68416419242E+03  0.68618190259E+03  0.00000000000E+00 0.  1.
</event>
<event>
 4    1  0.6629728E+001  0.3303220E+02  0.7546771E-02  0.1394951E+00
          2   -1    0    0  502    0  0.00000000000E+00  0.00000000000E+00  0.31469800575E+02  0.31469800575E+02  0.00000000000E+00 0. -1.
         -2   -1    0    0    0  501 -0.00000000000E+00 -0.00000000000E+00 -0.49007918993E+02  0.49007918993E+02  0.00000000000E+00 0.  1.
          1    1    1    2  502    0 -0.28363613978E+02 -0.16930201264E+02 -0.30532257112E+02  0.44981607765E+02  0.00000000000E+00 0.  1.
         -1    1    1    2    0  501  0.28363613978E+02  0.16930201264E+02  0.12994138694E+02  0.35496111803E+02  0.00000000000E+00 0. -1.
</event>
<event>
 4    1  0.6629728E+001  0.2307801E+02  0.7546771E-02  0.1491521E+00
          2   -1    0    0  502    0  0.00000000000E+00  0.00000000000E+00  0.42142274932E+03  0.42142274932E+03  0.00000000000E+00 0. -1.
         -2   -1    0    0    0  501 -0.00000000000E+00 -0.00000000000E+00 -0.15682820660E+01  0.15682820660E+01  0.00000000000E+00 0.  1.
          1    1    1    2  502    0 -0.48385832147E+01  0.22565076342E+02  0.30311719029E+03  0.30399444996E+03  0.00000000000E+00 0.  1.
         -1    1    1    2    0  501  0.48385832147E+01 -0.22565076342E+02  0.11673727696E+03  0.11899658142E+03  0.00000000000E+00 0. -1.
</event>
<event>
 4    1  0.6629728E+001  0.2058331E+02  0.7546771E-02  0.1525298E+00
          2   -1    0    0  502    0  0.00000000000E+00  0.00000000000E+00  0.18503350805E+02  0.18503350805E+02  0.00000000000E+00 0. -1.
         -2   -1    0    0    0  501 -0.00000000000E+00 -0.00000000000E+00 -0.47832142467E+02  0.47832142467E+02  0.00000000000E+00 0.  1.
          1    1    1    2  502    0 -0.17663032646E+02  0.10568352053E+02  0.92831625751E+01  0.22579855951E+02  0.00000000000E+00 0. -1.
         -1    1    1    2    0  501  0.17663032646E+02 -0.10568352053E+02 -0.38611954238E+02  0.43755637321E+02  0.00000000000E+00 0.  1.
</event>
<event>
 4    1  0.6629728E+001  0.2041633E+02  0.7546771E-02  0.1527764E+00
          2   -1    0    0  502    0  0.00000000000E+00  0.00000000000E+00  0.50716051134E+02  0.50716051134E+02  0.00000000000E+00 0. -1.
         -2   -1    0    0    0  501 -0.00000000000E+00 -0.00000000000E+00 -0.85937557703E+01  0.85937557703E+01  0.00000000000E+00 0.  1.
          1    1    1    2  502    0  0.16322243818E+02 -0.12264218667E+02  0.14867071929E+02  0.25255821715E+02  0.00000000000E+00 0.  1.
         -1    1    1    2    0  501 -0.16322243818E+02  0.12264218667E+02  0.27255223435E+02  0.34053985190E+02  0.00000000000E+00 0. -1.
</event>
<event>
 4    1  0.6629728E+001  0.2275346E+02  0.7546771E-02  0.1495617E+00
          2   -1    0    0  502    0  0.00000000000E+00  0.00000000000E+00  0.14459859632E+04  0.14459859632E+04  0.00000000000E+00 0. -1.
         -2   -1    0    0    0  501 -0.00000000000E+00 -0.00000000000E+00 -0.36400947004E+00  0.36400947004E+00  0.00000000000E+00 0.  1.
          1    1    1    2  502    0 -0.22696803974E+02 -0.16047208967E+01  0.63019744929E+03  0.63060807570E+03  0.00000000000E+00 0. -1.
         -1    1    1    2    0  501  0.22696803974E+02  0.16047208967E+01  0.81542450449E+03  0.81574189702E+03  0.00000000000E+00 0.  1.
</event>
<event>
 4    1  0.6629728E+001  0.2228074E+02  0.7546771E-02  0.1501733E+00
          2   -1    0    0  502    0  0.00000000000E+00  0.00000000000E+00  0.55430551115E+03  0.55430551115E+03  0.00000000000E+00 0. -1.
         -2   -1    0    0    0  501 -0.00000000000E+00 -0.00000000000E+00 -0.93921959977E+00  0.93921959977E+00  0.00000000000E+00 0.  1.
          1    1    1    2  502    0  0.19678613679E+02 -0.10449092345E+02  0.33651789293E+03  0.33725468659E+03  0.00000000000E+00 0. -1.
         -1    1    1    2    0  501 -0.19678613679E+02  0.10449092345E+02  0.21684839862E+03  0.21799004416E+03  0.00000000000E+00 0.  1.
</event>
<event>
 4    1  0.6629728E+001  0.2275366E+02  0.7546771E-02  0.1495615E+00
          2   -1    0    0  502    0  0.00000000000E+00  0.00000000000E+00  0.38642072151E+03  0.38642072151E+03  0.00000000000E+00 0.  1.
         -2   -1    0    0    0  501 -0.00000000000E+00 -0.00000000000E+00 -0.17814537534E+01  0.17814537534E+01  0.00000000000E+00 0. -1.
          1    1    1    2  502    0  0.10004045376E+02 -0.20436441001E+02  0.28896441252E+03  0.28985886350E+03  0.00000000000E+00 0.  1.
         -1    1    1    2    0  501 -0.10004045376E+02  0.20436441001E+02  0.95674855240E+02  0.98343311770E+02  0.00000000000E+00 0. -1.
</event>
<event>
 4    1  0.6629728E+001  0.4718199E+02  0.7546771E-02  0.1310876E+00
          2   -1    0    0  502    0  0.00000000000E+00  0.00000000000E+00  0.20299764082E+03  0.20299764082E+03  0.00000000000E+00 0.  1.
         -2   -1    0    0    0  501 -0.00000000000E+00 -0.00000000000E+00 -0.13697841608E+02  0.13697841608E+02  0.00000000000E+00 0. -1.
          1    1    1    2  502    0  0.29769563215E+02  0.36604823018E+02  0.46266655276E+02  0.66081338913E+02  0.00000000000E+00 0. -1.
         -1    1    1    2    0  501 -0.29769563215E+02 -0.36604823018E+02  0.14303314394E+03  0.15061414352E+03  0.00000000000E+00 0.  1.
</event>
<event>
 4    1  0.6629728E+001  0.2739635E+02  0.7546771E-02  0.1443667E+00
          2   -1    0    0  502    0  0.00000000000E+00  0.00000000000E+00  0.69701089164E+03  0.69701089164E+03  0.00000000000E+00 0.  1.
         -2   -1    0    0    0  501 -0.00000000000E+00 -0.00000000000E+00 -0.12748785826E+01  0.12748785826E+01  0.00000000000E+00 0. -1.
          1    1    1    2  502    0  0.15094643016E+02 -0.22862889624E+02  0.48548061333E+03  0.48625300604E+03  0.00000000000E+00 0.  1.
         -1    1    1    2    0  501 -0.15094643016E+02  0.22862889624E+02  0.21025539974E+03  0.21203276418E+03  0.00000000000E+00 0. -1.
</event>
<event>
 4    1  0.6629728E+001  0.2464339E+02  0.7546771E-02  0.1472833E+00
          2   -1    0    0  502    0  0.00000000000E+00  0.00000000000E+00  0.63242721010E+02  0.63242721010E+02  0.00000000000E+00 0. -1.
         -2   -1    0    0    0  501 -0.00000000000E+00 -0.00000000000E+00 -0.96030611032E+01  0.96030611032E+01  0.00000000000E+00 0.  1.
          1    1    1    2  502    0 -0.21353528451E+02 -0.12301353959E+02  0.27063706145E+02  0.36602468180E+02  0.00000000000E+00 0.  1.
         -1    1    1    2    0  501  0.21353528451E+02  0.12301353959E+02  0.26575953762E+02  0.36243313934E+02  0.00000000000E+00 0. -1.
</event>
<event>
 4    1  0.6629728E+001  0.4075953E+02  0.7546771E-02  0.1344092E+00
          2   -1    0    0  502    0  0.00000000000E+00  0.00000000000E+00  0.14525640905E+03  0.14525640905E+03  0.00000000000E+00 0.  1.
         -2   -1    0    0    0  501 -0.00000000000E+00 -0.00000000000E+00 -0.11886744109E+02  0.11886744109E+02  0.00000000000E+00 0. -1.
          1    1    1    2  502    0  0.18559343465E+02 -0.36288981872E+02  0.81963218726E+02  0.91538563781E+02  0.00000000000E+00 0.  1.
         -1    1    1    2    0  501 -0.18559343465E+02  0.36288981872E+02  0.51406446218E+02  0.65604589382E+02  0.00000000000E+00 0. -1.
</event>
<event>
 4    1  0.6629728E+001  0.2035677E+02  0.7546771E-02  0.1528650E+00
          2   -1    0    0  502    0  0.00000000000E+00  0.00000000000E+00  0.55545598770E+03  0.55545598770E+03  0.00000000000E+00 0. -1.
         -2   -1    0    0    0  501 -0.00000000000E+00 -0.00000000000E+00 -0.85648289532E+00  0.85648289532E+00  0.00000000000E+00 0.  1.
          1    1    1    2  502    0 -0.12898484701E+02 -0.15748880799E+02  0.17741989284E+03  0.17858392013E+03  0.00000000000E+00 0.  1.
         -1    1    1    2    0  501  0.12898484701E+02  0.15748880799E+02  0.37717961197E+03  0.37772855047E+03  0.00000000000E+00 0. -1.
</event>
<event>
 4    1  0.6629728E+001  0.2630179E+02  0.7546771E-02  0.1454751E+00
          2   -1    0    0  502    0  0.00000000000E+00  0.00000000000E+00  0.10944829159E+02  0.10944829159E+02  0.00000000000E+00 0. -1.
         -2   -1    0    0    0  501 -0.00000000000E+00 -0.00000000000E+00 -0.80287893055E+02  0.80287893055E+02  0.00000000000E+00 0.  1.
          1    1    1    2  502    0  0.15141201963E+02 -0.21506469937E+02 -0.55712095344E+02  0.61608618014E+02  0.00000000000E+00 0.  1.
         -1    1    1    2    0  501 -0.15141201963E+02  0.21506469937E+02 -0.13630968553E+02  0.29624104201E+02  0.00000000000E+00 0. -1.
</event>
<event>
 4    1  0.6629728E+001  0.2325432E+02  0.7546771E-02  0.1489329E+00
          2   -1    0    0  502    0  0.00000000000E+00  0.00000000000E+00  0.45919036347E+03  0.45919036347E+03  0.00000000000E+00 0. -1.
         -2   -1    0    0    0  501 -0.00000000000E+00 -0.00000000000E+00 -0.25498911941E+01  0.25498911941E+01  0.00000000000E+00 0.  1.
          1    1    1    2  502    0 -0.33994877487E+01  0.23004500780E+02  0.58955566604E+02  0.63376039689E+02  0.00000000000E+00 0.  1.
         -1    1    1    2    0  501  0.33994877487E+01 -0.23004500780E+02  0.39768490567E+03  0.39836421498E+03  0.00000000000E+00 0. -1.
</event>
<event>
 4    1  0.6629728E+001  0.3501898E+02  0.7546771E-02  0.1380430E+00
          2   -1    0    0  502    0  0.00000000000E+00  0.00000000000E+00  0.72451160729E+03  0.72451160729E+03  0.00000000000E+00 0.  1.
         -2   -1    0    0    0  501 -0.00000000000E+00 -0.00000000000E+00 -0.17277375380E+01  0.17277375380E+01  0.00000000000E+00 0. -1.
          1    1    1    2  502    0 -0.34915963423E+02  0.26841451810E+01  0.41315489995E+03  0.41463634729E+03  0.00000000000E+00 0.  1.
         -1    1    1    2    0  501  0.34915963423E+02 -0.26841451810E+01  0.30962896980E+03  0.31160299755E+03  0.00000000000E+00 0. -1.
</event>
<event>
 4    1  0.6629728E+001  0.2589474E+02  0.7546771E-02  0.1459038E+00
          2   -1    0    0  502    0  0.00000000000E+00  0.00000000000E+00  0.83719057668E+03  0.83719057668E+03  0.00000000000E+00 0. -1.
         -2   -1    0    0    0  501 -0.00000000000E+00 -0.00000000000E+00 -0.92769507273E+00  0.92769507273E+00  0.00000000000E+00 0.  1.
          1    1    1    2  502    0  0.21391869300E+02  0.14591959486E+02  0.57303435617E+03  0.57361913384E+03  0.00000000000E+00 0. -1.
         -1    1    1    2    0  501 -0.21391869300E+02 -0.14591959486E+02  0.26322852543E+03  0.26449913791E+03  0.00000000000E+00 0.  1.
</event>
<event>
 4    1  0.6629728E+001  0.2520698E+02  0.7546771E-02  0.1466501E+00
          2   -1    0    0  502    0  0.00000000000E+00  0.00000000000E+00  0.13845761532E+04  0.13845761532E+04  0.00000000000E+00 0.  1.
         -2   -1    0    0    0  501 -0.00000000000E+00 -0.00000000000E+00 -0.45973704492E+00  0.45973704492E+00  0.00000000000E+00 0. -1.
          1    1    1    2  502    0 -0.53145295264E+01  0.24640367989E+02  0.72148047063E+03  0.72192067533E+03  0.00000000000E+00 0.  1.
         -1    1    1    2    0  501  0.53145295264E+01 -0.24640367989E+02  0.66263594557E+03  0.66311521496E+03  0.00000000000E+00 0. -1.
</event>
<event>
 4    1  0.6629728E+001  0.4153975E+02  0.7546771E-02  0.1339692E+00
          2   -1    0    0  502    0  0.00000000000E+00  0.00000000000E+00  0.58637898974E+02  0.58637898974E+02  0.00000000000E+00 0.  1.
         -2   -1    0    0    0  501 -0.00000000000E+00 -0.00000000000E+00 -0.18030719962E+03  0.18030719962E+03  0.00000000000E+00 0. -1.
          1    1    1    2  502    0 -0.35272746104E+02 -0.21940467062E+02 -0.17012388786E+03  0.17512192305E+03  0.00000000000E+00 0. -1.
         -1    1    1    2    0  501  0.35272746104E+02  0.21940467062E+02  0.48454587221E+02  0.63823175535E+02  0.00000000000E+00 0.  1.
</event>
<event>
 4    1  0.6629728E+001  0.3196588E+02  0.7546771E-02  0.1403249E+00
          2   -1    0    0  502    0  0.00000000000E+00  0.00000000000E+00  0.19849748405E+02  0.19849748405E+02  0.00000000000E+00 0. -1.
         -2   -1    0    0    0  501 -0.00000000000E+00 -0.00000000000E+00 -0.89976654762E+02  0.89976654762E+02  0.00000000000E+00 0.  1.
          1    1    1    2  502    0 -0.10333411468E+02  0.30249593313E+02  0.85659506338E+00  0.31977352036E+02  0.00000000000E+00 0. -1.
         -1    1    1    2    0  501  0.10333411468E+02 -0.30249593313E+02 -0.70983501420E+02  0.77849051131E+02  0.00000000000E+00 0.  1.
</event>
<event>
 4    1  0.6629728E+001  0.3571115E+02  0.7546771E-02  0.1375631E+00
          2   -1    0    0  502    0  0.00000000000E+00  0.00000000000E+00  0.59842688987E+03  0.59842688987E+03  0.00000000000E+00 0. -1.
         -2   -1    0    0    0  501 -0.00000000000E+00 -0.00000000000E+00 -0.21422758922E+01  0.21422758922E+01  0.00000000000E+00 0.  1.
          1    1    1    2  502    0  0.35698384812E+02 -0.95461544161E+00  0.31986610992E+03  0.32185340490E+03  0.00000000000E+00 0. -1.
         -1    1    1    2    0  501 -0.35698384812E+02  0.95461544161E+00  0.27641850406E+03  0.27871576086E+03  0.00000000000E+00 0.  1.
</event>
<event>
 4    1  0.6629728E+001  0.4767789E+02  0.7546771E-02  0.1308567E+00
          2   -1    0    0  502    0  0.00000000000E+00  0.00000000000E+00  0.13430624063E+03  0.13430624063E+03  0.00000000000E+00 0. -1.
         -2   -1    0    0    0  501 -0.00000000000E+00 -0.00000000000E+00 -0.18363527031E+02  0.18363527031E+02  0.00000000000E+00 0.  1.
          1    1    1    2  502    0 -0.36677742692E+02  0.30461858383E+02  0.36608983846E+02  0.60111557320E+02  0.00000000000E+00 0.  1.
         -1    1    1    2    0  501  0.36677742692E+02 -0.30461858383E+02  0.79333729752E+02  0.92558210341E+02  0.00000000000E+00 0. -1.
</event>
<event>
 4    1  0.6629728E+001  0.3061285E+02  0.7546771E-02  0.1414344E+00
          2   -1    0    0  502    0  0.00000000000E+00  0.00000000000E+00  0.93066414072E+02  0.93066414072E+02  0.00000000000E+00 0. -1.
         -2   -1    0    0    0  501 -0.00000000000E+00 -0.00000000000E+00 -0.10085125459E+02  0.10085125459E+02  0.00000000000E+00 0.  1.
          1    1    1    2  502    0 -0.30047452108E+02  0.58564034378E+01  0.39470730246E+02  0.49950829679E+02  0.00000000000E+00 0.  1.
         -1    1    1    2    0  501  0.30047452108E+02 -0.58564034378E+01  0.43510558367E+02  0.53200709853E+02  0.00000000000E+00 0. -1.
</event>
<event>
 4    1  0.6629728E+001  0.2042234E+02  0.7546771E-02  0.1527674E+00
          2   -1    0    0  502    0  0.00000000000E+00  0.00000000000E+00  0.14275643022E+04  0.14275643022E+04  0.00000000000E+00 0. -1.
         -2   -1    0    0    0  501 -0.00000000000E+00 -0.00000000000E+00 -0.63166936269E+00  0.63166936269E+00  0.00000000000E+00 0.  1.
          1    1    1    2  502    0 -0.49384743137E+01  0.19816237050E+02  0.18993676427E+03  0.19103153195E+03  0.00000000000E+00 0.  1.
         -1    1    1    2    0  501  0.49384743137E+01 -0.19816237050E+02  0.12369958686E+04  0.12371644397E+04  0.00000000000E+00 0. -1.
</event>
<event>
 4    1  0.6629728E+001  0.3768487E+02  0.7546771E-02  0.1362614E+00
          2   -1    0    0  502    0  0.00000000000E+00  0.00000000000E+00  0.56842773514E+03  0.56842773514E+03  0.00000000000E+00 0. -1.
         -2   -1    0    0    0  501 -0.00000000000E+00 -0.00000000000E+00 -0.25168903963E+01  0.25168903963E+01  0.00000000000E+00 0.  1.
          1    1    1    2  502    0 -0.30793783155E+02  0.21723078649E+02  0.30743615355E+03  0.30973720755E+03  0.00000000000E+00 0. -1.
         -1    1    1    2    0  501  0.30793783155E+02 -0.21723078649E+02  0.25847469119E+03  0.26120741799E+03  0.00000000000E+00 0.  1.
</event>
<event>
 4    1  0.6629728E+001  0.2367316E+02  0.7546771E-02  0.1484214E+00
          2   -1    0    0  502    0  0.00000000000E+00  0.00000000000E+00  0.22289438004E+02  0.22289438004E+02  0.00000000000E+00 0.  1.
         -2   -1    0    0    0  501 -0.00000000000E+00 -0.00000000000E+00 -0.36039997320E+02  0.36039997320E+02  0.00000000000E+00 0. -1.
          1    1    1    2  502    0  0.10079876477E+02  0.21419961825E+02  0.91617153641E+01  0.25384162440E+02  0.00000000000E+00 0.  1.
         -1    1    1    2    0  501 -0.10079876477E+02 -0.21419961825E+02 -0.22912274680E+02  0.32945272884E+02  0.00000000000E+00 0. -1.
</event>
<event>
 4    1  0.6629728E+001  0.2005323E+02  0.7546771E-02  0.1533224E+00
          2   -1    0    0  502    0  0.00000000000E+00  0.00000000000E+00  0.17575480197E+02  0.17575480197E+02  0.00000000000E+00 0.  1.
         -2   -1    0    0    0  501 -0.00000000000E+00 -0.00000000000E+00 -0.25214156795E+02  0.25214156795E+02  0.00000000000E+00 0. -1.
          1    1    1    2  502    0 -0.13559136513E+02  0.14774362134E+02 -0.10328500184E+02  0.22556814392E+02  0.00000000000E+00 0. -1.
         -1    1    1    2    0  501  0.13559136513E+02 -0.14774362134E+02  0.26898235854E+01  0.20232822600E+02  0.00000000000E+00 0.  1.
</event>
<event>
 4    1  0.6629728E+001  0.2237498E+02  0.7546771E-02  0.1500499E+00
          2   -1    0    0  502    0  0.00000000000E+00  0.00000000000E+00  0.12240123305E+04  0.12240123305E+04  0.00000000000E+00 0.  1.
         -2   -1    0    0    0  501 -0.00000000000E+00 -0.00000000000E+00 -0.41456695974E+00  0.41456695974E+00  0.00000000000E+00 0. -1.
          1    1    1    2  502    0 -0.10229621683E+02 -0.19899609541E+02  0.68264593061E+03  0.68301252273E+03  0.00000000000E+00 0.  1.
         -1    1    1    2    0  501  0.10229621683E+02  0.19899609541E+02  0.54095183294E+03  0.54141437474E+03  0.00000000000E+00 0. -1.
</event>
<event>
 4    1  0.6629728E+001  0.3243182E+02  0.7546771E-02  0.1399577E+00
          2   -1    0    0  502    0  0.00000000000E+00  0.00000000000E+00  0.61666647776E+03  0.61666647776E+03  0.00000000000E+00 0.  1.
         -2   -1    0    0    0  501 -0.00000000000E+00 -0.00000000000E+00 -0.32115204753E+01  0.32115204753E+01  0.00000000000E+00 0. -1.
          1    1    1    2  502    0  0.13236825911E+02 -0.29607588516E+02  0.51896069687E+03  0.51997310291E+03  0.00000000000E+00 0.  1.
         -1    1    1    2    0  501 -0.13236825911E+02  0.29607588516E+02  0.94494260419E+02  0.99904895326E+02  0.00000000000E+00 0. -1.
</event>
<event>
 4    1  0.6629728E+001  0.2495281E+02  0.7546771E-02  0.1469332E+00
          2   -1    0    0  502    0  0.00000000000E+00  0.00000000000E+00  0.26781233308E+02  0.26781233308E+02  0.00000000000E+00 0.  1.
         -2   -1    0    0    0  501 -0.00000000000E+00 -0.00000000000E+00 -0.30037137697E+02  0.30037137697E+02  0.00000000000E+00 0. -1.
          1    1    1    2  502    0 -0.22409578408E+02  0.10975127965E+02  0.11877152931E+02  0.27635292653E+02  0.00000000000E+00 0.  1.
         -1    1    1    2    0  501  0.22409578408E+02 -0.10975127965E+02 -0.15133057319E+02  0.29183078352E+02  0.00000000000E+00 0. -1.
</event>
<event>
 4    1  0.6629728E+001  0.2266799E+02  0.7546771E-02  0.1496710E+00
          2   -1    0    0  502    0  0.00000000000E+00  0.00000000000E+00  0.95110722701E+03  0.95110722701E+03  0.00000000000E+00 0. -1.
         -2   -1    0    0    0  501 -0.00000000000E+00 -0.00000000000E+00 -0.74529293971E+00  0.74529293971E+00  0.00000000000E+00 0.  1.
          1    1    1    2  502    0  0.10613047489E+02 -0.20030002627E+02  0.72481065460E+03  0.72516503142E+03  0.00000000000E+00 0. -1.
         -1    1    1    2    0  501 -0.10613047489E+02  0.20030002627E+02  0.22555127947E+03  0.22668748852E+03  0.00000000000E+00 0.  1.
</event>
<event>
 4    1  0.6629728E+001  0.2908431E+02  0.7546771E-02  0.1427724E+00
          2   -1    0    0  502    0  0.00000000000E+00  0.00000000000E+00  0.71745428166E+00  0.71745428166E+00  0.00000000000E+00 0. -1.
         -2   -1    0    0    0  501 -0.00000000000E+00 -0.00000000000E+00 -0.13643949413E+04  0.13643949413E+04  0.00000000000E+00 0.  1.
          1    1    1    2  502    0 -0.20193840809E+02 -0.20930977739E+02 -0.93342516745E+03  0.93387817207E+03  0.00000000000E+00 0. -1.
         -1    1    1    2    0  501  0.20193840809E+02  0.20930977739E+02 -0.43025231961E+03  0.43123422355E+03  0.00000000000E+00 0.  1.
</event>
<event>
 4    1  0.6629728E+001  0.2460911E+02  0.7546771E-02  0.1473224E+00
          2   -1    0    0  502    0  0.00000000000E+00  0.00000000000E+00  0.26802054652E+01  0.26802054652E+01  0.00000000000E+00 0. -1.
         -2   -1    0    0    0  501 -0.00000000000E+00 -0.00000000000E+00 -0.36298316979E+03  0.36298316979E+03  0.00000000000E+00 0.  1.
          1    1    1    2  502    0 -0.20553746245E+02  0.13533366837E+02 -0.29248557165E+03  0.29351902515E+03  0.00000000000E+00 0.  1.
         -1    1    1    2    0  501  0.20553746245E+02 -0.13533366837E+02 -0.67817392678E+02  0.72144350106E+02  0.00000000000E+00 0. -1.
</event>
<event>
 4    1  0.6629728E+001  0.2118803E+02  0.7546771E-02  0.1516597E+00
          2   -1    0    0  502    0  0.00000000000E+00  0.00000000000E+00  0.97920332865E+00  0.97920332865E+00  0.00000000000E+00 0.  1.
         -2   -1    0    0    0  501 -0.00000000000E+00 -0.00000000000E+00 -0.11267072879E+04  0.11267072879E+04  0.00000000000E+00 0. -1.
          1    1    1    2  502    0 -0.20844125111E+02  0.38019824510E+01 -0.99709330652E+03  0.99731840178E+03  0.00000000000E+00 0. -1.
         -1    1    1    2    0  501  0.20844125111E+02 -0.38019824510E+01 -0.12863477806E+03  0.13036808946E+03  0.00000000000E+00 0.  1.
</event>
<event>
 4    1  0.6629728E+001  0.2646884E+02  0.7546771E-02  0.1453018E+00
          2   -1    0    0  502    0  0.00000000000E+00  0.00000000000E+00  0.19875619611E+04  0.19875619611E+04  0.00000000000E+00 0.  1.
         -2   -1    0    0    0  501 -0.00000000000E+00 -0.00000000000E+00 -0.44374436681E+00  0.44374436681E+00  0.00000000000E+00 0. -1.
          1    1    1    2  502    0  0.26362011380E+02  0.23757143608E+01  0.54280125006E+03  0.54344622249E+03  0.00000000000E+00 0. -1.
         -1    1    1    2    0  501 -0.26362011380E+02 -0.23757143608E+01  0.14443169666E+04  0.14445594830E+04  0.00000000000E+00 0.  1.
</event>
<event>
 4    1  0.6629728E+001  0.6147400E+02  0.7546771E-02  0.1254905E+00
          2   -1    0    0  502    0  0.00000000000E+00  0.00000000000E+00  0.37290596941E+03  0.37290596941E+03  0.00000000000E+00 0.  1.
         -2   -1    0    0    0  501 -0.00000000000E+00 -0.00000000000E+00 -0.10194064535E+02  0.10194064535E+02  0.00000000000E+00 0. -1.
          1    1    1    2  502    0 -0.13593160347E+02  0.59952306206E+02  0.19605148780E+03  0.20546347339E+03  0.00000000000E+00 0.  1.
         -1    1    1    2    0  501  0.13593160347E+02 -0.59952306206E+02  0.16666041708E+03  0.17763656056E+03  0.00000000000E+00 0. -1.
</event>
<event>
 4    1  0.6629728E+001  0.3040671E+02  0.7546771E-02  0.1416094E+00
          2   -1    0    0  502    0  0.00000000000E+00  0.00000000000E+00  0.47064614092E+03  0.47064614092E+03  0.00000000000E+00 0. -1.
         -2   -1    0    0    0  501 -0.00000000000E+00 -0.00000000000E+00 -0.19685325918E+01  0.19685325918E+01  0.00000000000E+00 0.  1.
          1    1    1    2  502    0 -0.30242362974E+02 -0.31571094883E+01  0.24508057840E+03  0.24695962781E+03  0.00000000000E+00 0. -1.
         -1    1    1    2    0  501  0.30242362974E+02  0.31571094883E+01  0.22359702993E+03  0.22565504570E+03  0.00000000000E+00 0.  1.
</event>
<event>
 4    1  0.6629728E+001  0.2488418E+02  0.7546771E-02  0.1470103E+00
          2   -1    0    0  502    0  0.00000000000E+00  0.00000000000E+00  0.61704641209E+02  0.61704641209E+02  0.00000000000E+00 0.  1.
         -2   -1    0    0    0  501 -0.00000000000E+00 -0.00000000000E+00 -0.12396557918E+02  0.12396557918E+02  0.00000000000E+00 0. -1.
          1    1    1    2  502    0  0.13474992497E+02 -0.20920018050E+02  0.40824390503E+02  0.47810599641E+02  0.00000000000E+00 0.  1.
         -1    1    1    2    0  501 -0.13474992497E+02  0.20920018050E+02  0.84836927883E+01  0.26290599486E+02  0.00000000000E+00 0. -1.
</event>
<event>
 4    1  0.6629728E+001  0.2825395E+02  0.7546771E-02  0.1435403E+00
          2   -1    0    0  502    0  0.00000000000E+00  0.00000000000E+00  0.15282271205E+01  0.15282271205E+01  0.00000000000E+00 0.  1.
         -2   -1    0    0    0  501 -0.00000000000E+00 -0.00000000000E+00 -0.54303931589E+03  0.54303931589E+03  0.00000000000E+00 0. -1.
          1    1    1    2  502    0 -0.27679811024E+02 -0.56668974392E+01 -0.21762213271E+03  0.21944857783E+03  0.00000000000E+00 0.  1.
         -1    1    1    2    0  501  0.27679811024E+02  0.56668974392E+01 -0.32388895606E+03  0.32511896518E+03  0.00000000000E+00 0. -1.
</event>
<event>
 4    1  0.6629728E+001  0.4780030E+02  0.7546771E-02  0.1308002E+00
          2   -1    0    0  502    0  0.00000000000E+00  0.00000000000E+00  0.13306066315E+02  0.13306066315E+02  0.00000000000E+00 0. -1.
         -2   -1    0    0    0  501 -0.00000000000E+00 -0.00000000000E+00 -0.18115302240E+03  0.18115302240E+03  0.00000000000E+00 0.  1.
          1    1    1    2  502    0 -0.40029429432E+02 -0.26124955260E+02 -0.10611494394E+03  0.11638406178E+03  0.00000000000E+00 0. -1.
         -1    1    1    2    0  501  0.40029429432E+02  0.26124955260E+02 -0.61732012142E+02  0.78075026936E+02  0.00000000000E+00 0.  1.
</event>
<event>
 4    1  0.6629728E+001  0.2093849E+02  0.7546771E-02  0.1520145E+00
          2   -1    0    0  502    0  0.00000000000E+00  0.00000000000E+00  0.71614648687E+03  0.71614648687E+03  0.00000000000E+00 0.  1.
         -2   -1    0    0    0  501 -0.00000000000E+00 -0.00000000000E+00 -0.65984732375E+00  0.65984732375E+00  0.00000000000E+00 0. -1.
          1    1    1    2  502    0 -0.20177158803E+02 -0.55948815410E+01  0.26142749811E+03  0.26226467015E+03  0.00000000000E+00 0. -1.
         -1    1    1    2    0  501  0.20177158803E+02  0.55948815410E+01  0.45405914143E+03  0.45454166405E+03  0.00000000000E+00 0.  1.
</event>
<event>
 4    1  0.6629728E+001  0.2367660E+02  0.7546771E-02  0.1484172E+00
          2   -1    0    0  502    0  0.00000000000E+00  0.00000000000E+00  0.91623563861E+01  0.91623563861E+01  0.00000000000E+00 0. -1.
         -2   -1    0    0    0  501 -0.00000000000E+00 -0.00000000000E+00 -0.77989215893E+02  0.77989215893E+02  0.00000000000E+00 0.  1.
          1    1    1    2  502    0  0.21937238882E+02 -0.89072279418E+01 -0.54641847957E+02  0.59550925329E+02  0.00000000000E+00 0.  1.
         -1    1    1    2    0  501 -0.21937238882E+02  0.89072279418E+01 -0.14185011550E+02  0.27600646950E+02  0.00000000000E+00 0. -1.
</event>
<event>
 4    1  0.6629728E+001  0.2065730E+02  0.7546771E-02  0.1524214E+00
          2   -1    0    0  502    0  0.00000000000E+00  0.00000000000E+00  0.59571250960E+02  0.59571250960E+02  0.00000000000E+00 0.  1.
         -2   -1    0    0    0  501 -0.00000000000E+00 -0.00000000000E+00 -0.72559031418E+01  0.72559031418E+01  0.00000000000E+00 0. -1.
          1    1    1    2  502    0  0.81356024047E+01 -0.18987780720E+02  0.29933432091E+02  0.36369412971E+02  0.00000000000E+00 0. -1.
         -1    1    1    2    0  501 -0.81356024047E+01  0.18987780720E+02  0.22381915727E+02  0.30457741130E+02  0.00000000000E+00 0.  1.
</event>
<event>
 4    1  0.6629728E+001  0.2258278E+02  0.7546771E-02  0.1497805E+00
          2   -1    0    0  502    0  0.00000000000E+00  0.00000000000E+00  0.97988136754E+01  0.97988136754E+01  0.00000000000E+00 0. -1.
         -2   -1    0    0    0  501 -0.00000000000E+00 -0.00000000000E+00 -0.61041502706E+02  0.61041502706E+02  0.00000000000E+00 0.  1.
          1    1    1    2  502    0  0.15185475437E+02  0.16714768398E+02 -0.39219112574E+02  0.45256170164E+02  0.00000000000E+00 0.  1.
         -1    1    1    2    0  501 -0.15185475437E+02 -0.16714768398E+02 -0.12023576457E+02  0.25584146217E+02  0.00000000000E+00 0. -1.
</event>
<event>
 4    1  0.6629728E+001  0.2390297E+02  0.7546771E-02  0.1481460E+00
          2   -1    0    0  502    0  0.00000000000E+00  0.00000000000E+00  0.96829839272E+03  0.96829839272E+03  0.00000000000E+00 0.  1.
         -2   -1    0    0    0  501 -0.00000000000E+00 -0.00000000000E+00 -0.61930955746E+00  0.61930955746E+00  0.00000000000E+00 0. -1.
          1    1    1    2  502    0  0.22976335122E+02 -0.65908910616E+01  0.37855114564E+03  0.37930505096E+03  0.00000000000E+00 0. -1.
         -1    1    1    2    0  501 -0.22976335122E+02  0.65908910616E+01  0.58912793752E+03  0.58961265131E+03  0.00000000000E+00 0.  1.
</event>
<event>
 4    1  0.6629728E+001  0.2084417E+02  0.7546771E-02  0.1521501E+00
          2   -1    0    0  502    0  0.00000000000E+00  0.00000000000E+00  0.11024777037E+02  0.11024777037E+02  0.00000000000E+00 0.  1.
         -2   -1    0    0    0  501 -0.00000000000E+00 -0.00000000000E+00 -0.40045897350E+02  0.40045897350E+02  0.00000000000E+00 0. -1.
          1    1    1    2  502    0 -0.19305774334E+02 -0.78591789972E+01 -0.17729908935E+02  0.27364745349E+02  0.00000000000E+00 0.  1.
         -1    1    1    2    0  501  0.19305774334E+02  0.78591789972E+01 -0.11291211379E+02  0.23705929038E+02  0.00000000000E+00 0. -1.
</event>
<event>
 4    1  0.6629728E+001  0.2695185E+02  0.7546771E-02  0.1448092E+00
          2   -1    0    0  502    0  0.00000000000E+00  0.00000000000E+00  0.52615199008E+02  0.52615199008E+02  0.00000000000E+00 0. -1.
         -2   -1    0    0    0  501 -0.00000000000E+00 -0.00000000000E+00 -0.16015729757E+02  0.16015729757E+02  0.00000000000E+00 0.  1.
          1    1    1    2  502    0  0.19998178351E+02  0.18068622939E+02  0.31046265670E+02  0.41112928433E+02  0.00000000000E+00 0. -1.
         -1    1    1    2    0  501 -0.19998178351E+02 -0.18068622939E+02  0.55532035802E+01  0.27518000332E+02  0.00000000000E+00 0.  1.
</event>
<event>
 4    1  0.6629728E+001  0.3362039E+02  0.7546771E-02  0.1390530E+00
          2   -1    0    0  502    0  0.00000000000E+00  0.00000000000E+00  0.13236756994E+04  0.13236756994E+04  0.00000000000E+00 0. -1.
         -2   -1    0    0    0  501 -0.00000000000E+00 -0.00000000000E+00 -0.12928505084E+01  0.12928505084E+01  0.00000000000E+00 0.  1.
          1    1    1    2  502    0 -0.25922883360E+02 -0.21408761227E+02  0.10471961802E+04  0.10477357352E+04  0.00000000000E+00 0. -1.
         -1    1    1    2    0  501  0.25922883360E+02  0.21408761227E+02  0.27518666869E+03  0.27723281473E+03  0.00000000000E+00 0.  1.
</event>
<event>
 4    1  0.6629728E+001  0.4045943E+02  0.7546771E-02  0.1345814E+00
          2   -1    0    0  502    0  0.00000000000E+00  0.00000000000E+00  0.79056452091E+03  0.79056452091E+03  0.00000000000E+00 0. -1.
         -2   -1    0    0    0  501 -0.00000000000E+00 -0.00000000000E+00 -0.26504979213E+01  0.26504979213E+01  0.00000000000E+00 0.  1.
          1    1    1    2  502    0  0.32731136852E+02  0.23783151039E+02  0.57946483265E+03  0.58087559587E+03  0.00000000000E+00 0. -1.
         -1    1    1    2    0  501 -0.32731136852E+02 -0.23783151039E+02  0.20844919034E+03  0.21233942296E+03  0.00000000000E+00 0.  1.
</event>
<event>
 4    1  0.6629728E+001  0.4048426E+02  0.7546771E-02  0.1345671E+00
          2   -1    0    0  502    0  0.00000000000E+00  0.00000000000E+00  0.62039962694E+03  0.62039962694E+03  0.00000000000E+00 0.  1.
         -2   -1    0    0    0  501 -0.00000000000E+00 -0.00000000000E+00 -0.33603703112E+01  0.33603703112E+01  0.00000000000E+00 0. -1.
          1    1    1    2  502    0 -0.28502474885E+02  0.28750380841E+02  0.16429920436E+03  0.16921348654E+03  0.00000000000E+00 0.  1.
         -1    1    1    2    0  501  0.28502474885E+02 -0.28750380841E+02  0.45274005227E+03  0.45454651071E+03  0.00000000000E+00 0. -1.
</event>
<event>
 4    1  0.6629728E+001  0.2102576E+02  0.7546771E-02  0.1518897E+00
          2   -1    0    0  502    0  0.00000000000E+00  0.00000000000E+00  0.14729129002E+04  0.14729129002E+04  0.00000000000E+00 0.  1.
         -2   -1    0    0    0  501 -0.00000000000E+00 -0.00000000000E+00 -0.30014643503E+00  0.30014643503E+00  0.00000000000E+00 0. -1.
          1    1    1    2  502    0  0.20710877818E+02 -0.36252108291E+01  0.73922541884E+03  0.73952437585E+03  0.00000000000E+00 0.  1.
         -1    1    1    2    0  501 -0.20710877818E+02  0.36252108291E+01  0.73338733496E+03  0.73368867082E+03  0.00000000000E+00 0. -1.
</event>
<event>
 4    1  0.6629728E+001  0.2563243E+02  0.7546771E-02  0.1461851E+00
          2   -1    0    0  502    0  0.00000000000E+00  0.00000000000E+00  0.97420094748E+03  0.97420094748E+03  0.00000000000E+00 0. -1.
         -2   -1    0    0    0  501 -0.00000000000E+00 -0.00000000000E+00 -0.16247210410E+01  0.16247210410E+01  0.00000000000E+00 0.  1.
          1    1    1    2  502    0  0.46471835886E+00  0.25628215941E+02  0.85943794626E+03  0.85982010030E+03  0.00000000000E+00 0. -1.
         -1    1    1    2    0  501 -0.46471835886E+00 -0.25628215941E+02  0.11313828019E+03  0.11600556822E+03  0.00000000000E+00 0.  1.
</event>
<event>
 4    1  0.6629728E+001  0.9046134E+02  0.7546771E-02  0.1181449E+00
          2   -1    0    0  502    0  0.00000000000E+00  0.00000000000E+00  0.18935316585E+04  0.18935316585E+04  0.00000000000E+00 0.  1.
         -2   -1    0    0    0  501 -0.00000000000E+00 -0.00000000000E+00 -0.95993002303E+01  0.95993002303E+01  0.00000000000E+00 0. -1.
          1    1    1    2  502    0 -0.18710339125E+02 -0.88505234036E+02  0.16475321478E+04  0.16500137669E+04  0.00000000000E+00 0.  1.
         -1    1    1    2    0  501  0.18710339125E+02  0.88505234036E+02  0.23640021049E+03  0.25311719176E+03  0.00000000000E+00 0. -1.
</event>
<event>
 4    1  0.6629728E+001  0.2199561E+02  0.7546771E-02  0.1505511E+00
          2   -1    0    0  502    0  0.00000000000E+00  0.00000000000E+00  0.90210736741E+01  0.90210736741E+01  0.00000000000E+00 0. -1.
         -2   -1    0    0    0  501 -0.00000000000E+00 -0.00000000000E+00 -0.72202846238E+02  0.72202846238E+02  0.00000000000E+00 0.  1.
          1    1    1    2  502    0  0.27804834118E+00  0.21993852968E+02 -0.52188046198E+02  0.56633903673E+02  0.00000000000E+00 0.  1.
         -1    1    1    2    0  501 -0.27804834118E+00 -0.21993852968E+02 -0.10993726366E+02  0.24590016239E+02  0.00000000000E+00 0. -1.
</event>
<event>
 4    1  0.6629728E+001  0.2262048E+02  0.7546771E-02  0.1497320E+00
          2   -1    0    0  502    0  0.00000000000E+00  0.00000000000E+00  0.26077299353E+03  0.26077299353E+03  0.00000000000E+00 0.  1.
         -2   -1    0    0    0  501 -0.00000000000E+00 -0.00000000000E+00 -0.21038898543E+01  0.21038898543E+01  0.00000000000E+00 0. -1.
          1    1    1    2  502    0  0.18065752585E+02 -0.13613026228E+02  0.16344576263E+03  0.16500364609E+03  0.00000000000E+00 0.  1.
         -1    1    1    2    0  501 -0.18065752585E+02  0.13613026228E+02  0.95223341044E+02  0.97873237297E+02  0.00000000000E+00 0. -1.
</event>
<event>
 4    1  0.6629728E+001  0.2603841E+02  0.7546771E-02  0.1457514E+00
          2   -1    0    0  502    0  0.00000000000E+00  0.00000000000E+00  0.18028050702E+01  0.18028050702E+01  0.00000000000E+00 0.  1.
         -2   -1    0    0    0  501 -0.00000000000E+00 -0.00000000000E+00 -0.40008756669E+03  0.40008756669E+03  0.00000000000E+00 0. -1.
          1    1    1    2  502    0 -0.18105319983E+02 -0.18713535638E+02 -0.14991874782E+03  0.15216316892E+03  0.00000000000E+00 0.  1.
         -1    1    1    2    0  501  0.18105319983E+02  0.18713535638E+02 -0.24836601379E+03  0.24972720283E+03  0.00000000000E+00 0. -1.
</event>
<event>
 4    1  0.6629728E+001  0.2109599E+02  0.7546771E-02  0.1517899E+00
          2   -1    0    0  502    0  0.00000000000E+00  0.00000000000E+00  0.85884943414E+03  0.85884943414E+03  0.00000000000E+00 0. -1.
         -2   -1    0    0    0  501 -0.00000000000E+00 -0.00000000000E+00 -0.56673994508E+00  0.56673994508E+00  0.00000000000E+00 0.  1.
          1    1    1    2  502    0  0.19558523740E+02 -0.79060181073E+01  0.55492040883E+03  0.55532125937E+03  0.00000000000E+00 0. -1.
         -1    1    1    2    0  501 -0.19558523740E+02  0.79060181073E+01  0.30336228537E+03  0.30409491471E+03  0.00000000000E+00 0.  1.
</event>
<event>
 4    1  0.6629728E+001  0.2256250E+02  0.7546771E-02  0.1498066E+00
          2   -1    0    0  502    0  0.00000000000E+00  0.00000000000E+00  0.15985757706E+03  0.15985757706E+03  0.00000000000E+00 0.  1.
         -2   -1    0    0    0  501 -0.00000000000E+00 -0.00000000000E+00 -0.36545722318E+01  0.36545722318E+01  0.00000000000E+00 0. -1.
          1    1    1    2  502    0 -0.19554405420E+02 -0.11255745935E+02  0.10742283261E+03  0.10976671423E+03  0.00000000000E+00 0.  1.
         -1    1    1    2    0  501  0.19554405420E+02  0.11255745935E+02  0.48780172222E+02  0.53745435061E+02  0.00000000000E+00 0. -1.
</event>
<event>
 4    1  0.6629728E+001  0.2753374E+02  0.7546771E-02  0.1442319E+00
          2   -1    0    0  502    0  0.00000000000E+00  0.00000000000E+00  0.33021019666E+01  0.33021019666E+01  0.00000000000E+00 0. -1.
         -2   -1    0    0    0  501 -0.00000000000E+00 -0.00000000000E+00 -0.24424586954E+03  0.24424586954E+03  0.00000000000E+00 0.  1.
          1    1    1    2  502    0  0.24962073244E+02  0.11619021218E+02 -0.90145264673E+02  0.94256434781E+02  0.00000000000E+00 0. -1.
         -1    1    1    2    0  501 -0.24962073244E+02 -0.11619021218E+02 -0.15079850290E+03  0.15329153673E+03  0.00000000000E+00 0.  1.
</event>
<event>
 4    1  0.6629728E+001  0.3109230E+02  0.7546771E-02  0.1410336E+00
          2   -1    0    0  502    0  0.00000000000E+00  0.00000000000E+00  0.57840981664E+01  0.57840981664E+01  0.00000000000E+00 0.  1.
         -2   -1    0    0    0  501 -0.00000000000E+00 -0.00000000000E+00 -0.17163728513E+03  0.17163728513E+03  0.00000000000E+00 0. -1.
          1    1    1    2  502    0  0.30884012549E+02  0.35928672878E+01 -0.97292706602E+02  0.10214010811E+03  0.00000000000E+00 0. -1.
         -1    1    1    2    0  501 -0.30884012549E+02 -0.35928672878E+01 -0.68560480362E+02  0.75281275188E+02  0.00000000000E+00 0.  1.
</event>
<event>
 4    1  0.6629728E+001  0.2665837E+02  0.7546771E-02  0.1451070E+00
          2   -1    0    0  502    0  0.00000000000E+00  0.00000000000E+00  0.13752810929E+04  0.13752810929E+04  0.00000000000E+00 0.  1.
         -2   -1    0    0    0  501 -0.00000000000E+00 -0.00000000000E+00 -0.65587931411E+00  0.65587931411E+00  0.00000000000E+00 0. -1.
          1    1    1    2  502    0 -0.27720428447E+01  0.26513855842E+02  0.10041779010E+04  0.10045316947E+04  0.00000000000E+00 0.  1.
         -1    1    1    2    0  501  0.27720428447E+01 -0.26513855842E+02  0.37044731254E+03  0.37140527748E+03  0.00000000000E+00 0. -1.
</event>
<event>
 4    1  0.6629728E+001  0.3412130E+02  0.7546771E-02  0.1386848E+00
          2   -1    0    0  502    0  0.00000000000E+00  0.00000000000E+00  0.74309108395E+03  0.74309108395E+03  0.00000000000E+00 0.  1.
         -2   -1    0    0    0  501 -0.00000000000E+00 -0.00000000000E+00 -0.15723995491E+01  0.15723995491E+01  0.00000000000E+00 0. -1.
          1    1    1    2  502    0 -0.56373926545E+01 -0.33652384298E+02  0.34850843949E+03  0.35017480715E+03  0.00000000000E+00 0. -1.
         -1    1    1    2    0  501  0.56373926545E+01  0.33652384298E+02  0.39301024491E+03  0.39448867635E+03  0.00000000000E+00 0.  1.
</event>
<event>
 4    1  0.6629728E+001  0.2843585E+02  0.7546771E-02  0.1433694E+00
          2   -1    0    0  502    0  0.00000000000E+00  0.00000000000E+00  0.11248734485E+04  0.11248734485E+04  0.00000000000E+00 0.  1.
         -2   -1    0    0    0  501 -0.00000000000E+00 -0.00000000000E+00 -0.75087819009E+00  0.75087819009E+00  0.00000000000E+00 0. -1.
          1    1    1    2  502    0 -0.24959650783E+02  0.13624009762E+02  0.44579596438E+03  0.44670195843E+03  0.00000000000E+00 0.  1.
         -1    1    1    2    0  501  0.24959650783E+02 -0.13624009762E+02  0.67832660594E+03  0.67892236826E+03  0.00000000000E+00 0. -1.
</event>
<event>
 4    1  0.6629728E+001  0.2707159E+02  0.7546771E-02  0.1446890E+00
          2   -1    0    0  502    0  0.00000000000E+00  0.00000000000E+00  0.19178225059E+02  0.19178225059E+02  0.00000000000E+00 0. -1.
         -2   -1    0    0    0  501 -0.00000000000E+00 -0.00000000000E+00 -0.52980300101E+02  0.52980300101E+02  0.00000000000E+00 0.  1.
          1    1    1    2  502    0 -0.26715756969E+02  0.43748653352E+01  0.21465757863E+01  0.27156562830E+02  0.00000000000E+00 0. -1.
         -1    1    1    2    0  501  0.26715756969E+02 -0.43748653352E+01 -0.35948650828E+02  0.45001962330E+02  0.00000000000E+00 0.  1.
</event>
<event>
 4    1  0.6629728E+001  0.2865088E+02  0.7546771E-02  0.1431694E+00
          2   -1    0    0  502    0  0.00000000000E+00  0.00000000000E+00  0.58563761446E+02  0.58563761446E+02  0.00000000000E+00 0. -1.
         -2   -1    0    0    0  501 -0.00000000000E+00 -0.00000000000E+00 -0.19241841676E+02  0.19241841676E+02  0.00000000000E+00 0.  1.
          1    1    1    2  502    0  0.13480639852E+02  0.25281327767E+02 -0.61142364554E+00  0.28657407827E+02  0.00000000000E+00 0.  1.
         -1    1    1    2    0  501 -0.13480639852E+02 -0.25281327767E+02  0.39933343416E+02  0.49148195296E+02  0.00000000000E+00 0. -1.
</event>
<event>
 4    1  0.6629728E+001  0.3606268E+02  0.7546771E-02  0.1373242E+00
          2   -1    0    0  502    0  0.00000000000E+00  0.00000000000E+00  0.15723210062E+01  0.15723210062E+01  0.00000000000E+00 0. -1.
         -2   -1    0    0    0  501 -0.00000000000E+00 -0.00000000000E+00 -0.91867515229E+03  0.91867515229E+03  0.00000000000E+00 0.  1.
          1    1    1    2  502    0  0.59347851276E+01  0.35570988286E+02 -0.31330454297E+03  0.31537319723E+03  0.00000000000E+00 0. -1.
         -1    1    1    2    0  501 -0.59347851276E+01 -0.35570988286E+02 -0.60379828831E+03  0.60487427607E+03  0.00000000000E+00 0.  1.
</event>
<event>
 4    1  0.6629728E+001  0.2337658E+02  0.7546771E-02  0.1487823E+00
          2   -1    0    0  502    0  0.00000000000E+00  0.00000000000E+00  0.59176153117E+01  0.59176153117E+01  0.00000000000E+00 0. -1.
         -2   -1    0    0    0  501 -0.00000000000E+00 -0.00000000000E+00 -0.95394891787E+02  0.95394891787E+02  0.00000000000E+00 0.  1.
          1    1    1    2  502    0  0.76854523484E+01 -0.22077102704E+02 -0.35681663110E+02  0.42657305633E+02  0.00000000000E+00 0. -1.
         -1    1    1    2    0  501 -0.76854523484E+01  0.22077102704E+02 -0.53795613366E+02  0.58655201466E+02  0.00000000000E+00 0.  1.
</event>
<event>
 4    1  0.6629728E+001  0.3049233E+02  0.7546771E-02  0.1415365E+00
          2   -1    0    0  502    0  0.00000000000E+00  0.00000000000E+00  0.19996528134E+03  0.19996528134E+03  0.00000000000E+00 0. -1.
         -2   -1    0    0    0  501 -0.00000000000E+00 -0.00000000000E+00 -0.47026842798E+01  0.47026842798E+01  0.00000000000E+00 0.  1.
          1    1    1    2  502    0 -0.25546189484E+02  0.16648548944E+02  0.10849181741E+03  0.11269541439E+03  0.00000000000E+00 0. -1.
         -1    1    1    2    0  501  0.25546189484E+02 -0.16648548944E+02  0.86770779652E+02  0.91972551234E+02  0.00000000000E+00 0.  1.
</event>
<event>
 4    1  0.6629728E+001  0.3143514E+02  0.7546771E-02  0.1407522E+00
          2   -1    0    0  502    0  0.00000000000E+00  0.00000000000E+00  0.89790900492E+03  0.89790900492E+03  0.00000000000E+00 0.  1.
         -2   -1    0    0    0  501 -0.00000000000E+00 -0.00000000000E+00 -0.15713723608E+01  0.15713723608E+01  0.00000000000E+00 0. -1.
          1    1    1    2  502    0 -0.31033262480E+02 -0.50104714488E+01  0.69435507412E+03  0.69506628257E+03  0.00000000000E+00 0.  1.
         -1    1    1    2    0  501  0.31033262480E+02  0.50104714488E+01  0.20198255844E+03  0.20441409472E+03  0.00000000000E+00 0. -1.
</event>
<event>
 4    1  0.6629728E+001  0.2518544E+02  0.7546771E-02  0.1466740E+00
          2   -1    0    0  502    0  0.00000000000E+00  0.00000000000E+00  0.14705171450E+03  0.14705171450E+03  0.00000000000E+00 0.  1.
         -2   -1    0    0    0  501 -0.00000000000E+00 -0.00000000000E+00 -0.43200738421E+01  0.43200738421E+01  0.00000000000E+00 0. -1.
          1    1    1    2  502    0  0.12878434162E+02 -0.21643754618E+02  0.74320368135E+02  0.78471799394E+02  0.00000000000E+00 0.  1.
         -1    1    1    2    0  501 -0.12878434162E+02  0.21643754618E+02  0.68411272524E+02  0.72899988949E+02  0.00000000000E+00 0. -1.
</event>
<event>
 4    1  0.6629728E+001  0.2846009E+02  0.7546771E-02  0.1433468E+00
          2   -1    0    0  502    0  0.00000000000E+00  0.00000000000E+00  0.15173761524E+03  0.15173761524E+03  0.00000000000E+00 0. -1.
         -2   -1    0    0    0  501 -0.00000000000E+00 -0.00000000000E+00 -0.58348143052E+01  0.58348143052E+01  0.00000000000E+00 0.  1.
          1    1    1    2  502    0  0.10315708297E+02 -0.26524757628E+02  0.95940939503E+02  0.10007317561E+03  0.00000000000E+00 0.  1.
         -1    1    1    2    0  501 -0.10315708297E+02  0.26524757628E+02  0.49961861435E+02  0.57499253934E+02  0.00000000000E+00 0. -1.
</event>
<event>
 4    1  0.6629728E+001  0.2275497E+02  0.7546771E-02  0.1495598E+00
          2   -1    0    0  502    0  0.00000000000E+00  0.00000000000E+00  0.21323726080E+01  0.21323726080E+01  0.00000000000E+00 0.  1.
         -2   -1    0    0    0  501 -0.00000000000E+00 -0.00000000000E+00 -0.59517460015E+03  0.59517460015E+03  0.00000000000E+00 0. -1.
          1    1    1    2  502    0 -0.10392640053E+02 -0.20243060996E+02 -0.52631247619E+03  0.52680414869E+03  0.00000000000E+00 0. -1.
         -1    1    1    2    0  501  0.10392640053E+02  0.20243060996E+02 -0.66729751348E+02  0.70502824062E+02  0.00000000000E+00 0.  1.
</event>
<event>
 4    1  0.6629728E+001  0.2313800E+02  0.7546771E-02  0.1490772E+00
          2   -1    0    0  502    0  0.00000000000E+00  0.00000000000E+00  0.10990837414E+03  0.10990837414E+03  0.00000000000E+00 0. -1.
         -2   -1    0    0    0  501 -0.00000000000E+00 -0.00000000000E+00 -0.48920325292E+01  0.48920325292E+01  0.00000000000E+00 0.  1.
          1    1    1    2  502    0  0.88248583795E+01  0.21388993570E+02  0.48747309792E+02  0.53959868267E+02  0.00000000000E+00 0.  1.
         -1    1    1    2    0  501 -0.88248583795E+01 -0.21388993570E+02  0.56269031819E+02  0.60840538404E+02  0.00000000000E+00 0. -1.
</event>
<event>
 4    1  0.6629728E+001  0.2759354E+02  0.7546771E-02  0.1441735E+00
          2   -1    0    0  502    0  0.00000000000E+00  0.00000000000E+00  0.15590543444E+03  0.15590543444E+03  0.00000000000E+00 0.  1.
         -2   -1    0    0    0  501 -0.00000000000E+00 -0.00000000000E+00 -0.49665628924E+01  0.49665628924E+01  0.00000000000E+00 0. -1.
          1    1    1    2  502    0  0.27211286262E+02  0.45770371954E+01  0.85855907255E+02  0.90181152023E+02  0.00000000000E+00 0.  1.
         -1    1    1    2    0  501 -0.27211286262E+02 -0.45770371954E+01  0.65082964291E+02  0.70690845308E+02  0.00000000000E+00 0. -1.
</event>
<event>
 4    1  0.6629728E+001  0.2557035E+02  0.7546771E-02  0.1462523E+00
          2   -1    0    0  502    0  0.00000000000E+00  0.00000000000E+00  0.10200327818E+03  0.10200327818E+03  0.00000000000E+00 0.  1.
         -2   -1    0    0    0  501 -0.00000000000E+00 -0.00000000000E+00 -0.14923166089E+02  0.14923166089E+02  0.00000000000E+00 0. -1.
          1    1    1    2  502    0  0.88570030632E+01  0.23987419371E+02 -0.61672124288E+00  0.25577785996E+02  0.00000000000E+00 0. -1.
         -1    1    1    2    0  501 -0.88570030632E+01 -0.23987419371E+02  0.87696833331E+02  0.91348658269E+02  0.00000000000E+00 0.  1.
</event>
<event>
 4    1  0.6629728E+001  0.3056716E+02  0.7546771E-02  0.1414731E+00
          2   -1    0    0  502    0  0.00000000000E+00  0.00000000000E+00  0.13423518729E+04  0.13423518729E+04  0.00000000000E+00 0.  1.
         -2   -1    0    0    0  501 -0.00000000000E+00 -0.00000000000E+00 -0.80462074468E+00  0.80462074468E+00  0.00000000000E+00 0. -1.
          1    1    1    2  502    0 -0.19091967097E+02  0.23871492774E+02  0.91746073709E+03  0.91796980097E+03  0.00000000000E+00 0. -1.
         -1    1    1    2    0  501  0.19091967097E+02 -0.23871492774E+02  0.42408651504E+03  0.42518669265E+03  0.00000000000E+00 0.  1.
</event>
<event>
 4    1  0.6629728E+001  0.5606579E+02  0.7546771E-02  0.1273819E+00
          2   -1    0    0  502    0  0.00000000000E+00  0.00000000000E+00  0.12361715435E+04  0.12361715435E+04  0.00000000000E+00 0. -1.
         -2   -1    0    0    0  501 -0.00000000000E+00 -0.00000000000E+00 -0.28555223005E+01  0.28555223005E+01  0.00000000000E+00 0.  1.
          1    1    1    2  502    0  0.47432521624E+02  0.29891941698E+02  0.82166450749E+03  0.82357509381E+03  0.00000000000E+00 0. -1.
         -1    1    1    2    0  501 -0.47432521624E+02 -0.29891941698E+02  0.41165151370E+03  0.41545197197E+03  0.00000000000E+00 0.  1.
</event>
<event>
 4    1  0.6629728E+001  0.2514167E+02  0.7546771E-02  0.1467225E+00
          2   -1    0    0  502    0  0.00000000000E+00  0.00000000000E+00  0.12776353006E+02  0.12776353006E+02  0.00000000000E+00 0.  1.
         -2   -1    0    0    0  501 -0.00000000000E+00 -0.00000000000E+00 -0.49806837723E+02  0.49806837723E+02  0.00000000000E+00 0. -1.
          1    1    1    2  502    0 -0.12411399722E+02  0.21864604811E+02 -0.15959203662E+02  0.29779186828E+02  0.00000000000E+00 0. -1.
         -1    1    1    2    0  501  0.12411399722E+02 -0.21864604811E+02 -0.21071281055E+02  0.32804003901E+02  0.00000000000E+00 0.  1.
</event>
<event>
 4    1  0.6629728E+001  0.2029048E+02  0.7546771E-02  0.1529641E+00
          2   -1    0    0  502    0  0.00000000000E+00  0.00000000000E+00  0.20424547491E+03  0.20424547491E+03  0.00000000000E+00 0. -1.
         -2   -1    0    0    0  501 -0.00000000000E+00 -0.00000000000E+00 -0.20296548100E+01  0.20296548100E+01  0.00000000000E+00 0.  1.
          1    1    1    2  502    0 -0.87776064219E+01 -0.18293639444E+02  0.92564937452E+02  0.94762710304E+02  0.00000000000E+00 0.  1.
         -1    1    1    2    0  501  0.87776064219E+01  0.18293639444E+02  0.10965088265E+03  0.11151241942E+03  0.00000000000E+00 0. -1.
</event>
<event>
 4    1  0.6629728E+001  0.2396076E+02  0.7546771E-02  0.1480774E+00
          2   -1    0    0  502    0  0.00000000000E+00  0.00000000000E+00  0.15961643772E+03  0.15961643772E+03  0.00000000000E+00 0.  1.
         -2   -1    0    0    0  501 -0.00000000000E+00 -0.00000000000E+00 -0.36029040221E+01  0.36029040221E+01  0.00000000000E+00 0. -1.
          1    1    1    2  502    0 -0.24122762048E+01 -0.23839023860E+02  0.74664482212E+02  0.78414941428E+02  0.00000000000E+00 0. -1.
         -1    1    1    2    0  501  0.24122762048E+01  0.23839023860E+02  0.81349051484E+02  0.84804400313E+02  0.00000000000E+00 0.  1.
</event>
<event>
 4    1  0.6629728E+001  0.2480447E+02  0.7546771E-02  0.1471003E+00
          2   -1    0    0  502    0  0.00000000000E+00  0.00000000000E+00  0.21162571481E+01  0.21162571481E+01  0.00000000000E+00 0.  1.
         -2   -1    0    0    0  501 -0.00000000000E+00 -0.00000000000E+00 -0.31305092311E+03  0.31305092311E+03  0.00000000000E+00 0. -1.
          1    1    1    2  502    0 -0.18785471578E+02  0.16197768459E+02 -0.11338988070E+03  0.11607121388E+03  0.00000000000E+00 0. -1.
         -1    1    1    2    0  501  0.18785471578E+02 -0.16197768459E+02 -0.19754478527E+03  0.19909596639E+03  0.00000000000E+00 0.  1.
</event>
<event>
 4    1  0.6629728E+001  0.3216711E+02  0.7546771E-02  0.1401654E+00
          2   -1    0    0  502    0  0.00000000000E+00  0.00000000000E+00  0.11382974629E+02  0.11382974629E+02  0.00000000000E+00 0.  1.
         -2   -1    0    0    0  501 -0.00000000000E+00 -0.00000000000E+00 -0.93303436549E+02  0.93303436549E+02  0.00000000000E+00 0. -1.
          1    1    1    2  502    0  0.19730394584E+02  0.25405406309E+02 -0.32560942163E+02  0.45770493713E+02  0.00000000000E+00 0.  1.
         -1    1    1    2    0  501 -0.19730394584E+02 -0.25405406309E+02 -0.49359519756E+02  0.58915917465E+02  0.00000000000E+00 0. -1.
</event>
<event>
 4    1  0.6629728E+001  0.2302732E+02  0.7546771E-02  0.1492155E+00
          2   -1    0    0  502    0  0.00000000000E+00  0.00000000000E+00  0.45583468453E+02  0.45583468453E+02  0.00000000000E+00 0. -1.
         -2   -1    0    0    0  501 -0.00000000000E+00 -0.00000000000E+00 -0.14077931700E+02  0.14077931700E+02  0.00000000000E+00 0.  1.
          1    1    1    2  502    0  0.21842132269E+02 -0.72923773480E+01  0.33203227676E+01  0.23265469106E+02  0.00000000000E+00 0.  1.
         -1    1    1    2    0  501 -0.21842132269E+02  0.72923773480E+01  0.28185213985E+02  0.36395931048E+02  0.00000000000E+00 0. -1.
</event>
<event>
 4    1  0.6629728E+001  0.2259626E+02  0.7546771E-02  0.1497631E+00
          2   -1    0    0  502    0  0.00000000000E+00  0.00000000000E+00  0.18509204910E+03  0.18509204910E+03  0.00000000000E+00 0.  1.
         -2   -1    0    0    0  501 -0.00000000000E+00 -0.00000000000E+00 -0.28909084606E+01  0.28909084606E+01  0.00000000000E+00 0. -1.
          1    1    1    2  502    0 -0.18330874373E+02  0.13212500721E+02  0.70991185830E+02  0.74500601313E+02  0.00000000000E+00 0. -1.
         -1    1    1    2    0  501  0.18330874373E+02 -0.13212500721E+02  0.11120995481E+03  0.11348235624E+03  0.00000000000E+00 0.  1.
</event>
<event>
 4    1  0.6629728E+001  0.2184862E+02  0.7546771E-02  0.1507485E+00
          2   -1    0    0  502    0  0.00000000000E+00  0.00000000000E+00  0.22390511605E+03  0.22390511605E+03  0.00000000000E+00 0.  1.
         -2   -1    0    0    0  501 -0.00000000000E+00 -0.00000000000E+00 -0.38658724001E+01  0.38658724001E+01  0.00000000000E+00 0. -1.
          1    1    1    2  502    0  0.80371784620E+01 -0.20316645877E+02  0.18628986042E+03  0.18756671995E+03  0.00000000000E+00 0.  1.
         -1    1    1    2    0  501 -0.80371784620E+01  0.20316645877E+02  0.33749383233E+02  0.40204268504E+02  0.00000000000E+00 0. -1.
</event>
<event>
 4    1  0.6629728E+001  0.3216958E+02  0.7546771E-02  0.1401634E+00
          2   -1    0    0  502    0  0.00000000000E+00  0.00000000000E+00  0.10198233579E+04  0.10198233579E+04  0.00000000000E+00 0. -1.
         -2   -1    0    0    0  501 -0.00000000000E+00 -0.00000000000E+00 -0.10202717786E+01  0.10202717786E+01  0.00000000000E+00 0.  1.
          1    1    1    2  502    0  0.21586959706E+02 -0.23851313513E+02  0.47190563194E+03  0.47300085353E+03  0.00000000000E+00 0.  1.
         -1    1    1    2    0  501 -0.21586959706E+02  0.23851313513E+02  0.54689745423E+03  0.54784277619E+03  0.00000000000E+00 0. -1.
</event>
<event>
 4    1  0.6629728E+001  0.3240362E+02  0.7546771E-02  0.1399797E+00
          2   -1    0    0  502    0  0.00000000000E+00  0.00000000000E+00  0.19291078234E+03  0.19291078234E+03  0.00000000000E+00 0. -1.
         -2   -1    0    0    0  501 -0.00000000000E+00 -0.00000000000E+00 -0.69141755406E+01  0.69141755406E+01  0.00000000000E+00 0.  1.
          1    1    1    2  502    0 -0.16069645643E+02  0.28138243804E+02  0.13908720996E+03  0.14281192615E+03  0.00000000000E+00 0. -1.
         -1    1    1    2    0  501  0.16069645643E+02 -0.28138243804E+02  0.46909396834E+02  0.57013031728E+02  0.00000000000E+00 0.  1.
</event>
<event>
 4    1  0.6629728E+001  0.2587351E+02  0.7546771E-02  0.1459264E+00
          2   -1    0    0  502    0  0.00000000000E+00  0.00000000000E+00  0.27074545219E+02  0.27074545219E+02  0.00000000000E+00 0. -1.
         -2   -1    0    0    0  501 -0.00000000000E+00 -0.00000000000E+00 -0.38204671539E+02  0.38204671539E+02  0.00000000000E+00 0.  1.
          1    1    1    2  502    0 -0.23605462313E+02  0.10593434505E+02  0.13822093365E+02  0.29334092292E+02  0.00000000000E+00 0. -1.
         -1    1    1    2    0  501  0.23605462313E+02 -0.10593434505E+02 -0.24952219685E+02  0.35945124465E+02  0.00000000000E+00 0.  1.
</event>
<event>
 4    1  0.6629728E+001  0.2160315E+02  0.7546771E-02  0.1510825E+00
          2   -1    0    0  502    0  0.00000000000E+00  0.00000000000E+00  0.19503469205E+04  0.19503469205E+04  0.00000000000E+00 0.  1.
         -2   -1    0    0    0  501 -0.00000000000E+00 -0.00000000000E+00 -0.30055973773E+00  0.30055973773E+00  0.00000000000E+00 0. -1.
          1    1    1    2  502    0 -0.19043965161E+01  0.21519042720E+02  0.53465988908E+03  0.53509615296E+03  0.00000000000E+00 0. -1.
         -1    1    1    2    0  501  0.19043965161E+01 -0.21519042720E+02  0.14153864716E+04  0.14155513272E+04  0.00000000000E+00 0.  1.
</event>
<event>
 4    1  0.6629728E+001  0.2777100E+02  0.7546771E-02  0.1440013E+00
          2   -1    0    0  502    0  0.00000000000E+00  0.00000000000E+00  0.84560000135E+01  0.84560000135E+01  0.00000000000E+00 0.  1.
         -2   -1    0    0    0  501 -0.00000000000E+00 -0.00000000000E+00 -0.91207317721E+02  0.91207317721E+02  0.00000000000E+00 0. -1.
          1    1    1    2  502    0  0.20254139364E+02 -0.18999948103E+02 -0.41635007198E+02  0.50046998049E+02  0.00000000000E+00 0.  1.
         -1    1    1    2    0  501 -0.20254139364E+02  0.18999948103E+02 -0.41116310510E+02  0.49616319686E+02  0.00000000000E+00 0. -1.
</event>
<event>
 4    1  0.6629728E+001  0.2238045E+02  0.7546771E-02  0.1500428E+00
          2   -1    0    0  502    0  0.00000000000E+00  0.00000000000E+00  0.21662026009E+04  0.21662026009E+04  0.00000000000E+00 0.  1.
         -2   -1    0    0    0  501 -0.00000000000E+00 -0.00000000000E+00 -0.23222713289E+00  0.23222713289E+00  0.00000000000E+00 0. -1.
          1    1    1    2  502    0  0.77364314501E+01  0.21000765963E+02  0.11540716037E+04  0.11542885908E+04  0.00000000000E+00 0.  1.
         -1    1    1    2    0  501 -0.77364314501E+01 -0.21000765963E+02  0.10118987701E+04  0.10121462372E+04  0.00000000000E+00 0. -1.
</event>
<event>
 4    1  0.6629728E+001  0.3367393E+02  0.7546771E-02  0.1390133E+00
          2   -1    0    0  502    0  0.00000000000E+00  0.00000000000E+00  0.50269383832E+03  0.50269383832E+03  0.00000000000E+00 0. -1.
         -2   -1    0    0    0  501 -0.00000000000E+00 -0.00000000000E+00 -0.28475346435E+01  0.28475346435E+01  0.00000000000E+00 0.  1.
          1    1    1    2  502    0  0.15867980073E+02 -0.29700859079E+02  0.13468745275E+03  0.13883315076E+03  0.00000000000E+00 0.  1.
         -1    1    1    2    0  501 -0.15867980073E+02  0.29700859079E+02  0.36515885093E+03  0.36670822221E+03  0.00000000000E+00 0. -1.
</event>
<event>
 4    1  0.6629728E+001  0.2491862E+02  0.7546771E-02  0.1469716E+00
          2   -1    0    0  502    0  0.00000000000E+00  0.00000000000E+00  0.15835566517E+02  0.15835566517E+02  0.00000000000E+00 0. -1.
         -2   -1    0    0    0  501 -0.00000000000E+00 -0.00000000000E+00 -0.41991459074E+02  0.41991459074E+02  0.00000000000E+00 0.  1.
          1    1    1    2  502    0  0.82724916060E+00 -0.24904884399E+02 -0.20517265695E+02  0.32278410737E+02  0.00000000000E+00 0.  1.
         -1    1    1    2    0  501 -0.82724916060E+00  0.24904884399E+02 -0.56386268619E+01  0.25548614854E+02  0.00000000000E+00 0. -1.
</event>
<event>
 4    1  0.6629728E+001  0.3683272E+02  0.7546771E-02  0.1368117E+00
          2   -1    0    0  502    0  0.00000000000E+00  0.00000000000E+00  0.25160209639E+04  0.25160209639E+04  0.00000000000E+00 0.  1.
         -2   -1    0    0    0  501 -0.00000000000E+00 -0.00000000000E+00 -0.69519561523E+00  0.69519561523E+00  0.00000000000E+00 0. -1.
          1    1    1    2  502    0 -0.18338694352E+02 -0.31942789645E+02  0.18537377780E+04  0.18541036646E+04  0.00000000000E+00 0.  1.
         -1    1    1    2    0  501  0.18338694352E+02  0.31942789645E+02  0.66158799028E+03  0.66261249490E+03  0.00000000000E+00 0. -1.
</event>
<event>
 4    1  0.6629728E+001  0.2929802E+02  0.7546771E-02  0.1425796E+00
          2   -1    0    0  502    0  0.00000000000E+00  0.00000000000E+00  0.17631718304E+03  0.17631718304E+03  0.00000000000E+00 0.  1.
         -2   -1    0    0    0  501 -0.00000000000E+00 -0.00000000000E+00 -0.49652825011E+01  0.49652825011E+01  0.00000000000E+00 0. -1.
          1    1    1    2  502    0 -0.58824077456E+00 -0.29292112865E+02  0.73011489989E+02  0.78670525444E+02  0.00000000000E+00 0. -1.
         -1    1    1    2    0  501  0.58824077456E+00  0.29292112865E+02  0.98340410551E+02  0.10261194010E+03  0.00000000000E+00 0.  1.
</event>
<event>
 4    1  0.6629728E+001  0.2420333E+02  0.7546771E-02  0.1477916E+00
          2   -1    0    0  502    0  0.00000000000E+00  0.00000000000E+00  0.77451116583E+01  0.77451116583E+01  0.00000000000E+00 0.  1.
         -2   -1    0    0    0  501 -0.00000000000E+00 -0.00000000000E+00 -0.79419244909E+02  0.79419244909E+02  0.00000000000E+00 0. -1.
          1    1    1    2  502    0 -0.62876917815E+01  0.23372339031E+02 -0.26323632665E+02  0.35759403469E+02  0.00000000000E+00 0.  1.
         -1    1    1    2    0  501  0.62876917815E+01 -0.23372339031E+02 -0.45350500585E+02  0.51404953098E+02  0.00000000000E+00 0. -1.
</event>
<event>
 4    1  0.6629728E+001  0.4069341E+02  0.7546771E-02  0.1344470E+00
          2   -1    0    0  502    0  0.00000000000E+00  0.00000000000E+00  0.58144633747E+03  0.58144633747E+03  0.00000000000E+00 0. -1.
         -2   -1    0    0    0  501 -0.00000000000E+00 -0.00000000000E+00 -0.31400196642E+01  0.31400196642E+01  0.00000000000E+00 0.  1.
          1    1    1    2  502    0  0.12336179283E+02  0.38778499784E+02  0.20001452628E+03  0.20411213606E+03  0.00000000000E+00 0.  1.
         -1    1    1    2    0  501 -0.12336179283E+02 -0.38778499784E+02  0.37829179153E+03  0.38047422107E+03  0.00000000000E+00 0. -1.
</event>
<event>
 4    1  0.6629728E+001  0.2060578E+02  0.7546771E-02  0.1524968E+00
          2   -1    0    0  502    0  0.00000000000E+00  0.00000000000E+00  0.18643851637E+01  0.18643851637E+01  0.00000000000E+00 0.  1.
         -2   -1    0    0    0  501 -0.00000000000E+00 -0.00000000000E+00 -0.35520276822E+03  0.35520276822E+03  0.00000000000E+00 0. -1.
          1    1    1    2  502    0 -0.12360236182E+02  0.16487050475E+02 -0.28361665501E+03  0.28436421235E+03  0.00000000000E+00 0. -1.
         -1    1    1    2    0  501  0.12360236182E+02 -0.16487050475E+02 -0.69721728053E+02  0.72702941031E+02  0.00000000000E+00 0.  1.
</event>
<event>
 4    1  0.6629728E+001  0.2146194E+02  0.7546771E-02  0.1512771E+00
          2   -1    0    0  502    0  0.00000000000E+00  0.00000000000E+00  0.76182193342E+03  0.76182193342E+03  0.00000000000E+00 0.  1.
         -2   -1    0    0    0  501 -0.00000000000E+00 -0.00000000000E+00 -0.64875820824E+00  0.64875820824E+00  0.00000000000E+00 0. -1.
          1    1    1    2  502    0  0.17225319370E+02  0.12802477293E+02  0.48002275676E+03  0.48050230183E+03  0.00000000000E+00 0.  1.
         -1    1    1    2    0  501 -0.17225319370E+02 -0.12802477293E+02  0.28115041845E+03  0.28196838980E+03  0.00000000000E+00 0. -1.
</event>
<event>
 4    1  0.6629728E+001  0.2221592E+02  0.7546771E-02  0.1502586E+00
          2   -1    0    0  502    0  0.00000000000E+00  0.00000000000E+00  0.17879892654E+03  0.17879892654E+03  0.00000000000E+00 0. -1.
         -2   -1    0    0    0  501 -0.00000000000E+00 -0.00000000000E+00 -0.27914332304E+01  0.27914332304E+01  0.00000000000E+00 0.  1.
          1    1    1    2  502    0  0.78018279784E+00 -0.22202216478E+02  0.78422271639E+02  0.81508280505E+02  0.00000000000E+00 0.  1.
         -1    1    1    2    0  501 -0.78018279784E+00  0.22202216478E+02  0.97585221674E+02  0.10008207927E+03  0.00000000000E+00 0. -1.
</event>
<event>
 4    1  0.6629728E+001  0.2019713E+02  0.7546771E-02  0.1531043E+00
          2   -1    0    0  502    0  0.00000000000E+00  0.00000000000E+00  0.82230531426E+02  0.82230531426E+02  0.00000000000E+00 0. -1.
         -2   -1    0    0    0  501 -0.00000000000E+00 -0.00000000000E+00 -0.51721626180E+01  0.51721626180E+01  0.00000000000E+00 0.  1.
          1    1    1    2  502    0 -0.18686672497E+02 -0.76637090239E+01  0.29693585794E+02  0.35911463383E+02  0.00000000000E+00 0.  1.
         -1    1    1    2    0  501  0.18686672497E+02  0.76637090239E+01  0.47364783014E+02  0.51491230661E+02  0.00000000000E+00 0. -1.
</event>
<event>
 4    1  0.6629728E+001  0.6198771E+02  0.7546771E-02  0.1253225E+00
          2   -1    0    0  502    0  0.00000000000E+00  0.00000000000E+00  0.71774180584E+03  0.71774180584E+03  0.00000000000E+00 0. -1.
         -2   -1    0    0    0  501 -0.00000000000E+00 -0.00000000000E+00 -0.70367349036E+01  0.70367349036E+01  0.00000000000E+00 0.  1.
          1    1    1    2  502    0  0.47850616385E+02  0.39405516594E+02  0.17811572458E+03  0.18859397543E+03  0.00000000000E+00 0.  1.
         -1    1    1    2    0  501 -0.47850616385E+02 -0.39405516594E+02  0.53258934635E+03  0.53618456531E+03  0.00000000000E+00 0. -1.
</event>
<event>
 4    1  0.6629728E+001  0.2165600E+02  0.7546771E-02  0.1510101E+00
          2   -1    0    0  502    0  0.00000000000E+00  0.00000000000E+00  0.96825633726E+03  0.96825633726E+03  0.00000000000E+00 0.  1.
         -2   -1    0    0    0  501 -0.00000000000E+00 -0.00000000000E+00 -0.48887162324E+00  0.48887162324E+00  0.00000000000E+00 0. -1.
          1    1    1    2  502    0  0.61680840845E+01 -0.20759026358E+02  0.43734033917E+03  0.43787618650E+03  0.00000000000E+00 0.  1.
         -1    1    1    2    0  501 -0.61680840845E+01  0.20759026358E+02  0.53042712646E+03  0.53086902238E+03  0.00000000000E+00 0. -1.
</event>
<event>
 4    1  0.6629728E+001  0.7476829E+02  0.7546771E-02  0.1216543E+00
          2   -1    0    0  502    0  0.00000000000E+00  0.00000000000E+00  0.16996619952E+02  0.16996619952E+02  0.00000000000E+00 0. -1.
         -2   -1    0    0    0  501 -0.00000000000E+00 -0.00000000000E+00 -0.34488740764E+03  0.34488740764E+03  0.00000000000E+00 0.  1.
          1    1    1    2  502    0  0.36386525517E+02 -0.65317053869E+02 -0.20289500103E+03  0.21623292582E+03  0.00000000000E+00 0.  1.
         -1    1    1    2    0  501 -0.36386525517E+02  0.65317053869E+02 -0.12499578665E+03  0.14565110177E+03  0.00000000000E+00 0. -1.
</event>
<event>
 4    1  0.6629728E+001  0.2372280E+02  0.7546771E-02  0.1483616E+00
          2   -1    0    0  502    0  0.00000000000E+00  0.00000000000E+00  0.20619789914E+01  0.20619789914E+01  0.00000000000E+00 0. -1.
         -2   -1    0    0    0  501 -0.00000000000E+00 -0.00000000000E+00 -0.29819379407E+03  0.29819379407E+03  0.00000000000E+00 0.  1.
          1    1    1    2  502    0  0.20114074576E+02 -0.12577571136E+02 -0.10436598431E+03  0.10702817373E+03  0.00000000000E+00 0. -1.
         -1    1    1    2    0  501 -0.20114074576E+02  0.12577571136E+02 -0.19176583077E+03  0.19322759933E+03  0.00000000000E+00 0.  1.
</event>
<event>
 4    1  0.6629728E+001  0.2177399E+02  0.7546771E-02  0.1508495E+00
          2   -1    0    0  502    0  0.00000000000E+00  0.00000000000E+00  0.34177012995E+02  0.34177012995E+02  0.00000000000E+00 0.  1.
         -2   -1    0    0    0  501 -0.00000000000E+00 -0.00000000000E+00 -0.21569497514E+02  0.21569497514E+02  0.00000000000E+00 0. -1.
          1    1    1    2  502    0  0.19820654493E+02 -0.90137860989E+01  0.22954739624E+02  0.31639006868E+02  0.00000000000E+00 0.  1.
         -1    1    1    2    0  501 -0.19820654493E+02  0.90137860989E+01 -0.10347224143E+02  0.24107503642E+02  0.00000000000E+00 0. -1.
</event>
<event>
 4    1  0.6629728E+001  0.2464394E+02  0.7546771E-02  0.1472826E+00
          2   -1    0    0  502    0  0.00000000000E+00  0.00000000000E+00  0.47824447203E+02  0.47824447203E+02  0.00000000000E+00 0.  1.
         -2   -1    0    0    0  501 -0.00000000000E+00 -0.00000000000E+00 -0.13791844894E+02  0.13791844894E+02  0.00000000000E+00 0. -1.
          1    1    1    2  502    0  0.24586832395E+02  0.16767985654E+01  0.83441240576E+01  0.26018231818E+02  0.00000000000E+00 0.  1.
         -1    1    1    2    0  501 -0.24586832395E+02 -0.16767985654E+01  0.25688478252E+02  0.35598060278E+02  0.00000000000E+00 0. -1.
</event>
<event>
 4    1  0.6629728E+001  0.2699535E+02  0.7546771E-02  0.1447655E+00
          2   -1    0    0  502    0  0.00000000000E+00  0.00000000000E+00  0.60553662945E+03  0.60553662945E+03  0.00000000000E+00 0.  1.
         -2   -1    0    0    0  501 -0.00000000000E+00 -0.00000000000E+00 -0.12183900426E+01  0.12183900426E+01  0.00000000000E+00 0. -1.
          1    1    1    2  502    0  0.24906105946E+02 -0.10413208288E+02  0.33572380821E+03  0.33680739959E+03  0.00000000000E+00 0.  1.
         -1    1    1    2    0  501 -0.24906105946E+02  0.10413208288E+02  0.26859443120E+03  0.26994761990E+03  0.00000000000E+00 0. -1.
</event>
<event>
 4    1  0.6629728E+001  0.2129348E+02  0.7546771E-02  0.1515116E+00
          2   -1    0    0  502    0  0.00000000000E+00  0.00000000000E+00  0.87625500597E+03  0.87625500597E+03  0.00000000000E+00 0.  1.
         -2   -1    0    0    0  501 -0.00000000000E+00 -0.00000000000E+00 -0.51953061616E+00  0.51953061616E+00  0.00000000000E+00 0. -1.
          1    1    1    2  502    0 -0.20765266651E+02 -0.47133686509E+01  0.41007937520E+03  0.41063183767E+03  0.00000000000E+00 0.  1.
         -1    1    1    2    0  501  0.20765266651E+02  0.47133686509E+01  0.46565610016E+03  0.46614269892E+03  0.00000000000E+00 0. -1.
</event>
<event>
 4    1  0.6629728E+001  0.2318361E+02  0.7546771E-02  0.1490205E+00
          2   -1    0    0  502    0  0.00000000000E+00  0.00000000000E+00  0.61785485843E+02  0.61785485843E+02  0.00000000000E+00 0.  1.
         -2   -1    0    0    0  501 -0.00000000000E+00 -0.00000000000E+00 -0.13491162834E+02  0.13491162834E+02  0.00000000000E+00 0. -1.
          1    1    1    2  502    0 -0.41531355170E+01  0.22808581734E+02  0.17152899877E+01  0.23246981634E+02  0.00000000000E+00 0. -1.
         -1    1    1    2    0  501  0.41531355170E+01 -0.22808581734E+02  0.46579033022E+02  0.52029667043E+02  0.00000000000E+00 0.  1.
</event>
<event>
 4    1  0.6629728E+001  0.2323761E+02  0.7546771E-02  0.1489536E+00
          2   -1    0    0  502    0  0.00000000000E+00  0.00000000000E+00  0.33855088307E+03  0.33855088307E+03  0.00000000000E+00 0. -1.
         -2   -1    0    0    0  501 -0.00000000000E+00 -0.00000000000E+00 -0.16455091782E+01  0.16455091782E+01  0.00000000000E+00 0.  1.
          1    1    1    2  502    0 -0.14305114682E+02 -0.18312564793E+02  0.13864939733E+03  0.14058321989E+03  0.00000000000E+00 0.  1.
         -1    1    1    2    0  501  0.14305114682E+02  0.18312564793E+02  0.19825597656E+03  0.19961317235E+03  0.00000000000E+00 0. -1.
</event>
<event>
 4    1  0.6629728E+001  0.2446335E+02  0.7546771E-02  0.1474897E+00
          2   -1    0    0  502    0  0.00000000000E+00  0.00000000000E+00  0.33808810945E+01  0.33808810945E+01  0.00000000000E+00 0. -1.
         -2   -1    0    0    0  501 -0.00000000000E+00 -0.00000000000E+00 -0.18774375206E+03  0.18774375206E+03  0.00000000000E+00 0.  1.
          1    1    1    2  502    0 -0.14209278297E+01 -0.24422052037E+02 -0.69333634830E+02  0.73522843936E+02  0.00000000000E+00 0. -1.
         -1    1    1    2    0  501  0.14209278297E+01  0.24422052037E+02 -0.11502923614E+03  0.11760178922E+03  0.00000000000E+00 0.  1.
</event>
<event>
 4    1  0.6629728E+001  0.3986966E+02  0.7546771E-02  0.1349251E+00
          2   -1    0    0  502    0  0.00000000000E+00  0.00000000000E+00  0.30908873667E+03  0.30908873667E+03  0.00000000000E+00 0. -1.
         -2   -1    0    0    0  501 -0.00000000000E+00 -0.00000000000E+00 -0.52862545865E+01  0.52862545865E+01  0.00000000000E+00 0.  1.
          1    1    1    2  502    0  0.17209342614E+02  0.35964260375E+02  0.12600943915E+03  0.13216644147E+03  0.00000000000E+00 0.  1.
         -1    1    1    2    0  501 -0.17209342614E+02 -0.35964260375E+02  0.17779304294E+03  0.18220854979E+03  0.00000000000E+00 0. -1.
</event>
<event>
 4    1  0.6629728E+001  0.2307476E+02  0.7546771E-02  0.1491562E+00
          2   -1    0    0  502    0  0.00000000000E+00  0.00000000000E+00  0.52826563383E+03  0.52826563383E+03  0.00000000000E+00 0. -1.
         -2   -1    0    0    0  501 -0.00000000000E+00 -0.00000000000E+00 -0.10090677685E+01  0.10090677685E+01  0.00000000000E+00 0.  1.
          1    1    1    2  502    0  0.21089476814E+02  0.93636781500E+01  0.27259018847E+03  0.27356508431E+03  0.00000000000E+00 0. -1.
         -1    1    1    2    0  501 -0.21089476814E+02 -0.93636781500E+01  0.25466637759E+03  0.25570961729E+03  0.00000000000E+00 0.  1.
</event>
<event>
 4    1  0.6629728E+001  0.2372689E+02  0.7546771E-02  0.1483567E+00
          2   -1    0    0  502    0  0.00000000000E+00  0.00000000000E+00  0.19703424072E+03  0.19703424072E+03  0.00000000000E+00 0. -1.
         -2   -1    0    0    0  501 -0.00000000000E+00 -0.00000000000E+00 -0.35017938937E+01  0.35017938937E+01  0.00000000000E+00 0.  1.
          1    1    1    2  502    0 -0.16499356695E+02  0.17050995195E+02  0.13978538888E+03  0.14178476700E+03  0.00000000000E+00 0. -1.
         -1    1    1    2    0  501  0.16499356695E+02 -0.17050995195E+02  0.53747057941E+02  0.58751267610E+02  0.00000000000E+00 0.  1.
</event>
<event>
 4    1  0.6629728E+001  0.2192735E+02  0.7546771E-02  0.1506425E+00
          2   -1    0    0  502    0  0.00000000000E+00  0.00000000000E+00  0.67651899304E+02  0.67651899304E+02  0.00000000000E+00 0.  1.
         -2   -1    0    0    0  501 -0.00000000000E+00 -0.00000000000E+00 -0.72272103471E+01  0.72272103471E+01  0.00000000000E+00 0. -1.
          1    1    1    2  502    0 -0.20857334168E+02  0.67661264681E+01  0.25385821193E+02  0.33544727955E+02  0.00000000000E+00 0.  1.
         -1    1    1    2    0  501  0.20857334168E+02 -0.67661264681E+01  0.35038867765E+02  0.41334381696E+02  0.00000000000E+00 0. -1.
</event>
<event>
 4    1  0.6629728E+001  0.2559011E+02  0.7546771E-02  0.1462309E+00
          2   -1    0    0  502    0  0.00000000000E+00  0.00000000000E+00  0.38543100227E+02  0.38543100227E+02  0.00000000000E+00 0. -1.
         -2   -1    0    0    0  501 -0.00000000000E+00 -0.00000000000E+00 -0.23385633218E+02  0.23385633218E+02  0.00000000000E+00 0.  1.
          1    1    1    2  502    0 -0.23603656633E+02 -0.98853874875E+01  0.23771607314E+02  0.34927679661E+02  0.00000000000E+00 0. -1.
         -1    1    1    2    0  501  0.23603656633E+02  0.98853874875E+01 -0.86141403058E+01  0.27001053783E+02  0.00000000000E+00 0.  1.
</event>
<event>
 4    1  0.6629728E+001  0.2529595E+02  0.7546771E-02  0.1465520E+00
          2   -1    0    0  502    0  0.00000000000E+00  0.00000000000E+00  0.54209392190E+03  0.54209392190E+03  0.00000000000E+00 0. -1.
         -2   -1    0    0    0  501 -0.00000000000E+00 -0.00000000000E+00 -0.47731295051E+01  0.47731295051E+01  0.00000000000E+00 0.  1.
          1    1    1    2  502    0  0.20691404927E+02  0.14551660616E+02  0.31434168034E+02  0.40348382675E+02  0.00000000000E+00 0.  1.
         -1    1    1    2    0  501 -0.20691404927E+02 -0.14551660616E+02  0.50588662436E+03  0.50651866873E+03  0.00000000000E+00 0. -1.
</event>
<event>
 4    1  0.6629728E+001  0.3192549E+02  0.7546771E-02  0.1403570E+00
          2   -1    0    0  502    0  0.00000000000E+00  0.00000000000E+00  0.39464246122E+03  0.39464246122E+03  0.00000000000E+00 0. -1.
         -2   -1    0    0    0  501 -0.00000000000E+00 -0.00000000000E+00 -0.26770916567E+01  0.26770916567E+01  0.00000000000E+00 0.  1.
          1    1    1    2  502    0 -0.49127589994E+01  0.31545234836E+02  0.23328882760E+03  0.23546319059E+03  0.00000000000E+00 0.  1.
         -1    1    1    2    0  501  0.49127589994E+01 -0.31545234836E+02  0.15867654196E+03  0.16185636228E+03  0.00000000000E+00 0. -1.
</event>
<event>
 4    1  0.6629728E+001  0.2057548E+02  0.7546771E-02  0.1525413E+00
          2   -1    0    0  502    0  0.00000000000E+00  0.00000000000E+00  0.97185449594E+00  0.97185449594E+00  0.00000000000E+00 0. -1.
         -2   -1    0    0    0  501 -0.00000000000E+00 -0.00000000000E+00 -0.52112606444E+03  0.52112606444E+03  0.00000000000E+00 0.  1.
          1    1    1    2  502    0  0.11395737404E+02 -0.17131480523E+02 -0.15432913943E+03  0.15569468113E+03  0.00000000000E+00 0. -1.
         -1    1    1    2    0  501 -0.11395737404E+02  0.17131480523E+02 -0.36582507052E+03  0.36640323781E+03  0.00000000000E+00 0.  1.
</event>
<event>
 4    1  0.6629728E+001  0.2497394E+02  0.7546771E-02  0.1469095E+00
          2   -1    0    0  502    0  0.00000000000E+00  0.00000000000E+00  0.16064354494E+04  0.16064354494E+04  0.00000000000E+00 0. -1.
         -2   -1    0    0    0  501 -0.00000000000E+00 -0.00000000000E+00 -0.42088492930E+00  0.42088492930E+00  0.00000000000E+00 0.  1.
          1    1    1    2  502    0 -0.14333572913E+02 -0.20451072444E+02  0.10267301494E+04  0.10270338346E+04  0.00000000000E+00 0. -1.
         -1    1    1    2    0  501  0.14333572913E+02  0.20451072444E+02  0.57928441511E+03  0.57982249979E+03  0.00000000000E+00 0.  1.
</event>
<event>
 4    1  0.6629728E+001  0.2203009E+02  0.7546771E-02  0.1505050E+00
          2   -1    0    0  502    0  0.00000000000E+00  0.00000000000E+00  0.22780750109E+02  0.22780750109E+02  0.00000000000E+00 0. -1.
         -2   -1    0    0    0  501 -0.00000000000E+00 -0.00000000000E+00 -0.24205649592E+02  0.24205649592E+02  0.00000000000E+00 0.  1.
          1    1    1    2  502    0 -0.20347149732E+02  0.84450121151E+01  0.74213664617E+01  0.23246535484E+02  0.00000000000E+00 0. -1.
         -1    1    1    2    0  501  0.20347149732E+02 -0.84450121151E+01 -0.88462659450E+01  0.23739864216E+02  0.00000000000E+00 0.  1.
</event>
<event>
 4    1  0.6629728E+001  0.2505995E+02  0.7546771E-02  0.1468134E+00
          2   -1    0    0  502    0  0.00000000000E+00  0.00000000000E+00  0.49943047490E+03  0.49943047490E+03  0.00000000000E+00 0.  1.
         -2   -1    0    0    0  501 -0.00000000000E+00 -0.00000000000E+00 -0.17405273902E+01  0.17405273902E+01  0.00000000000E+00 0. -1.
          1    1    1    2  502    0  0.16933005146E+02 -0.18473608664E+02  0.11682761571E+03  0.11948511486E+03  0.00000000000E+00 0. -1.
         -1    1    1    2    0  501 -0.16933005146E+02  0.18473608664E+02  0.38086233180E+03  0.38168588743E+03  0.00000000000E+00 0.  1.
</event>
<event>
 4    1  0.6629728E+001  0.2309571E+02  0.7546771E-02  0.1491300E+00
          2   -1    0    0  502    0  0.00000000000E+00  0.00000000000E+00  0.15183192911E+03  0.15183192911E+03  0.00000000000E+00 0. -1.
         -2   -1    0    0    0  501 -0.00000000000E+00 -0.00000000000E+00 -0.45146007078E+01  0.45146007078E+01  0.00000000000E+00 0.  1.
          1    1    1    2  502    0  0.19349111476E+02 -0.12610466164E+02  0.36840834652E+02  0.43481709599E+02  0.00000000000E+00 0.  1.
         -1    1    1    2    0  501 -0.19349111476E+02  0.12610466164E+02  0.11047649375E+03  0.11286482022E+03  0.00000000000E+00 0. -1.
</event>
<event>
 4    1  0.6629728E+001  0.2502206E+02  0.7546771E-02  0.1468557E+00
          2   -1    0    0  502    0  0.00000000000E+00  0.00000000000E+00  0.34594174935E+03  0.34594174935E+03  0.00000000000E+00 0.  1.
         -2   -1    0    0    0  501 -0.00000000000E+00 -0.00000000000E+00 -0.18165855165E+01  0.18165855165E+01  0.00000000000E+00 0. -1.
          1    1    1    2  502    0  0.13964266110E+02  0.20763017232E+02  0.16147692793E+03  0.16340410603E+03  0.00000000000E+00 0. -1.
         -1    1    1    2    0  501 -0.13964266110E+02 -0.20763017232E+02  0.18264823590E+03  0.18435422884E+03  0.00000000000E+00 0.  1.
</event>
<event>
 4    1  0.6629728E+001  0.2632210E+02  0.7546771E-02  0.1454539E+00
          2   -1    0    0  502    0  0.00000000000E+00  0.00000000000E+00  0.40109000585E+02  0.40109000585E+02  0.00000000000E+00 0. -1.
         -2   -1    0    0    0  501 -0.00000000000E+00 -0.00000000000E+00 -0.18152483585E+02  0.18152483585E+02  0.00000000000E+00 0.  1.
          1    1    1    2  502    0 -0.25872125873E+02  0.48462495468E+01  0.17385745742E+02  0.31545478074E+02  0.00000000000E+00 0.  1.
         -1    1    1    2    0  501  0.25872125873E+02 -0.48462495468E+01  0.45707712579E+01  0.26716006097E+02  0.00000000000E+00 0. -1.
</event>
<event>
 4    1  0.6629728E+001  0.2032476E+02  0.7546771E-02  0.1529128E+00
          2   -1    0    0  502    0  0.00000000000E+00  0.00000000000E+00  0.99145997950E+03  0.99145997950E+03  0.00000000000E+00 0.  1.
         -2   -1    0    0    0  501 -0.00000000000E+00 -0.00000000000E+00 -0.54440464088E+00  0.54440464088E+00  0.00000000000E+00 0. -1.
          1    1    1    2  502    0  0.13552035305E+02 -0.15147216439E+02  0.25518525457E+03  0.25599337877E+03  0.00000000000E+00 0. -1.
         -1    1    1    2    0  501 -0.13552035305E+02  0.15147216439E+02  0.73573032029E+03  0.73601100536E+03  0.00000000000E+00 0.  1.
</event>
<event>
 4    1  0.6629728E+001  0.3921912E+02  0.7546771E-02  0.1353123E+00
          2   -1    0    0  502    0  0.00000000000E+00  0.00000000000E+00  0.75822011873E+01  0.75822011873E+01  0.00000000000E+00 0. -1.
         -2   -1    0    0    0  501 -0.00000000000E+00 -0.00000000000E+00 -0.22090003496E+03  0.22090003496E+03  0.00000000000E+00 0.  1.
          1    1    1    2  502    0  0.96708481033E+00  0.39207190930E+02 -0.13930427410E+03  0.14471979773E+03  0.00000000000E+00 0. -1.
         -1    1    1    2    0  501 -0.96708481033E+00 -0.39207190930E+02 -0.74013559681E+02  0.83762438421E+02  0.00000000000E+00 0.  1.
</event>
<event>
 4    1  0.6629728E+001  0.2759972E+02  0.7546771E-02  0.1441675E+00
          2   -1    0    0  502    0  0.00000000000E+00  0.00000000000E+00  0.50350975193E+03  0.50350975193E+03  0.00000000000E+00 0.  1.
         -2   -1    0    0    0  501 -0.00000000000E+00 -0.00000000000E+00 -0.16401652159E+01  0.16401652159E+01  0.00000000000E+00 0. -1.
          1    1    1    2  502    0 -0.23263419270E+02 -0.14851188719E+02  0.18057029383E+03  0.18266739035E+03  0.00000000000E+00 0.  1.
         -1    1    1    2    0  501  0.23263419270E+02  0.14851188719E+02  0.32129929288E+03  0.32248252679E+03  0.00000000000E+00 0. -1.
</event>
<event>
 4    1  0.6629728E+001  0.2987098E+02  0.7546771E-02  0.1420721E+00
          2   -1    0    0  502    0  0.00000000000E+00  0.00000000000E+00  0.50008486888E+02  0.50008486888E+02  0.00000000000E+00 0. -1.
         -2   -1    0    0    0  501 -0.00000000000E+00 -0.00000000000E+00 -0.40199065682E+02  0.40199065682E+02  0.00000000000E+00 0.  1.
          1    1    1    2  502    0 -0.28505154301E+02  0.89292697420E+01 -0.28731542748E+02  0.41446076154E+02  0.00000000000E+00 0.  1.
         -1    1    1    2    0  501  0.28505154301E+02 -0.89292697420E+01  0.38540963954E+02  0.48761476417E+02  0.00000000000E+00 0. -1.
</event>
<event>
 4    1  0.6629728E+001  0.2953283E+02  0.7546771E-02  0.1423700E+00
          2   -1    0    0  502    0  0.00000000000E+00  0.00000000000E+00  0.35212419140E+02  0.35212419140E+02  0.00000000000E+00 0. -1.
         -2   -1    0    0    0  501 -0.00000000000E+00 -0.00000000000E+00 -0.50718957435E+02  0.50718957435E+02  0.00000000000E+00 0.  1.
          1    1    1    2  502    0  0.87734316180E-01  0.29532703375E+02 -0.38486068591E+02  0.48511501127E+02  0.00000000000E+00 0.  1.
         -1    1    1    2    0  501 -0.87734316180E-01 -0.29532703375E+02  0.22979530296E+02  0.37419875448E+02  0.00000000000E+00 0. -1.
</event>
<event>
 4    1  0.6629728E+001  0.2096361E+02  0.7546771E-02  0.1519785E+00
          2   -1    0    0  502    0  0.00000000000E+00  0.00000000000E+00  0.12007158586E+01  0.12007158586E+01  0.00000000000E+00 0.  1.
         -2   -1    0    0    0  501 -0.00000000000E+00 -0.00000000000E+00 -0.12028524315E+04  0.12028524315E+04  0.00000000000E+00 0. -1.
          1    1    1    2  502    0  0.12382848066E+02 -0.16915616783E+02 -0.11029736385E+04  0.11031728424E+04  0.00000000000E+00 0. -1.
         -1    1    1    2    0  501 -0.12382848066E+02  0.16915616783E+02 -0.98678077212E+02  0.10088030501E+03  0.00000000000E+00 0.  1.
</event>
<event>
 4    1  0.6629728E+001  0.4746838E+02  0.7546771E-02  0.1309538E+00
          2   -1    0    0  502    0  0.00000000000E+00  0.00000000000E+00  0.54208905947E+02  0.54208905947E+02  0.00000000000E+00 0.  1.
         -2   -1    0    0    0  501 -0.00000000000E+00 -0.00000000000E+00 -0.44898365886E+02  0.44898365886E+02  0.00000000000E+00 0. -1.
          1    1    1    2  502    0 -0.25171792386E+02  0.40244606644E+02  0.18155353834E+02  0.50821888677E+02  0.00000000000E+00 0.  1.
         -1    1    1    2    0  501  0.25171792386E+02 -0.40244606644E+02 -0.88448137725E+01  0.48285383156E+02  0.00000000000E+00 0. -1.
</event>
<event>
 4    1  0.6629728E+001  0.3448064E+02  0.7546771E-02  0.1384252E+00
          2   -1    0    0  502    0  0.00000000000E+00  0.00000000000E+00  0.30609650816E+03  0.30609650816E+03  0.00000000000E+00 0.  1.
         -2   -1    0    0    0  501 -0.00000000000E+00 -0.00000000000E+00 -0.99192449423E+01  0.99192449423E+01  0.00000000000E+00 0. -1.
          1    1    1    2  502    0 -0.79347395513E+01 -0.33555247236E+02  0.27133742132E+03  0.27351948910E+03  0.00000000000E+00 0.  1.
         -1    1    1    2    0  501  0.79347395513E+01  0.33555247236E+02  0.24839841901E+02  0.42496264006E+02  0.00000000000E+00 0. -1.
</event>
<event>
 4    1  0.6629728E+001  0.2967135E+02  0.7546771E-02  0.1422474E+00
          2   -1    0    0  502    0  0.00000000000E+00  0.00000000000E+00  0.37678830671E+02  0.37678830671E+02  0.00000000000E+00 0. -1.
         -2   -1    0    0    0  501 -0.00000000000E+00 -0.00000000000E+00 -0.23435350768E+02  0.23435350768E+02  0.00000000000E+00 0.  1.
          1    1    1    2  502    0 -0.26167959158E+02 -0.13986661792E+02  0.87887002885E+01  0.30945598190E+02  0.00000000000E+00 0. -1.
         -1    1    1    2    0  501  0.26167959158E+02  0.13986661792E+02  0.54547796144E+01  0.30168583249E+02  0.00000000000E+00 0.  1.
</event>
<event>
 4    1  0.6629728E+001  0.2311162E+02  0.7546771E-02  0.1491101E+00
          2   -1    0    0  502    0  0.00000000000E+00  0.00000000000E+00  0.65162118581E+03  0.65162118581E+03  0.00000000000E+00 0.  1.
         -2   -1    0    0    0  501 -0.00000000000E+00 -0.00000000000E+00 -0.82545835846E+00  0.82545835846E+00  0.00000000000E+00 0. -1.
          1    1    1    2  502    0  0.14664207315E+02 -0.17863590466E+02  0.29819805917E+03  0.29909234249E+03  0.00000000000E+00 0. -1.
         -1    1    1    2    0  501 -0.14664207315E+02  0.17863590466E+02  0.35259766828E+03  0.35335430168E+03  0.00000000000E+00 0.  1.
</event>
<event>
 4    1  0.6629728E+001  0.2939313E+02  0.7546771E-02  0.1424944E+00
          2   -1    0    0  502    0  0.00000000000E+00  0.00000000000E+00  0.13991627442E+03  0.13991627442E+03  0.00000000000E+00 0. -1.
         -2   -1    0    0    0  501 -0.00000000000E+00 -0.00000000000E+00 -0.10108489823E+02  0.10108489823E+02  0.00000000000E+00 0.  1.
          1    1    1    2  502    0  0.67236365063E+01  0.28613790098E+02  0.18109977815E+02  0.34524304021E+02  0.00000000000E+00 0.  1.
         -1    1    1    2    0  501 -0.67236365063E+01 -0.28613790098E+02  0.11169780678E+03  0.11550046022E+03  0.00000000000E+00 0. -1.
</event>
<event>
 4    1  0.6629728E+001  0.2529029E+02  0.7546771E-02  0.1465582E+00
          2   -1    0    0  502    0  0.00000000000E+00  0.00000000000E+00  0.86413239593E+02  0.86413239593E+02  0.00000000000E+00 0.  1.
         -2   -1    0    0    0  501 -0.00000000000E+00 -0.00000000000E+00 -0.21098106657E+02  0.21098106657E+02  0.00000000000E+00 0. -1.
          1    1    1    2  502    0  0.23444063834E+02 -0.94855074251E+01 -0.10654306568E+02  0.27442908530E+02  0.00000000000E+00 0. -1.
         -1    1    1    2    0  501 -0.23444063834E+02  0.94855074251E+01  0.75969439505E+02  0.80068437719E+02  0.00000000000E+00 0.  1.
</event>
<event>
 4    1  0.6629728E+001  0.4305202E+02  0.7546771E-02  0.1331473E+00
          2   -1    0    0  502    0  0.00000000000E+00  0.00000000000E+00  0.13225325181E+04  0.13225325181E+04  0.00000000000E+00 0.  1.
         -2   -1    0    0    0  501 -0.00000000000E+00 -0.00000000000E+00 -0.21225960929E+01  0.21225960929E+01  0.00000000000E+00 0. -1.
          1    1    1    2  502    0  0.28963328801E+02  0.31852820709E+02  0.27415126023E+03  0.27751106300E+03  0.00000000000E+00 0. -1.
         -1    1    1    2    0  501 -0.28963328801E+02 -0.31852820709E+02  0.10462586618E+04  0.10471440512E+04  0.00000000000E+00 0.  1.
</event>
<event>
 4    1  0.6629728E+001  0.3594485E+02  0.7546771E-02  0.1374040E+00
          2   -1    0    0  502    0  0.00000000000E+00  0.00000000000E+00  0.38161859560E+02  0.38161859560E+02  0.00000000000E+00 0. -1.
         -2   -1    0    0    0  501 -0.00000000000E+00 -0.00000000000E+00 -0.57576866667E+02  0.57576866667E+02  0.00000000000E+00 0.  1.
          1    1    1    2  502    0 -0.35877684752E+02 -0.21963637813E+01 -0.40432586827E+02  0.54100151151E+02  0.00000000000E+00 0.  1.
         -1    1    1    2    0  501  0.35877684752E+02  0.21963637813E+01  0.21017579720E+02  0.41638575076E+02  0.00000000000E+00 0. -1.
</event>
<event>
 4    1  0.6629728E+001  0.2623212E+02  0.7546771E-02  0.1455478E+00
          2   -1    0    0  502    0  0.00000000000E+00  0.00000000000E+00  0.78352968905E+03  0.78352968905E+03  0.00000000000E+00 0.  1.
         -2   -1    0    0    0  501 -0.00000000000E+00 -0.00000000000E+00 -0.14470298159E+01  0.14470298159E+01  0.00000000000E+00 0. -1.
          1    1    1    2  502    0 -0.25935265690E+02 -0.39352505162E+01  0.14496753568E+03  0.14732179270E+03  0.00000000000E+00 0. -1.
         -1    1    1    2    0  501  0.25935265690E+02  0.39352505162E+01  0.63711512355E+03  0.63765492616E+03  0.00000000000E+00 0.  1.
</event>
<event>
 4    1  0.6629728E+001  0.2387892E+02  0.7546771E-02  0.1481747E+00
          2   -1    0    0  502    0  0.00000000000E+00  0.00000000000E+00  0.80285553649E+03  0.80285553649E+03  0.00000000000E+00 0. -1.
         -2   -1    0    0    0  501 -0.00000000000E+00 -0.00000000000E+00 -0.71050168053E+00  0.71050168053E+00  0.00000000000E+00 0.  1.
          1    1    1    2  502    0 -0.23010670318E+02  0.63806038460E+01  0.40909023042E+03  0.40978655381E+03  0.00000000000E+00 0. -1.
         -1    1    1    2    0  501  0.23010670318E+02 -0.63806038460E+01  0.39305480438E+03  0.39377948436E+03  0.00000000000E+00 0.  1.
</event>
<event>
 4    1  0.6629728E+001  0.3543406E+02  0.7546771E-02  0.1377537E+00
          2   -1    0    0  502    0  0.00000000000E+00  0.00000000000E+00  0.36623450661E+03  0.36623450661E+03  0.00000000000E+00 0. -1.
         -2   -1    0    0    0  501 -0.00000000000E+00 -0.00000000000E+00 -0.34288220707E+01  0.34288220707E+01  0.00000000000E+00 0.  1.
          1    1    1    2  502    0 -0.14853562126E+02 -0.32170550233E+02  0.18361788112E+03  0.18700561189E+03  0.00000000000E+00 0. -1.
         -1    1    1    2    0  501  0.14853562126E+02  0.32170550233E+02  0.17918780341E+03  0.18265771679E+03  0.00000000000E+00 0.  1.
</event>
<event>
 4    1  0.6629728E+001  0.2131430E+02  0.7546771E-02  0.1514825E+00
          2   -1    0    0  502    0  0.00000000000E+00  0.00000000000E+00  0.97140563216E+01  0.97140563216E+01  0.00000000000E+00 0. -1.
         -2   -1    0    0    0  501 -0.00000000000E+00 -0.00000000000E+00 -0.47195212628E+02  0.47195212628E+02  0.00000000000E+00 0.  1.
          1    1    1    2  502    0 -0.54231839933E+01 -0.20612820707E+02 -0.21450319069E+02  0.30239303733E+02  0.00000000000E+00 0.  1.
         -1    1    1    2    0  501  0.54231839933E+01  0.20612820707E+02 -0.16030837238E+02  0.26669965217E+02  0.00000000000E+00 0. -1.
</event>
<event>
 4    1  0.6629728E+001  0.2907302E+02  0.7546771E-02  0.1427826E+00
          2   -1    0    0  502    0  0.00000000000E+00  0.00000000000E+00  0.27427054971E+03  0.27427054971E+03  0.00000000000E+00 0.  1.
         -2   -1    0    0    0  501 -0.00000000000E+00 -0.00000000000E+00 -0.31301609790E+01  0.31301609790E+01  0.00000000000E+00 0. -1.
          1    1    1    2  502    0  0.93639186570E+01  0.27523767326E+02  0.15281442832E+03  0.15555542499E+03  0.00000000000E+00 0.  1.
         -1    1    1    2    0  501 -0.93639186570E+01 -0.27523767326E+02  0.11832596041E+03  0.12184528570E+03  0.00000000000E+00 0. -1.
</event>
<event>
 4    1  0.6629728E+001  0.4453732E+02  0.7546771E-02  0.1323769E+00
          2   -1    0    0  502    0  0.00000000000E+00  0.00000000000E+00  0.17760968186E+03  0.17760968186E+03  0.00000000000E+00 0. -1.
         -2   -1    0    0    0  501 -0.00000000000E+00 -0.00000000000E+00 -0.12968797258E+02  0.12968797258E+02  0.00000000000E+00 0.  1.
          1    1    1    2  502    0  0.16717402391E+02 -0.41280759104E+02  0.46813962113E+02  0.64615165895E+02  0.00000000000E+00 0.  1.
         -1    1    1    2    0  501 -0.16717402391E+02  0.41280759104E+02  0.11782692249E+03  0.12596331322E+03  0.00000000000E+00 0. -1.
</event>
<event>
 4    1  0.6629728E+001  0.3298290E+02  0.7546771E-02  0.1395327E+00
          2   -1    0    0  502    0  0.00000000000E+00  0.00000000000E+00  0.16026186430E+03  0.16026186430E+03  0.00000000000E+00 0. -1.
         -2   -1    0    0    0  501 -0.00000000000E+00 -0.00000000000E+00 -0.71438253581E+01  0.71438253581E+01  0.00000000000E+00 0.  1.
          1    1    1    2  502    0  0.22193808602E+02 -0.24398907613E+02  0.57880657002E+02  0.66618633189E+02  0.00000000000E+00 0.  1.
         -1    1    1    2    0  501 -0.22193808602E+02  0.24398907613E+02  0.95237381944E+02  0.10078705647E+03  0.00000000000E+00 0. -1.
</event>
<event>
 4    1  0.6629728E+001  0.2126518E+02  0.7546771E-02  0.1515512E+00
          2   -1    0    0  502    0  0.00000000000E+00  0.00000000000E+00  0.15203751553E+02  0.15203751553E+02  0.00000000000E+00 0.  1.
         -2   -1    0    0    0  501 -0.00000000000E+00 -0.00000000000E+00 -0.31535881209E+02  0.31535881209E+02  0.00000000000E+00 0. -1.
          1    1    1    2  502    0  0.18067870110E+02 -0.11214280519E+02 -0.13737999082E+02  0.25316805420E+02  0.00000000000E+00 0. -1.
         -1    1    1    2    0  501 -0.18067870110E+02  0.11214280519E+02 -0.25941305735E+01  0.21422827342E+02  0.00000000000E+00 0.  1.
</event>
<event>
 4    1  0.6629728E+001  0.3367824E+02  0.7546771E-02  0.1390101E+00
          2   -1    0    0  502    0  0.00000000000E+00  0.00000000000E+00  0.19547554550E+01  0.19547554550E+01  0.00000000000E+00 0.  1.
         -2   -1    0    0    0  501 -0.00000000000E+00 -0.00000000000E+00 -0.58171359640E+03  0.58171359640E+03  0.00000000000E+00 0. -1.
          1    1    1    2  502    0 -0.33081893832E+02 -0.63097131436E+01 -0.30457566346E+03  0.30643198095E+03  0.00000000000E+00 0.  1.
         -1    1    1    2    0  501  0.33081893832E+02  0.63097131436E+01 -0.27518317749E+03  0.27723637090E+03  0.00000000000E+00 0. -1.
</event>
<event>
 4    1  0.6629728E+001  0.4356304E+02  0.7546771E-02  0.1328783E+00
          2   -1    0    0  502    0  0.00000000000E+00  0.00000000000E+00  0.23569422669E+03  0.23569422669E+03  0.00000000000E+00 0. -1.
         -2   -1    0    0    0  501 -0.00000000000E+00 -0.00000000000E+00 -0.80967578864E+01  0.80967578864E+01  0.00000000000E+00 0.  1.
          1    1    1    2  502    0 -0.19150455382E+01 -0.43520930784E+02  0.10470535236E+03  0.11340612695E+03  0.00000000000E+00 0.  1.
         -1    1    1    2    0  501  0.19150455382E+01  0.43520930784E+02  0.12289211644E+03  0.13038485763E+03  0.00000000000E+00 0. -1.
</event>
<event>
 4    1  0.6629728E+001  0.2236483E+02  0.7546771E-02  0.1500632E+00
          2   -1    0    0  502    0  0.00000000000E+00  0.00000000000E+00  0.74480779075E+03  0.74480779075E+03  0.00000000000E+00 0. -1.
         -2   -1    0    0    0  501 -0.00000000000E+00 -0.00000000000E+00 -0.93654419380E+00  0.93654419380E+00  0.00000000000E+00 0.  1.
          1    1    1    2  502    0 -0.20732231700E+02 -0.83880873816E+01  0.57027240412E+03  0.57071078520E+03  0.00000000000E+00 0. -1.
         -1    1    1    2    0  501  0.20732231700E+02  0.83880873816E+01  0.17359884243E+03  0.17503354974E+03  0.00000000000E+00 0.  1.
</event>
<event>
 4    1  0.6629728E+001  0.2046121E+02  0.7546771E-02  0.1527098E+00
          2   -1    0    0  502    0  0.00000000000E+00  0.00000000000E+00  0.43813827410E+03  0.43813827410E+03  0.00000000000E+00 0.  1.
         -2   -1    0    0    0  501 -0.00000000000E+00 -0.00000000000E+00 -0.96974473362E+00  0.96974473362E+00  0.00000000000E+00 0. -1.
          1    1    1    2  502    0  0.19018821712E+02 -0.75462387630E+01  0.19201762394E+03  0.19310471047E+03  0.00000000000E+00 0. -1.
         -1    1    1    2    0  501 -0.19018821712E+02  0.75462387630E+01  0.24515090542E+03  0.24600330837E+03  0.00000000000E+00 0.  1.
</event>
<event>
 4    1  0.6629728E+001  0.3243061E+02  0.7546771E-02  0.1399586E+00
          2   -1    0    0  502    0  0.00000000000E+00  0.00000000000E+00  0.14225629315E+04  0.14225629315E+04  0.00000000000E+00 0. -1.
         -2   -1    0    0    0  501 -0.00000000000E+00 -0.00000000000E+00 -0.29142244212E+01  0.29142244212E+01  0.00000000000E+00 0.  1.
          1    1    1    2  502    0 -0.27997059815E+02  0.16367923290E+02  0.13255507916E+04  0.13259474520E+04  0.00000000000E+00 0. -1.
         -1    1    1    2    0  501  0.27997059815E+02 -0.16367923290E+02  0.94097915455E+02  0.99529703929E+02  0.00000000000E+00 0.  1.
</event>
<event>
 4    1  0.6629728E+001  0.3711670E+02  0.7546771E-02  0.1366264E+00
          2   -1    0    0  502    0  0.00000000000E+00  0.00000000000E+00  0.16092875337E+03  0.16092875337E+03  0.00000000000E+00 0.  1.
         -2   -1    0    0    0  501 -0.00000000000E+00 -0.00000000000E+00 -0.93579723144E+01  0.93579723144E+01  0.00000000000E+00 0. -1.
          1    1    1    2  502    0  0.17523831821E+02  0.32719485470E+02  0.10063879491E+03  0.10726516886E+03  0.00000000000E+00 0. -1.
         -1    1    1    2    0  501 -0.17523831821E+02 -0.32719485470E+02  0.50931986153E+02  0.63021556825E+02  0.00000000000E+00 0.  1.
</event>
<event>
 4    1  0.6629728E+001  0.7422702E+02  0.7546771E-02  0.1217924E+00
          2   -1    0    0  502    0  0.00000000000E+00  0.00000000000E+00  0.68581418222E+03  0.68581418222E+03  0.00000000000E+00 0. -1.
         -2   -1    0    0    0  501 -0.00000000000E+00 -0.00000000000E+00 -0.50677272704E+02  0.50677272704E+02  0.00000000000E+00 0.  1.
          1    1    1    2  502    0  0.47670887378E+02  0.56895840179E+02 -0.20230037883E+02  0.76934417303E+02  0.00000000000E+00 0.  1.
         -1    1    1    2    0  501 -0.47670887378E+02 -0.56895840179E+02  0.65536694740E+03  0.65955703762E+03  0.00000000000E+00 0. -1.
</event>
<event>
 4    1  0.6629728E+001  0.6000695E+02  0.7546771E-02  0.1259809E+00
          2   -1    0    0  502    0  0.00000000000E+00  0.00000000000E+00  0.94046950897E+02  0.94046950897E+02  0.00000000000E+00 0.  1.
         -2   -1    0    0    0  501 -0.00000000000E+00 -0.00000000000E+00 -0.41790186084E+02  0.41790186084E+02  0.00000000000E+00 0. -1.
          1    1    1    2  502    0 -0.57489554690E+02 -0.17198409356E+02  0.45791137308E+02  0.75482861888E+02  0.00000000000E+00 0.  1.
         -1    1    1    2    0  501  0.57489554690E+02  0.17198409356E+02  0.64656275051E+01  0.60354275092E+02  0.00000000000E+00 0. -1.
</event>
<event>
 4    1  0.6629728E+001  0.2379932E+02  0.7546771E-02  0.1482698E+00
          2   -1    0    0  502    0  0.00000000000E+00  0.00000000000E+00  0.21684478549E+04  0.21684478549E+04  0.00000000000E+00 0.  1.
         -2   -1    0    0    0  501 -0.00000000000E+00 -0.00000000000E+00 -0.32498203506E+00  0.32498203506E+00  0.00000000000E+00 0. -1.
          1    1    1    2  502    0 -0.21390951979E+02  0.10432398821E+02  0.15644461137E+04  0.15646271282E+04  0.00000000000E+00 0. -1.
         -1    1    1    2    0  501  0.21390951979E+02 -0.10432398821E+02  0.60367675919E+03  0.60414570871E+03  0.00000000000E+00 0.  1.
</event>
<event>
 4    1  0.6629728E+001  0.2258420E+02  0.7546771E-02  0.1497786E+00
          2   -1    0    0  502    0  0.00000000000E+00  0.00000000000E+00  0.46224841046E+01  0.46224841046E+01  0.00000000000E+00 0.  1.
         -2   -1    0    0    0  501 -0.00000000000E+00 -0.00000000000E+00 -0.16026659872E+03  0.16026659872E+03  0.00000000000E+00 0. -1.
          1    1    1    2  502    0  0.94874420410E+00 -0.22564265266E+02 -0.12383766654E+03  0.12588015664E+03  0.00000000000E+00 0. -1.
         -1    1    1    2    0  501 -0.94874420410E+00  0.22564265266E+02 -0.31806448073E+02  0.39008926179E+02  0.00000000000E+00 0.  1.
</event>
<event>
 4    1  0.6629728E+001  0.2317304E+02  0.7546771E-02  0.1490337E+00
          2   -1    0    0  502    0  0.00000000000E+00  0.00000000000E+00  0.28927326679E+03  0.28927326679E+03  0.00000000000E+00 0.  1.
         -2   -1    0    0    0  501 -0.00000000000E+00 -0.00000000000E+00 -0.22838187049E+01  0.22838187049E+01  0.00000000000E+00 0. -1.
          1    1    1    2  502    0 -0.20036095725E+02  0.11642370279E+02  0.20656422059E+03  0.20785997004E+03  0.00000000000E+00 0.  1.
         -1    1    1    2    0  501  0.20036095725E+02 -0.11642370279E+02  0.80425227495E+02  0.83697115454E+02  0.00000000000E+00 0. -1.
</event>
<event>
 4    1  0.6629728E+001  0.6375481E+02  0.7546771E-02  0.1247582E+00
          2   -1    0    0  502    0  0.00000000000E+00  0.00000000000E+00  0.10308605554E+04  0.10308605554E+04  0.00000000000E+00 0. -1.
         -2   -1    0    0    0  501 -0.00000000000E+00 -0.00000000000E+00 -0.44939029157E+01  0.44939029157E+01  0.00000000000E+00 0.  1.
          1    1    1    2  502    0  0.51181093486E+01 -0.63549040963E+02  0.33192931360E+03  0.33799666400E+03  0.00000000000E+00 0.  1.
         -1    1    1    2    0  501 -0.51181093486E+01  0.63549040963E+02  0.69443733884E+03  0.69735779427E+03  0.00000000000E+00 0. -1.
</event>
<event>
 4    1  0.6629728E+001  0.2098366E+02  0.7546771E-02  0.1519498E+00
          2   -1    0    0  502    0  0.00000000000E+00  0.00000000000E+00  0.12586033509E+03  0.12586033509E+03  0.00000000000E+00 0.  1.
         -2   -1    0    0    0  501 -0.00000000000E+00 -0.00000000000E+00 -0.51849232572E+01  0.51849232572E+01  0.00000000000E+00 0. -1.
          1    1    1    2  502    0  0.31630691513E+01  0.20743888775E+02  0.22968653118E+02  0.31110656599E+02  0.00000000000E+00 0.  1.
         -1    1    1    2    0  501 -0.31630691513E+01 -0.20743888775E+02  0.97706758716E+02  0.99934601749E+02  0.00000000000E+00 0. -1.
</event>
<event>
 4    1  0.6629728E+001  0.2799761E+02  0.7546771E-02  0.1437836E+00
          2   -1    0    0  502    0  0.00000000000E+00  0.00000000000E+00  0.11175781587E+02  0.11175781587E+02  0.00000000000E+00 0. -1.
         -2   -1    0    0    0  501 -0.00000000000E+00 -0.00000000000E+00 -0.71282005561E+02  0.71282005561E+02  0.00000000000E+00 0.  1.
          1    1    1    2  502    0  0.16386225532E+02  0.22701498761E+02 -0.35272204004E+02  0.45033263356E+02  0.00000000000E+00 0. -1.
         -1    1    1    2    0  501 -0.16386225532E+02 -0.22701498761E+02 -0.24834019970E+02  0.37424523792E+02  0.00000000000E+00 0.  1.
</event>
<event>
 4    1  0.6629728E+001  0.2270437E+02  0.7546771E-02  0.1496244E+00
          2   -1    0    0  502    0  0.00000000000E+00  0.00000000000E+00  0.13218997209E+02  0.13218997209E+02  0.00000000000E+00 0. -1.
         -2   -1    0    0    0  501 -0.00000000000E+00 -0.00000000000E+00 -0.38996593890E+02  0.38996593890E+02  0.00000000000E+00 0.  1.
          1    1    1    2  502    0 -0.22502135685E+02  0.30236131399E+01 -0.12988508044E+02  0.26157019861E+02  0.00000000000E+00 0.  1.
         -1    1    1    2    0  501  0.22502135685E+02 -0.30236131399E+01 -0.12789088637E+02  0.26058571238E+02  0.00000000000E+00 0. -1.
</event>
<event>
 4    1  0.6629728E+001  0.2401464E+02  0.7546771E-02  0.1480136E+00
          2   -1    0    0  502    0  0.00000000000E+00  0.00000000000E+00  0.15539020593E+03  0.15539020593E+03  0.00000000000E+00 0.  1.
         -2   -1    0    0    0  501 -0.00000000000E+00 -0.00000000000E+00 -0.60368960917E+01  0.60368960917E+01  0.00000000000E+00 0. -1.
          1    1    1    2  502    0  0.24000998190E+02 -0.80928067474E+00  0.24580448586E+02  0.34364244528E+02  0.00000000000E+00 0. -1.
         -1    1    1    2    0  501 -0.24000998190E+02  0.80928067474E+00  0.12477286125E+03  0.12706285749E+03  0.00000000000E+00 0.  1.
</event>
<event>
 4    1  0.6629728E+001  0.3108141E+02  0.7546771E-02  0.1410426E+00
          2   -1    0    0  502    0  0.00000000000E+00  0.00000000000E+00  0.38525174833E+03  0.38525174833E+03  0.00000000000E+00 0. -1.
         -2   -1    0    0    0  501 -0.00000000000E+00 -0.00000000000E+00 -0.13074559799E+02  0.13074559799E+02  0.00000000000E+00 0.  1.
          1    1    1    2  502    0 -0.70001372672E+01  0.30282868161E+02  0.70401058417E+01  0.31868748266E+02  0.00000000000E+00 0.  1.
         -1    1    1    2    0  501  0.70001372672E+01 -0.30282868161E+02  0.36513708269E+03  0.36645755987E+03  0.00000000000E+00 0. -1.
</event>
<event>
 4    1  0.6629728E+001  0.5177744E+02  0.7546771E-02  0.1290645E+00
          2   -1    0    0  502    0  0.00000000000E+00  0.00000000000E+00  0.18525545061E+02  0.18525545061E+02  0.00000000000E+00 0. -1.
         -2   -1    0    0    0  501 -0.00000000000E+00 -0.00000000000E+00 -0.17194562764E+03  0.17194562764E+03  0.00000000000E+00 0.  1.
          1    1    1    2  502    0  0.36665199138E+02  0.36559076977E+02 -0.11461025797E+03  0.12576332601E+03  0.00000000000E+00 0.  1.
         -1    1    1    2    0  501 -0.36665199138E+02 -0.36559076977E+02 -0.38809824608E+02  0.64707846690E+02  0.00000000000E+00 0. -1.
</event>
<event>
 4    1  0.6629728E+001  0.2203810E+02  0.7546771E-02  0.1504943E+00
          2   -1    0    0  502    0  0.00000000000E+00  0.00000000000E+00  0.46682620014E+03  0.46682620014E+03  0.00000000000E+00 0. -1.
         -2   -1    0    0    0  501 -0.00000000000E+00 -0.00000000000E+00 -0.17968466228E+01  0.17968466228E+01  0.00000000000E+00 0.  1.
          1    1    1    2  502    0  0.12086287768E+02 -0.18428231295E+02  0.80483675130E+02  0.83446390114E+02  0.00000000000E+00 0.  1.
         -1    1    1    2    0  501 -0.12086287768E+02  0.18428231295E+02  0.38454567839E+03  0.38517665665E+03  0.00000000000E+00 0. -1.
</event>
<event>
 4    1  0.6629728E+001  0.2455229E+02  0.7546771E-02  0.1473875E+00
          2   -1    0    0  502    0  0.00000000000E+00  0.00000000000E+00  0.64636451535E+03  0.64636451535E+03  0.00000000000E+00 0.  1.
         -2   -1    0    0    0  501 -0.00000000000E+00 -0.00000000000E+00 -0.97564243510E+00  0.97564243510E+00  0.00000000000E+00 0. -1.
          1    1    1    2  502    0  0.15525868745E+02  0.19020045648E+02  0.39065970538E+03  0.39143047932E+03  0.00000000000E+00 0.  1.
         -1    1    1    2    0  501 -0.15525868745E+02 -0.19020045648E+02  0.25472916754E+03  0.25590967846E+03  0.00000000000E+00 0. -1.
</event>
<event>
 4    1  0.6629728E+001  0.2075914E+02  0.7546771E-02  0.1522732E+00
          2   -1    0    0  502    0  0.00000000000E+00  0.00000000000E+00  0.24378433660E+03  0.24378433660E+03  0.00000000000E+00 0. -1.
         -2   -1    0    0    0  501 -0.00000000000E+00 -0.00000000000E+00 -0.17980016905E+01  0.17980016905E+01  0.00000000000E+00 0.  1.
          1    1    1    2  502    0  0.41441732352E+01  0.20341286182E+02  0.13692891728E+03  0.13849357560E+03  0.00000000000E+00 0. -1.
         -1    1    1    2    0  501 -0.41441732352E+01 -0.20341286182E+02  0.10505741763E+03  0.10708876268E+03  0.00000000000E+00 0.  1.
</event>
<event>
 4    1  0.6629728E+001  0.2002580E+02  0.7546771E-02  0.1533642E+00
          2   -1    0    0  502    0  0.00000000000E+00  0.00000000000E+00  0.60403337475E+03  0.60403337475E+03  0.00000000000E+00 0.  1.
         -2   -1    0    0    0  501 -0.00000000000E+00 -0.00000000000E+00 -0.70097342601E+00  0.70097342601E+00  0.00000000000E+00 0. -1.
          1    1    1    2  502    0  0.58233541732E+01  0.19160408539E+02  0.37117986653E+03  0.37171968744E+03  0.00000000000E+00 0. -1.
         -1    1    1    2    0  501 -0.58233541732E+01 -0.19160408539E+02  0.23215253480E+03  0.23301466074E+03  0.00000000000E+00 0.  1.
</event>
<event>
 4    1  0.6629728E+001  0.2284291E+02  0.7546771E-02  0.1494480E+00
          2   -1    0    0  502    0  0.00000000000E+00  0.00000000000E+00  0.61660311602E+02  0.61660311602E+02  0.00000000000E+00 0. -1.
         -2   -1    0    0    0  501 -0.00000000000E+00 -0.00000000000E+00 -0.90742573588E+01  0.90742573588E+01  0.00000000000E+00 0.  1.
          1    1    1    2  502    0 -0.18178332073E+02 -0.13832807251E+02  0.17109749644E+02  0.28540179507E+02  0.00000000000E+00 0.  1.
         -1    1    1    2    0  501  0.18178332073E+02  0.13832807251E+02  0.35476304599E+02  0.42194389454E+02  0.00000000000E+00 0. -1.
</event>
<event>
 4    1  0.6629728E+001  0.3523165E+02  0.7546771E-02  0.1378942E+00
          2   -1    0    0  502    0  0.00000000000E+00  0.00000000000E+00  0.32199618514E+03  0.32199618514E+03  0.00000000000E+00 0. -1.
         -2   -1    0    0    0  501 -0.00000000000E+00 -0.00000000000E+00 -0.44151969157E+01  0.44151969157E+01  0.00000000000E+00 0.  1.
          1    1    1    2  502    0 -0.35030574379E+02  0.37587202096E+01  0.21692876672E+03  0.21977115132E+03  0.00000000000E+00 0.  1.
         -1    1    1    2    0  501  0.35030574379E+02 -0.37587202096E+01  0.10065222150E+03  0.10664023074E+03  0.00000000000E+00 0. -1.
</event>
<event>
 4    1  0.6629728E+001  0.3394268E+02  0.7546771E-02  0.1388153E+00
          2   -1    0    0  502    0  0.00000000000E+00  0.00000000000E+00  0.13029643080E+02  0.13029643080E+02  0.00000000000E+00 0. -1.
         -2   -1    0    0    0  501 -0.00000000000E+00 -0.00000000000E+00 -0.13809166244E+03  0.13809166244E+03  0.00000000000E+00 0.  1.
          1    1    1    2  502    0  0.18816471222E+01 -0.33890487477E+02 -0.10784768433E+03  0.11306294156E+03  0.00000000000E+00 0.  1.
         -1    1    1    2    0  501 -0.18816471222E+01  0.33890487477E+02 -0.17214335029E+02  0.38058363967E+02  0.00000000000E+00 0. -1.
</event>
<event>
 4    1  0.6629728E+001  0.2457444E+02  0.7546771E-02  0.1473621E+00
          2   -1    0    0  502    0  0.00000000000E+00  0.00000000000E+00  0.81338623279E+03  0.81338623279E+03  0.00000000000E+00 0. -1.
         -2   -1    0    0    0  501 -0.00000000000E+00 -0.00000000000E+00 -0.89912825000E+00  0.89912825000E+00  0.00000000000E+00 0.  1.
          1    1    1    2  502    0  0.24418709281E+02  0.27621629228E+01  0.23628898431E+03  0.23756343788E+03  0.00000000000E+00 0.  1.
         -1    1    1    2    0  501 -0.24418709281E+02 -0.27621629228E+01  0.57619812022E+03  0.57672192316E+03  0.00000000000E+00 0. -1.
</event>
<event>
 4    1  0.6629728E+001  0.2066627E+02  0.7546771E-02  0.1524083E+00
          2   -1    0    0  502    0  0.00000000000E+00  0.00000000000E+00  0.32201276708E+00  0.32201276708E+00  0.00000000000E+00 0. -1.
         -2   -1    0    0    0  501 -0.00000000000E+00 -0.00000000000E+00 -0.16896194705E+04  0.16896194705E+04  0.00000000000E+00 0.  1.
          1    1    1    2  502    0 -0.57731753821E+01 -0.19843512202E+02 -0.45283932617E+03  0.45331065491E+03  0.00000000000E+00 0. -1.
         -1    1    1    2    0  501  0.57731753821E+01  0.19843512202E+02 -0.12364581316E+04  0.12366308284E+04  0.00000000000E+00 0.  1.
</event>
<event>
 4    1  0.6629728E+001  0.2520452E+02  0.7546771E-02  0.1466528E+00
          2   -1    0    0  502    0  0.00000000000E+00  0.00000000000E+00  0.12598408867E+04  0.12598408867E+04  0.00000000000E+00 0. -1.
         -2   -1    0    0    0  501 -0.00000000000E+00 -0.00000000000E+00 -0.69630775006E+00  0.69630775006E+00  0.00000000000E+00 0.  1.
          1    1    1    2  502    0 -0.23462712035E+02 -0.92070180570E+01  0.29855779399E+03  0.29961979973E+03  0.00000000000E+00 0.  1.
         -1    1    1    2    0  501  0.23462712035E+02  0.92070180570E+01  0.96058678495E+03  0.96091739471E+03  0.00000000000E+00 0. -1.
</event>
<event>
 4    1  0.6629728E+001  0.3855091E+02  0.7546771E-02  0.1357193E+00
          2   -1    0    0  502    0  0.00000000000E+00  0.00000000000E+00  0.85851093069E+03  0.85851093069E+03  0.00000000000E+00 0. -1.
         -2   -1    0    0    0  501 -0.00000000000E+00 -0.00000000000E+00 -0.18095682921E+01  0.18095682921E+01  0.00000000000E+00 0.  1.
          1    1    1    2  502    0 -0.33884239120E+02  0.18385609329E+02  0.33877772013E+03  0.34096409774E+03  0.00000000000E+00 0.  1.
         -1    1    1    2    0  501  0.33884239120E+02 -0.18385609329E+02  0.51792364227E+03  0.51935640125E+03  0.00000000000E+00 0. -1.
</event>
<event>
 4    1  0.6629728E+001  0.3646882E+02  0.7546771E-02  0.1370521E+00
          2   -1    0    0  502    0  0.00000000000E+00  0.00000000000E+00  0.26176295763E+01  0.26176295763E+01  0.00000000000E+00 0.  1.
         -2   -1    0    0    0  501 -0.00000000000E+00 -0.00000000000E+00 -0.50845383557E+03  0.50845383557E+03  0.00000000000E+00 0. -1.
          1    1    1    2  502    0  0.36183214736E+02 -0.45551779294E+01 -0.24602267289E+03  0.24871093713E+03  0.00000000000E+00 0.  1.
         -1    1    1    2    0  501 -0.36183214736E+02  0.45551779294E+01 -0.25981353311E+03  0.26236052802E+03  0.00000000000E+00 0. -1.
</event>
<event>
 4    1  0.6629728E+001  0.4945669E+02  0.7546771E-02  0.1300545E+00
          2   -1    0    0  502    0  0.00000000000E+00  0.00000000000E+00  0.75335533859E+03  0.75335533859E+03  0.00000000000E+00 0.  1.
         -2   -1    0    0    0  501 -0.00000000000E+00 -0.00000000000E+00 -0.33298515965E+01  0.33298515965E+01  0.00000000000E+00 0. -1.
          1    1    1    2  502    0 -0.35372160767E+01  0.49330036461E+02  0.43477815430E+03  0.43758200129E+03  0.00000000000E+00 0.  1.
         -1    1    1    2    0  501  0.35372160767E+01 -0.49330036461E+02  0.31524733270E+03  0.31910318890E+03  0.00000000000E+00 0. -1.
</event>
<event>
 4    1  0.6629728E+001  0.2719418E+02  0.7546771E-02  0.1445667E+00
          2   -1    0    0  502    0  0.00000000000E+00  0.00000000000E+00  0.27984137062E+03  0.27984137062E+03  0.00000000000E+00 0. -1.
         -2   -1    0    0    0  501 -0.00000000000E+00 -0.00000000000E+00 -0.31525183705E+01  0.31525183705E+01  0.00000000000E+00 0.  1.
          1    1    1    2  502    0  0.24906188245E+02  0.10918109373E+02  0.81439943076E+02  0.85860279835E+02  0.00000000000E+00 0.  1.
         -1    1    1    2    0  501 -0.24906188245E+02 -0.10918109373E+02  0.19524890917E+03  0.19713360915E+03  0.00000000000E+00 0. -1.
</event>
<event>
 4    1  0.6629728E+001  0.2015349E+02  0.7546771E-02  0.1531702E+00
          2   -1    0    0  502    0  0.00000000000E+00  0.00000000000E+00  0.14091623732E+04  0.14091623732E+04  0.00000000000E+00 0.  1.
         -2   -1    0    0    0  501 -0.00000000000E+00 -0.00000000000E+00 -0.29356779421E+00  0.29356779421E+00  0.00000000000E+00 0. -1.
          1    1    1    2  502    0  0.84832977597E+01  0.18281047481E+02  0.60940819581E+03  0.60974134857E+03  0.00000000000E+00 0.  1.
         -1    1    1    2    0  501 -0.84832977597E+01 -0.18281047481E+02  0.79946060961E+03  0.79971459244E+03  0.00000000000E+00 0. -1.
</event>
<event>
 4    1  0.6629728E+001  0.2433585E+02  0.7546771E-02  0.1476372E+00
          2   -1    0    0  502    0  0.00000000000E+00  0.00000000000E+00  0.12036097334E+02  0.12036097334E+02  0.00000000000E+00 0. -1.
         -2   -1    0    0    0  501 -0.00000000000E+00 -0.00000000000E+00 -0.55343256179E+02  0.55343256179E+02  0.00000000000E+00 0.  1.
          1    1    1    2  502    0  0.23170075242E+02  0.74418678358E+01 -0.10433549713E+02  0.26478155964E+02  0.00000000000E+00 0. -1.
         -1    1    1    2    0  501 -0.23170075242E+02 -0.74418678358E+01 -0.32873609132E+02  0.40901197549E+02  0.00000000000E+00 0.  1.
</event>
<event>
 4    1  0.6629728E+001  0.2137611E+02  0.7546771E-02  0.1513962E+00
          2   -1    0    0  502    0  0.00000000000E+00  0.00000000000E+00  0.10030060622E+01  0.10030060622E+01  0.00000000000E+00 0.  1.
         -2   -1    0    0    0  501 -0.00000000000E+00 -0.00000000000E+00 -0.80714330363E+03  0.80714330363E+03  0.00000000000E+00 0. -1.
          1    1    1    2  502    0 -0.54621234430E+01  0.20666477015E+02 -0.13638828242E+03  0.13805325656E+03  0.00000000000E+00 0.  1.
         -1    1    1    2    0  501  0.54621234430E+01 -0.20666477015E+02 -0.66975201514E+03  0.67009305313E+03  0.00000000000E+00 0. -1.
</event>
<event>
 4    1  0.6629728E+001  0.2279328E+02  0.7546771E-02  0.1495110E+00
          2   -1    0    0  502    0  0.00000000000E+00  0.00000000000E+00  0.43085264660E+01  0.43085264660E+01  0.00000000000E+00 0. -1.
         -2   -1    0    0    0  501 -0.00000000000E+00 -0.00000000000E+00 -0.23468060369E+03  0.23468060369E+03  0.00000000000E+00 0.  1.
          1    1    1    2  502    0 -0.18106478362E+02 -0.13845178933E+02 -0.19850588921E+03  0.19981021392E+03  0.00000000000E+00 0.  1.
         -1    1    1    2    0  501  0.18106478362E+02  0.13845178933E+02 -0.31866188013E+02  0.39178916228E+02  0.00000000000E+00 0. -1.
</event>
<event>
 4    1  0.6629728E+001  0.3009890E+02  0.7546771E-02  0.1418739E+00
          2   -1    0    0  502    0  0.00000000000E+00  0.00000000000E+00  0.17940033418E+03  0.17940033418E+03  0.00000000000E+00 0.  1.
         -2   -1    0    0    0  501 -0.00000000000E+00 -0.00000000000E+00 -0.60029913863E+01  0.60029913863E+01  0.00000000000E+00 0. -1.
          1    1    1    2  502    0  0.29500611840E+02 -0.59714085864E+01  0.49759806610E+02  0.58154812125E+02  0.00000000000E+00 0. -1.
         -1    1    1    2    0  501 -0.29500611840E+02  0.59714085864E+01  0.12363753619E+03  0.12724851345E+03  0.00000000000E+00 0.  1.
</event>
<event>
 4    1  0.6629728E+001  0.3254087E+02  0.7546771E-02  0.1398728E+00
          2   -1    0    0  502    0  0.00000000000E+00  0.00000000000E+00  0.10380894796E+02  0.10380894796E+02  0.00000000000E+00 0. -1.
         -2   -1    0    0    0  501 -0.00000000000E+00 -0.00000000000E+00 -0.13897905984E+03  0.13897905984E+03  0.00000000000E+00 0.  1.
          1    1    1    2  502    0 -0.32495772139E+02 -0.17126817093E+01 -0.25780077774E+02  0.41515309172E+02  0.00000000000E+00 0. -1.
         -1    1    1    2    0  501  0.32495772139E+02  0.17126817093E+01 -0.10281808726E+03  0.10784464546E+03  0.00000000000E+00 0.  1.
</event>
<event>
 4    1  0.6629728E+001  0.2534241E+02  0.7546771E-02  0.1465009E+00
          2   -1    0    0  502    0  0.00000000000E+00  0.00000000000E+00  0.19764148925E+04  0.19764148925E+04  0.00000000000E+00 0.  1.
         -2   -1    0    0    0  501 -0.00000000000E+00 -0.00000000000E+00 -0.53975799927E+00  0.53975799927E+00  0.00000000000E+00 0. -1.
          1    1    1    2  502    0 -0.20371330826E+02  0.15074700854E+02  0.36435851130E+03  0.36523877461E+03  0.00000000000E+00 0. -1.
         -1    1    1    2    0  501  0.20371330826E+02 -0.15074700854E+02  0.16115166232E+04  0.16117158759E+04  0.00000000000E+00 0.  1.
</event>
<event>
 4    1  0.6629728E+001  0.2489242E+02  0.7546771E-02  0.1470011E+00
          2   -1    0    0  502    0  0.00000000000E+00  0.00000000000E+00  0.14029675908E+04  0.14029675908E+04  0.00000000000E+00 0.  1.
         -2   -1    0    0    0  501 -0.00000000000E+00 -0.00000000000E+00 -0.26666752876E+01  0.26666752876E+01  0.00000000000E+00 0. -1.
          1    1    1    2  502    0 -0.90592650702E+01 -0.23185386147E+02  0.13421340494E+04  0.13423648681E+04  0.00000000000E+00 0.  1.
         -1    1    1    2    0  501  0.90592650702E+01  0.23185386147E+02  0.58166866074E+02  0.63269398000E+02  0.00000000000E+00 0. -1.
</event>
<event>
 4    1  0.6629728E+001  0.2593963E+02  0.7546771E-02  0.1458561E+00
          2   -1    0    0  502    0  0.00000000000E+00  0.00000000000E+00  0.77502787255E+02  0.77502787255E+02  0.00000000000E+00 0. -1.
         -2   -1    0    0    0  501 -0.00000000000E+00 -0.00000000000E+00 -0.86819998431E+01  0.86819998431E+01  0.00000000000E+00 0.  1.
          1    1    1    2  502    0  0.24022647202E+02  0.97865692487E+01  0.34209181135E+02  0.42931720093E+02  0.00000000000E+00 0. -1.
         -1    1    1    2    0  501 -0.24022647202E+02 -0.97865692487E+01  0.34611606277E+02  0.43253067005E+02  0.00000000000E+00 0.  1.
</event>
<event>
 4    1  0.6629728E+001  0.2137648E+02  0.7546771E-02  0.1513957E+00
          2   -1    0    0  502    0  0.00000000000E+00  0.00000000000E+00  0.47885486969E+01  0.47885486969E+01  0.00000000000E+00 0. -1.
         -2   -1    0    0    0  501 -0.00000000000E+00 -0.00000000000E+00 -0.10445896112E+03  0.10445896112E+03  0.00000000000E+00 0.  1.
          1    1    1    2  502    0  0.10975626105E+02  0.18343656393E+02 -0.65897718639E+02  0.69278159763E+02  0.00000000000E+00 0.  1.
         -1    1    1    2    0  501 -0.10975626105E+02 -0.18343656393E+02 -0.33772693780E+02  0.39969350050E+02  0.00000000000E+00 0. -1.
</event>
<event>
 4    1  0.6629728E+001  0.2054463E+02  0.7546771E-02  0.1525867E+00
          2   -1    0    0  502    0  0.00000000000E+00  0.00000000000E+00  0.26794599660E+01  0.26794599660E+01  0.00000000000E+00 0.  1.
         -2   -1    0    0    0  501 -0.00000000000E+00 -0.00000000000E+00 -0.18280508365E+03  0.18280508365E+03  0.00000000000E+00 0. -1.
          1    1    1    2  502    0 -0.19788982617E+02 -0.55206834357E+01 -0.55574388728E+02  0.59250269714E+02  0.00000000000E+00 0.  1.
         -1    1    1    2    0  501  0.19788982617E+02  0.55206834357E+01 -0.12455123495E+03  0.12623427390E+03  0.00000000000E+00 0. -1.
</event>
<event>
 4    1  0.6629728E+001  0.2475542E+02  0.7546771E-02  0.1471558E+00
          2   -1    0    0  502    0  0.00000000000E+00  0.00000000000E+00  0.22431493751E+03  0.22431493751E+03  0.00000000000E+00 0.  1.
         -2   -1    0    0    0  501 -0.00000000000E+00 -0.00000000000E+00 -0.25389966285E+02  0.25389966285E+02  0.00000000000E+00 0. -1.
          1    1    1    2  502    0 -0.24755250424E+02  0.90379387107E-01  0.21740662978E+03  0.21881150167E+03  0.00000000000E+00 0.  1.
         -1    1    1    2    0  501  0.24755250424E+02 -0.90379387107E-01 -0.18481658552E+02  0.30893402125E+02  0.00000000000E+00 0. -1.
</event>
<event>
 4    1  0.6629728E+001  0.2004173E+02  0.7546771E-02  0.1533399E+00
          2   -1    0    0  502    0  0.00000000000E+00  0.00000000000E+00  0.92744222175E+01  0.92744222175E+01  0.00000000000E+00 0.  1.
         -2   -1    0    0    0  501 -0.00000000000E+00 -0.00000000000E+00 -0.50266749268E+02  0.50266749268E+02  0.00000000000E+00 0. -1.
          1    1    1    2  502    0  0.13681967059E+02 -0.14644952691E+02 -0.31571701814E+02  0.37395764699E+02  0.00000000000E+00 0.  1.
         -1    1    1    2    0  501 -0.13681967059E+02  0.14644952691E+02 -0.94206252363E+01  0.22145406787E+02  0.00000000000E+00 0. -1.
</event>
<event>
 4    1  0.6629728E+001  0.3013528E+02  0.7546771E-02  0.1418424E+00
          2   -1    0    0  502    0  0.00000000000E+00  0.00000000000E+00  0.62925228368E+02  0.62925228368E+02  0.00000000000E+00 0. -1.
         -2   -1    0    0    0  501 -0.00000000000E+00 -0.00000000000E+00 -0.16319985585E+02  0.16319985585E+02  0.00000000000E+00 0.  1.
          1    1    1    2  502    0  0.26647140753E+02  0.14073559283E+02  0.98258571138E+01  0.31696729314E+02  0.00000000000E+00 0.  1.
         -1    1    1    2    0  501 -0.26647140753E+02 -0.14073559283E+02  0.36779385670E+02  0.47548484639E+02  0.00000000000E+00 0. -1.
</event>
<event>
 4    1  0.6629728E+001  0.2914430E+02  0.7546771E-02  0.1427181E+00
          2   -1    0    0  502    0  0.00000000000E+00  0.00000000000E+00  0.56940948074E+02  0.56940948074E+02  0.00000000000E+00 0. -1.
         -2   -1    0    0    0  501 -0.00000000000E+00 -0.00000000000E+00 -0.15543656823E+02  0.15543656823E+02  0.00000000000E+00 0.  1.
          1    1    1    2  502    0 -0.28557953369E+02  0.58166775295E+01  0.13421853406E+02  0.32086392552E+02  0.00000000000E+00 0.  1.
         -1    1    1    2    0  501  0.28557953369E+02 -0.58166775295E+01  0.27975437845E+02  0.40398212346E+02  0.00000000000E+00 0. -1.
</event>
<event>
 4    1  0.6629728E+001  0.2125631E+02  0.7546771E-02  0.1515637E+00
          2   -1    0    0  502    0  0.00000000000E+00  0.00000000000E+00  0.18313184794E+04  0.18313184794E+04  0.00000000000E+00 0.  1.
         -2   -1    0    0    0  501 -0.00000000000E+00 -0.00000000000E+00 -0.41565351768E+00  0.41565351768E+00  0.00000000000E+00 0. -1.
          1    1    1    2  502    0  0.16026656652E+02 -0.13963419913E+02  0.14993253145E+04  0.14994759850E+04  0.00000000000E+00 0.  1.
         -1    1    1    2    0  501 -0.16026656652E+02  0.13963419913E+02  0.33157751134E+03  0.33225814790E+03  0.00000000000E+00 0. -1.
</event>
<event>
 4    1  0.6629728E+001  0.2086511E+02  0.7546771E-02  0.1521199E+00
          2   -1    0    0  502    0  0.00000000000E+00  0.00000000000E+00  0.17019620296E+03  0.17019620296E+03  0.00000000000E+00 0. -1.
         -2   -1    0    0    0  501 -0.00000000000E+00 -0.00000000000E+00 -0.28717499716E+01  0.28717499716E+01  0.00000000000E+00 0.  1.
          1    1    1    2  502    0  0.41528644213E+01  0.20447654482E+02  0.55057228923E+02  0.58878275395E+02  0.00000000000E+00 0.  1.
         -1    1    1    2    0  501 -0.41528644213E+01 -0.20447654482E+02  0.11226722406E+03  0.11418967754E+03  0.00000000000E+00 0. -1.
</event>
<event>
 4    1  0.6629728E+001  0.3129294E+02  0.7546771E-02  0.1408684E+00
          2   -1    0    0  502    0  0.00000000000E+00  0.00000000000E+00  0.80847116405E+03  0.80847116405E+03  0.00000000000E+00 0.  1.
         -2   -1    0    0    0  501 -0.00000000000E+00 -0.00000000000E+00 -0.12752672225E+01  0.12752672225E+01  0.00000000000E+00 0. -1.
          1    1    1    2  502    0  0.26844993631E+02  0.16080880641E+02  0.31287473401E+03  0.31443576066E+03  0.00000000000E+00 0. -1.
         -1    1    1    2    0  501 -0.26844993631E+02 -0.16080880641E+02  0.49432116282E+03  0.49531067061E+03  0.00000000000E+00 0.  1.
</event>
<event>
 4    1  0.6629728E+001  0.3022181E+02  0.7546771E-02  0.1417678E+00
          2   -1    0    0  502    0  0.00000000000E+00  0.00000000000E+00  0.10151704587E+03  0.10151704587E+03  0.00000000000E+00 0.  1.
         -2   -1    0    0    0  501 -0.00000000000E+00 -0.00000000000E+00 -0.14717272594E+02  0.14717272594E+02  0.00000000000E+00 0. -1.
          1    1    1    2  502    0 -0.48863295829E+01  0.29824173595E+02  0.79632180124E+02  0.85174184227E+02  0.00000000000E+00 0.  1.
         -1    1    1    2    0  501  0.48863295829E+01 -0.29824173595E+02  0.71675931555E+01  0.31060134241E+02  0.00000000000E+00 0. -1.
</event>
<event>
 4    1  0.6629728E+001  0.7862628E+02  0.7546771E-02  0.1207073E+00
          2   -1    0    0  502    0  0.00000000000E+00  0.00000000000E+00  0.51180084561E+02  0.51180084561E+02  0.00000000000E+00 0. -1.
         -2   -1    0    0    0  501 -0.00000000000E+00 -0.00000000000E+00 -0.14200889408E+03  0.14200889408E+03  0.00000000000E+00 0.  1.
          1    1    1    2  502    0  0.40286762928E+02 -0.67520877256E+02 -0.82751971249E+02  0.11414894164E+03  0.00000000000E+00 0.  1.
         -1    1    1    2    0  501 -0.40286762928E+02  0.67520877256E+02 -0.80768382727E+01  0.79040037001E+02  0.00000000000E+00 0. -1.
</event>
<event>
 4    1  0.6629728E+001  0.2565273E+02  0.7546771E-02  0.1461632E+00
          2   -1    0    0  502    0  0.00000000000E+00  0.00000000000E+00  0.18259753400E+03  0.18259753400E+03  0.00000000000E+00 0. -1.
         -2   -1    0    0    0  501 -0.00000000000E+00 -0.00000000000E+00 -0.86838379420E+01  0.86838379420E+01  0.00000000000E+00 0.  1.
          1    1    1    2  502    0 -0.20269578631E+02  0.15722809027E+02  0.13806533594E+02  0.29132162835E+02  0.00000000000E+00 0.  1.
         -1    1    1    2    0  501  0.20269578631E+02 -0.15722809027E+02  0.16010716247E+03  0.16214920911E+03  0.00000000000E+00 0. -1.
</event>
<event>
 4    1  0.6629728E+001  0.3298725E+02  0.7546771E-02  0.1395294E+00
          2   -1    0    0  502    0  0.00000000000E+00  0.00000000000E+00  0.55200685324E+02  0.55200685324E+02  0.00000000000E+00 0.  1.
         -2   -1    0    0    0  501 -0.00000000000E+00 -0.00000000000E+00 -0.19988016843E+02  0.19988016843E+02  0.00000000000E+00 0. -1.
          1    1    1    2  502    0 -0.32632398794E+02 -0.48254778280E+01  0.22017922798E+02  0.39660403574E+02  0.00000000000E+00 0. -1.
         -1    1    1    2    0  501  0.32632398794E+02  0.48254778280E+01  0.13194745683E+02  0.35528298593E+02  0.00000000000E+00 0.  1.
</event>
<event>
 4    1  0.6629728E+001  0.3366755E+02  0.7546771E-02  0.1390181E+00
          2   -1    0    0  502    0  0.00000000000E+00  0.00000000000E+00  0.36378976910E+02  0.36378976910E+02  0.00000000000E+00 0. -1.
         -2   -1    0    0    0  501 -0.00000000000E+00 -0.00000000000E+00 -0.61065721882E+02  0.61065721882E+02  0.00000000000E+00 0.  1.
          1    1    1    2  502    0  0.33628582646E+02  0.16193900376E+01  0.21753895085E+02  0.40084110895E+02  0.00000000000E+00 0. -1.
         -1    1    1    2    0  501 -0.33628582646E+02 -0.16193900376E+01 -0.46440640057E+02  0.57360587896E+02  0.00000000000E+00 0.  1.
</event>
<event>
 4    1  0.6629728E+001  0.2134755E+02  0.7546771E-02  0.1514360E+00
          2   -1    0    0  502    0  0.00000000000E+00  0.00000000000E+00  0.43336642499E+01  0.43336642499E+01  0.00000000000E+00 0. -1.
         -2   -1    0    0    0  501 -0.00000000000E+00 -0.00000000000E+00 -0.18312831249E+03  0.18312831249E+03  0.00000000000E+00 0.  1.
          1    1    1    2  502    0  0.89665375517E+01  0.19373153111E+02 -0.15055783728E+03  0.15206373737E+03  0.00000000000E+00 0.  1.
         -1    1    1    2    0  501 -0.89665375517E+01 -0.19373153111E+02 -0.28236810957E+02  0.35398239365E+02  0.00000000000E+00 0. -1.
</event>
<event>
 4    1  0.6629728E+001  0.3461757E+02  0.7546771E-02  0.1383272E+00
          2   -1    0    0  502    0  0.00000000000E+00  0.00000000000E+00  0.11149476731E+02  0.11149476731E+02  0.00000000000E+00 0. -1.
         -2   -1    0    0    0  501 -0.00000000000E+00 -0.00000000000E+00 -0.10749844904E+03  0.10749844904E+03  0.00000000000E+00 0.  1.
          1    1    1    2  502    0  0.33833834155E+02  0.73244462011E+01 -0.47456399457E+02  0.58740834989E+02  0.00000000000E+00 0.  1.
         -1    1    1    2    0  501 -0.33833834155E+02 -0.73244462011E+01 -0.48892572848E+02  0.59907090778E+02  0.00000000000E+00 0. -1.
</event>
<event>
 4    1  0.6629728E+001  0.4323726E+02  0.7546771E-02  0.1330493E+00
          2   -1    0    0  502    0  0.00000000000E+00  0.00000000000E+00  0.28554653232E+02  0.28554653232E+02  0.00000000000E+00 0.  1.
         -2   -1    0    0    0  501 -0.00000000000E+00 -0.00000000000E+00 -0.70169530280E+02  0.70169530280E+02  0.00000000000E+00 0. -1.
          1    1    1    2  502    0  0.24280950360E+02 -0.35775641416E+02 -0.33582589455E+02  0.54747158681E+02  0.00000000000E+00 0. -1.
         -1    1    1    2    0  501 -0.24280950360E+02  0.35775641416E+02 -0.80322875923E+01  0.43977024832E+02  0.00000000000E+00 0.  1.
</event>
<event>
 4    1  0.6629728E+001  0.2445645E+02  0.7546771E-02  0.1474977E+00
          2   -1    0    0  502    0  0.00000000000E+00  0.00000000000E+00  0.33583339544E+03  0.33583339544E+03  0.00000000000E+00 0.  1.
         -2   -1    0    0    0  501 -0.00000000000E+00 -0.00000000000E+00 -0.18667246890E+01  0.18667246890E+01  0.00000000000E+00 0. -1.
          1    1    1    2  502    0 -0.23913184832E+02  0.51261676202E+01  0.20316792504E+03  0.20463461039E+03  0.00000000000E+00 0. -1.
         -1    1    1    2    0  501  0.23913184832E+02 -0.51261676202E+01  0.13079874571E+03  0.13306550974E+03  0.00000000000E+00 0.  1.
</event>
<event>
 4    1  0.6629728E+001  0.3601205E+02  0.7546771E-02  0.1373584E+00
          2   -1    0    0  502    0  0.00000000000E+00  0.00000000000E+00  0.77881443241E+03  0.77881443241E+03  0.00000000000E+00 0. -1.
         -2   -1    0    0    0  501 -0.00000000000E+00 -0.00000000000E+00 -0.47287380054E+01  0.47287380054E+01  0.00000000000E+00 0.  1.
          1    1    1    2  502    0  0.27642130626E+02 -0.23082035202E+02  0.71707087648E+02  0.80241972518E+02  0.00000000000E+00 0.  1.
         -1    1    1    2    0  501 -0.27642130626E+02  0.23082035202E+02  0.70237860675E+03  0.70330119790E+03  0.00000000000E+00 0. -1.
</event>
<event>
 4    1  0.6629728E+001  0.2173420E+02  0.7546771E-02  0.1509035E+00
          2   -1    0    0  502    0  0.00000000000E+00  0.00000000000E+00  0.41066743559E+03  0.41066743559E+03  0.00000000000E+00 0.  1.
         -2   -1    0    0    0  501 -0.00000000000E+00 -0.00000000000E+00 -0.12120298588E+01  0.12120298588E+01  0.00000000000E+00 0. -1.
          1    1    1    2  502    0  0.13844072404E+02  0.16754618492E+02  0.25121786151E+03  0.25215627996E+03  0.00000000000E+00 0.  1.
         -1    1    1    2    0  501 -0.13844072404E+02 -0.16754618492E+02  0.15823754422E+03  0.15972318549E+03  0.00000000000E+00 0. -1.
</event>
<event>
 4    1  0.6629728E+001  0.4616585E+02  0.7546771E-02  0.1315711E+00
          2   -1    0    0  502    0  0.00000000000E+00  0.00000000000E+00  0.17818752542E+04  0.17818752542E+04  0.00000000000E+00 0. -1.
         -2   -1    0    0    0  501 -0.00000000000E+00 -0.00000000000E+00 -0.12019510085E+01  0.12019510085E+01  0.00000000000E+00 0.  1.
          1    1    1    2  502    0 -0.83439452439E+01 -0.45405552833E+02  0.82808778817E+03  0.82937366161E+03  0.00000000000E+00 0.  1.
         -1    1    1    2    0  501  0.83439452439E+01  0.45405552833E+02  0.95258551503E+03  0.95370354361E+03  0.00000000000E+00 0. -1.
</event>
<event>
 4    1  0.6629728E+001  0.2006344E+02  0.7546771E-02  0.1533068E+00
          2   -1    0    0  502    0  0.00000000000E+00  0.00000000000E+00  0.13997263446E+03  0.13997263446E+03  0.00000000000E+00 0.  1.
         -2   -1    0    0    0  501 -0.00000000000E+00 -0.00000000000E+00 -0.34008702352E+01  0.34008702352E+01  0.00000000000E+00 0. -1.
          1    1    1    2  502    0 -0.11176160801E+01  0.20032292845E+02  0.40119737778E+02  0.44856829822E+02  0.00000000000E+00 0. -1.
         -1    1    1    2    0  501  0.11176160801E+01 -0.20032292845E+02  0.96452026449E+02  0.98516674875E+02  0.00000000000E+00 0.  1.
</event>
<event>
 4    1  0.6629728E+001  0.2120673E+02  0.7546771E-02  0.1516334E+00
          2   -1    0    0  502    0  0.00000000000E+00  0.00000000000E+00  0.61419780264E+02  0.61419780264E+02  0.00000000000E+00 0.  1.
         -2   -1    0    0    0  501 -0.00000000000E+00 -0.00000000000E+00 -0.12949459302E+02  0.12949459302E+02  0.00000000000E+00 0. -1.
          1    1    1    2  502    0 -0.49966742775E+01  0.20609669204E+02 -0.27734397498E+00  0.21208539276E+02  0.00000000000E+00 0. -1.
         -1    1    1    2    0  501  0.49966742775E+01 -0.20609669204E+02  0.48747664937E+02  0.53160700290E+02  0.00000000000E+00 0.  1.
</event>
<event>
 4    1  0.6629728E+001  0.2632753E+02  0.7546771E-02  0.1454483E+00
          2   -1    0    0  502    0  0.00000000000E+00  0.00000000000E+00  0.98119961688E+02  0.98119961688E+02  0.00000000000E+00 0.  1.
         -2   -1    0    0    0  501 -0.00000000000E+00 -0.00000000000E+00 -0.70744371850E+01  0.70744371850E+01  0.00000000000E+00 0. -1.
          1    1    1    2  502    0  0.73069997561E+01 -0.25293212716E+02  0.43521769500E+02  0.50865344542E+02  0.00000000000E+00 0.  1.
         -1    1    1    2    0  501 -0.73069997561E+01  0.25293212716E+02  0.47523755002E+02  0.54329054330E+02  0.00000000000E+00 0. -1.
</event>
<event>
 4    1  0.6629728E+001  0.3069658E+02  0.7546771E-02  0.1413638E+00
          2   -1    0    0  502    0  0.00000000000E+00  0.00000000000E+00  0.79195974973E+01  0.79195974973E+01  0.00000000000E+00 0. -1.
         -2   -1    0    0    0  501 -0.00000000000E+00 -0.00000000000E+00 -0.13127423219E+03  0.13127423219E+03  0.00000000000E+00 0.  1.
          1    1    1    2  502    0 -0.25986097851E+02  0.16340210761E+02 -0.82975249389E+02  0.88471304842E+02  0.00000000000E+00 0.  1.
         -1    1    1    2    0  501  0.25986097851E+02 -0.16340210761E+02 -0.40379385303E+02  0.50722524845E+02  0.00000000000E+00 0. -1.
</event>
<event>
 4    1  0.6629728E+001  0.2136563E+02  0.7546771E-02  0.1514108E+00
          2   -1    0    0  502    0  0.00000000000E+00  0.00000000000E+00  0.19320716490E+03  0.19320716490E+03  0.00000000000E+00 0.  1.
         -2   -1    0    0    0  501 -0.00000000000E+00 -0.00000000000E+00 -0.24121716383E+01  0.24121716383E+01  0.00000000000E+00 0. -1.
          1    1    1    2  502    0  0.20023396309E+02 -0.74534331184E+01  0.10940521068E+03  0.11147192557E+03  0.00000000000E+00 0.  1.
         -1    1    1    2    0  501 -0.20023396309E+02  0.74534331184E+01  0.81389782580E+02  0.84147410972E+02  0.00000000000E+00 0. -1.
</event>
<event>
 4    1  0.6629728E+001  0.3041906E+02  0.7546771E-02  0.1415989E+00
          2   -1    0    0  502    0  0.00000000000E+00  0.00000000000E+00  0.11180468948E+04  0.11180468948E+04  0.00000000000E+00 0. -1.
         -2   -1    0    0    0  501 -0.00000000000E+00 -0.00000000000E+00 -0.91867651552E+00  0.91867651552E+00  0.00000000000E+00 0.  1.
          1    1    1    2  502    0 -0.39433511160E+01 -0.30162376983E+02  0.73470440975E+03  0.73533386207E+03  0.00000000000E+00 0. -1.
         -1    1    1    2    0  501  0.39433511160E+01  0.30162376983E+02  0.38242380854E+03  0.38363170925E+03  0.00000000000E+00 0.  1.
</event>
<event>
 4    1  0.6629728E+001  0.8414732E+02  0.7546771E-02  0.1194533E+00
          2   -1    0    0  502    0  0.00000000000E+00  0.00000000000E+00  0.26310141353E+02  0.26310141353E+02  0.00000000000E+00 0.  1.
         -2   -1    0    0    0  501 -0.00000000000E+00 -0.00000000000E+00 -0.35291742020E+03  0.35291742020E+03  0.00000000000E+00 0. -1.
          1    1    1    2  502    0 -0.70398467924E+02 -0.46095851219E+02 -0.70912504862E+02  0.11004251511E+03  0.00000000000E+00 0.  1.
         -1    1    1    2    0  501  0.70398467924E+02  0.46095851219E+02 -0.25569477398E+03  0.26918504644E+03  0.00000000000E+00 0. -1.
</event>
<event>
 4    1  0.6629728E+001  0.2780504E+02  0.7546771E-02  0.1439685E+00
          2   -1    0    0  502    0  0.00000000000E+00  0.00000000000E+00  0.65243866897E+03  0.65243866897E+03  0.00000000000E+00 0. -1.
         -2   -1    0    0    0  501 -0.00000000000E+00 -0.00000000000E+00 -0.16556204777E+01  0.16556204777E+01  0.00000000000E+00 0.  1.
          1    1    1    2  502    0 -0.20301168303E+02  0.18999543525E+02  0.15101848671E+03  0.15355684099E+03  0.00000000000E+00 0.  1.
         -1    1    1    2    0  501  0.20301168303E+02 -0.18999543525E+02  0.49976456178E+03  0.50053744845E+03  0.00000000000E+00 0. -1.
</event>
<event>
 4    1  0.6629728E+001  0.2286865E+02  0.7546771E-02  0.1494154E+00
          2   -1    0    0  502    0  0.00000000000E+00  0.00000000000E+00  0.19562199965E+04  0.19562199965E+04  0.00000000000E+00 0.  1.
         -2   -1    0    0    0  501 -0.00000000000E+00 -0.00000000000E+00 -0.30421828281E+00  0.30421828281E+00  0.00000000000E+00 0. -1.
          1    1    1    2  502    0  0.75995769825E+01 -0.21569000473E+02  0.63735413297E+03  0.63776427162E+03  0.00000000000E+00 0.  1.
         -1    1    1    2    0  501 -0.75995769825E+01  0.21569000473E+02  0.13185616453E+04  0.13187599432E+04  0.00000000000E+00 0. -1.
</event>
<event>
 4    1  0.6629728E+001  0.2515922E+02  0.7546771E-02  0.1467030E+00
          2   -1    0    0  502    0  0.00000000000E+00  0.00000000000E+00  0.26927882685E+03  0.26927882685E+03  0.00000000000E+00 0.  1.
         -2   -1    0    0    0  501 -0.00000000000E+00 -0.00000000000E+00 -0.43269705986E+01  0.43269705986E+01  0.00000000000E+00 0. -1.
          1    1    1    2  502    0  0.20562030743E+02  0.14497903983E+02  0.22493074784E+03  0.22633344351E+03  0.00000000000E+00 0.  1.
         -1    1    1    2    0  501 -0.20562030743E+02 -0.14497903983E+02  0.40021108409E+02  0.47272353934E+02  0.00000000000E+00 0. -1.
</event>
<event>
 4    1  0.6629728E+001  0.2418850E+02  0.7546771E-02  0.1478090E+00
          2   -1    0    0  502    0  0.00000000000E+00  0.00000000000E+00  0.16115254347E+04  0.16115254347E+04  0.00000000000E+00 0. -1.
         -2   -1    0    0    0  501 -0.00000000000E+00 -0.00000000000E+00 -0.42427128406E+00  0.42427128406E+00  0.00000000000E+00 0.  1.
          1    1    1    2  502    0 -0.17289596498E+01  0.24126633713E+02  0.49941903642E+03  0.50000445767E+03  0.00000000000E+00 0.  1.
         -1    1    1    2    0  501  0.17289596498E+01 -0.24126633713E+02  0.11116821270E+04  0.11119452483E+04  0.00000000000E+00 0. -1.
</event>
<event>
 4    1  0.6629728E+001  0.2030608E+02  0.7546771E-02  0.1529407E+00
          2   -1    0    0  502    0  0.00000000000E+00  0.00000000000E+00  0.32202334445E+02  0.32202334445E+02  0.00000000000E+00 0. -1.
         -2   -1    0    0    0  501 -0.00000000000E+00 -0.00000000000E+00 -0.36136182884E+02  0.36136182884E+02  0.00000000000E+00 0.  1.
          1    1    1    2  502    0 -0.17129002997E+01  0.20233702715E+02  0.25489051637E+02  0.32588778841E+02  0.00000000000E+00 0. -1.
         -1    1    1    2    0  501  0.17129002997E+01 -0.20233702715E+02 -0.29422900076E+02  0.35749738487E+02  0.00000000000E+00 0.  1.
</event>
<event>
 4    1  0.6629728E+001  0.7622382E+02  0.7546771E-02  0.1212896E+00
          2   -1    0    0  502    0  0.00000000000E+00  0.00000000000E+00  0.11393312386E+02  0.11393312386E+02  0.00000000000E+00 0. -1.
         -2   -1    0    0    0  501 -0.00000000000E+00 -0.00000000000E+00 -0.51070925375E+03  0.51070925375E+03  0.00000000000E+00 0.  1.
          1    1    1    2  502    0  0.67596114998E+02 -0.35225492483E+02 -0.25969401935E+03  0.27064931881E+03  0.00000000000E+00 0.  1.
         -1    1    1    2    0  501 -0.67596114998E+02  0.35225492483E+02 -0.23962192201E+03  0.25145324733E+03  0.00000000000E+00 0. -1.
</event>
<event>
 4    1  0.6629728E+001  0.2579344E+02  0.7546771E-02  0.1460120E+00
          2   -1    0    0  502    0  0.00000000000E+00  0.00000000000E+00  0.22666411361E+04  0.22666411361E+04  0.00000000000E+00 0. -1.
         -2   -1    0    0    0  501 -0.00000000000E+00 -0.00000000000E+00 -0.38236384868E+00  0.38236384868E+00  0.00000000000E+00 0.  1.
          1    1    1    2  502    0  0.66170802137E+01  0.24930216573E+02  0.16795217143E+04  0.16797197654E+04  0.00000000000E+00 0. -1.
         -1    1    1    2    0  501 -0.66170802137E+01 -0.24930216573E+02  0.58673705797E+03  0.58730373457E+03  0.00000000000E+00 0.  1.
</event>
<event>
 4    1  0.6629728E+001  0.3105950E+02  0.7546771E-02  0.1410607E+00
          2   -1    0    0  502    0  0.00000000000E+00  0.00000000000E+00  0.14399643490E+03  0.14399643490E+03  0.00000000000E+00 0.  1.
         -2   -1    0    0    0  501 -0.00000000000E+00 -0.00000000000E+00 -0.90299884590E+01  0.90299884590E+01  0.00000000000E+00 0. -1.
          1    1    1    2  502    0  0.14420053005E+02  0.27509167743E+02  0.10635406968E+03  0.11079657204E+03  0.00000000000E+00 0.  1.
         -1    1    1    2    0  501 -0.14420053005E+02 -0.27509167743E+02  0.28612376766E+02  0.42229851323E+02  0.00000000000E+00 0. -1.
</event>
<event>
 4    1  0.6629728E+001  0.4053700E+02  0.7546771E-02  0.1345367E+00
          2   -1    0    0  502    0  0.00000000000E+00  0.00000000000E+00  0.15287298271E+02  0.15287298271E+02  0.00000000000E+00 0.  1.
         -2   -1    0    0    0  501 -0.00000000000E+00 -0.00000000000E+00 -0.11534246489E+03  0.11534246489E+03  0.00000000000E+00 0. -1.
          1    1    1    2  502    0  0.38797351203E+02  0.11747920119E+02 -0.32986748374E+02  0.52262545439E+02  0.00000000000E+00 0.  1.
         -1    1    1    2    0  501 -0.38797351203E+02 -0.11747920119E+02 -0.67068418241E+02  0.78367217718E+02  0.00000000000E+00 0. -1.
</event>
<event>
 4    1  0.6629728E+001  0.2107444E+02  0.7546771E-02  0.1518205E+00
          2   -1    0    0  502    0  0.00000000000E+00  0.00000000000E+00  0.14168380347E+03  0.14168380347E+03  0.00000000000E+00 0. -1.
         -2   -1    0    0    0  501 -0.00000000000E+00 -0.00000000000E+00 -0.34309948146E+01  0.34309948146E+01  0.00000000000E+00 0.  1.
          1    1    1    2  502    0 -0.10322605456E+02 -0.18373235277E+02  0.47803039384E+02  0.52242344246E+02  0.00000000000E+00 0.  1.
         -1    1    1    2    0  501  0.10322605456E+02  0.18373235277E+02  0.90449769271E+02  0.92872454038E+02  0.00000000000E+00 0. -1.
</event>
<event>
 4    1  0.6629728E+001  0.2724859E+02  0.7546771E-02  0.1445127E+00
          2   -1    0    0  502    0  0.00000000000E+00  0.00000000000E+00  0.12852435687E+03  0.12852435687E+03  0.00000000000E+00 0.  1.
         -2   -1    0    0    0  501 -0.00000000000E+00 -0.00000000000E+00 -0.67385507328E+01  0.67385507328E+01  0.00000000000E+00 0. -1.
          1    1    1    2  502    0 -0.13282619115E+02  0.23791970230E+02  0.35345279726E+02  0.44629302223E+02  0.00000000000E+00 0. -1.
         -1    1    1    2    0  501  0.13282619115E+02 -0.23791970230E+02  0.86440526412E+02  0.90633605381E+02  0.00000000000E+00 0.  1.
</event>
<event>
 4    1  0.6629728E+001  0.3898935E+02  0.7546771E-02  0.1354512E+00
          2   -1    0    0  502    0  0.00000000000E+00  0.00000000000E+00  0.81968481705E+03  0.81968481705E+03  0.00000000000E+00 0. -1.
         -2   -1    0    0    0  501 -0.00000000000E+00 -0.00000000000E+00 -0.79387555856E+01  0.79387555856E+01  0.00000000000E+00 0.  1.
          1    1    1    2  502    0  0.38486131385E+02 -0.62439717904E+01  0.76813903312E+03  0.76912791114E+03  0.00000000000E+00 0. -1.
         -1    1    1    2    0  501 -0.38486131385E+02  0.62439717904E+01  0.43607028343E+02  0.58495661493E+02  0.00000000000E+00 0.  1.
</event>
<event>
 4    1  0.6629728E+001  0.3171749E+02  0.7546771E-02  0.1405236E+00
          2   -1    0    0  502    0  0.00000000000E+00  0.00000000000E+00  0.19337005231E+04  0.19337005231E+04  0.00000000000E+00 0.  1.
         -2   -1    0    0    0  501 -0.00000000000E+00 -0.00000000000E+00 -0.52209713923E+00  0.52209713923E+00  0.00000000000E+00 0. -1.
          1    1    1    2  502    0  0.16969181711E+02 -0.26796383365E+02  0.90899734439E+03  0.90955053262E+03  0.00000000000E+00 0. -1.
         -1    1    1    2    0  501 -0.16969181711E+02  0.26796383365E+02  0.10241810816E+04  0.10246720876E+04  0.00000000000E+00 0.  1.
</event>
<event>
 4    1  0.6629728E+001  0.2578201E+02  0.7546771E-02  0.1460242E+00
          2   -1    0    0  502    0  0.00000000000E+00  0.00000000000E+00  0.72195005954E+03  0.72195005954E+03  0.00000000000E+00 0. -1.
         -2   -1    0    0    0  501 -0.00000000000E+00 -0.00000000000E+00 -0.22366917793E+01  0.22366917793E+01  0.00000000000E+00 0.  1.
          1    1    1    2  502    0  0.30037611826E+01 -0.25606430972E+02  0.63759848485E+03  0.63811953407E+03  0.00000000000E+00 0. -1.
         -1    1    1    2    0  501 -0.30037611826E+01  0.25606430972E+02  0.82114882918E+02  0.86067217249E+02  0.00000000000E+00 0.  1.
</event>
<event>
 4    1  0.6629728E+001  0.2369099E+02  0.7546771E-02  0.1483999E+00
          2   -1    0    0  502    0  0.00000000000E+00  0.00000000000E+00  0.20582394677E+04  0.20582394677E+04  0.00000000000E+00 0.  1.
         -2   -1    0    0    0  501 -0.00000000000E+00 -0.00000000000E+00 -0.36530719819E+00  0.36530719819E+00  0.00000000000E+00 0. -1.
          1    1    1    2  502    0 -0.23317676659E+02  0.41891517024E+01  0.51066510046E+03  0.51121434630E+03  0.00000000000E+00 0. -1.
         -1    1    1    2    0  501  0.23317676659E+02 -0.41891517024E+01  0.15472090600E+04  0.15473904286E+04  0.00000000000E+00 0.  1.
</event>
<event>
 4    1  0.6629728E+001  0.2337000E+02  0.7546771E-02  0.1487904E+00
          2   -1    0    0  502    0  0.00000000000E+00  0.00000000000E+00  0.48105210438E+02  0.48105210438E+02  0.00000000000E+00 0. -1.
         -2   -1    0    0    0  501 -0.00000000000E+00 -0.00000000000E+00 -0.13347163733E+02  0.13347163733E+02  0.00000000000E+00 0.  1.
          1    1    1    2  502    0  0.16281012380E+02  0.16765609949E+02  0.55035069019E+01  0.24009282149E+02  0.00000000000E+00 0.  1.
         -1    1    1    2    0  501 -0.16281012380E+02 -0.16765609949E+02  0.29254539803E+02  0.37443092022E+02  0.00000000000E+00 0. -1.
</event>
<event>
 4    1  0.6629728E+001  0.2732388E+02  0.7546771E-02  0.1444382E+00
          2   -1    0    0  502    0  0.00000000000E+00  0.00000000000E+00  0.12832113220E+01  0.12832113220E+01  0.00000000000E+00 0.  1.
         -2   -1    0    0    0  501 -0.00000000000E+00 -0.00000000000E+00 -0.65540540566E+03  0.65540540566E+03  0.00000000000E+00 0. -1.
          1    1    1    2  502    0 -0.14770969253E+02  0.22987228881E+02 -0.21703922365E+03  0.21875241444E+03  0.00000000000E+00 0. -1.
         -1    1    1    2    0  501  0.14770969253E+02 -0.22987228881E+02 -0.43708297069E+03  0.43793620253E+03  0.00000000000E+00 0.  1.
</event>
<event>
 4    1  0.6629728E+001  0.3846615E+02  0.7546771E-02  0.1357716E+00
          2   -1    0    0  502    0  0.00000000000E+00  0.00000000000E+00  0.29730930050E+03  0.29730930050E+03  0.00000000000E+00 0.  1.
         -2   -1    0    0    0  501 -0.00000000000E+00 -0.00000000000E+00 -0.54009403889E+01  0.54009403889E+01  0.00000000000E+00 0. -1.
          1    1    1    2  502    0 -0.29788441373E+02  0.24337076244E+02  0.18836970343E+03  0.19225709269E+03  0.00000000000E+00 0.  1.
         -1    1    1    2    0  501  0.29788441373E+02 -0.24337076244E+02  0.10353865668E+03  0.11045314820E+03  0.00000000000E+00 0. -1.
</event>
<event>
 4    1  0.6629728E+001  0.2740189E+02  0.7546771E-02  0.1443612E+00
          2   -1    0    0  502    0  0.00000000000E+00  0.00000000000E+00  0.17106434362E+03  0.17106434362E+03  0.00000000000E+00 0.  1.
         -2   -1    0    0    0  501 -0.00000000000E+00 -0.00000000000E+00 -0.47709134008E+01  0.47709134008E+01  0.00000000000E+00 0. -1.
          1    1    1    2  502    0 -0.17584478010E+02  0.21015461567E+02  0.58283849396E+02  0.64403964103E+02  0.00000000000E+00 0.  1.
         -1    1    1    2    0  501  0.17584478010E+02 -0.21015461567E+02  0.10800958083E+03  0.11143129292E+03  0.00000000000E+00 0. -1.
</event>
<event>
 4    1  0.6629728E+001  0.2332198E+02  0.7546771E-02  0.1488494E+00
          2   -1    0    0  502    0  0.00000000000E+00  0.00000000000E+00  0.65187661261E+02  0.65187661261E+02  0.00000000000E+00 0. -1.
         -2   -1    0    0    0  501 -0.00000000000E+00 -0.00000000000E+00 -0.11718612175E+02  0.11718612175E+02  0.00000000000E+00 0.  1.
          1    1    1    2  502    0  0.98359161457E+01 -0.21146387106E+02  0.60989584962E+01  0.24106269491E+02  0.00000000000E+00 0. -1.
         -1    1    1    2    0  501 -0.98359161457E+01  0.21146387106E+02  0.47370090590E+02  0.52800003945E+02  0.00000000000E+00 0.  1.
</event>
<event>
 4    1  0.6629728E+001  0.2128275E+02  0.7546771E-02  0.1515266E+00
          2   -1    0    0  502    0  0.00000000000E+00  0.00000000000E+00  0.17517506408E+03  0.17517506408E+03  0.00000000000E+00 0. -1.
         -2   -1    0    0    0  501 -0.00000000000E+00 -0.00000000000E+00 -0.26543586643E+01  0.26543586643E+01  0.00000000000E+00 0.  1.
          1    1    1    2  502    0  0.13478121222E+02 -0.16471060024E+02  0.71963387628E+02  0.75044551627E+02  0.00000000000E+00 0.  1.
         -1    1    1    2    0  501 -0.13478121222E+02  0.16471060024E+02  0.10055731779E+03  0.10278487112E+03  0.00000000000E+00 0. -1.
</event>
<event>
 4    1  0.6629728E+001  0.2804318E+02  0.7546771E-02  0.1437402E+00
          2   -1    0    0  502    0  0.00000000000E+00  0.00000000000E+00  0.96494726274E+01  0.96494726274E+01  0.00000000000E+00 0. -1.
         -2   -1    0    0    0  501 -0.00000000000E+00 -0.00000000000E+00 -0.88989962931E+02  0.88989962931E+02  0.00000000000E+00 0.  1.
          1    1    1    2  502    0 -0.23994462622E+02 -0.14515008787E+02 -0.25360665920E+02  0.37809827988E+02  0.00000000000E+00 0.  1.
         -1    1    1    2    0  501  0.23994462622E+02  0.14515008787E+02 -0.53979824384E+02  0.60829607570E+02  0.00000000000E+00 0. -1.
</event>
<event>
 4    1  0.6629728E+001  0.2025484E+02  0.7546771E-02  0.1530175E+00
          2   -1    0    0  502    0  0.00000000000E+00  0.00000000000E+00  0.10128829040E+04  0.10128829040E+04  0.00000000000E+00 0. -1.
         -2   -1    0    0    0  501 -0.00000000000E+00 -0.00000000000E+00 -0.41173232818E+00  0.41173232818E+00  0.00000000000E+00 0.  1.
          1    1    1    2  502    0  0.20199411933E+02 -0.14974191955E+01  0.57082681902E+03  0.57118606060E+03  0.00000000000E+00 0. -1.
         -1    1    1    2    0  501 -0.20199411933E+02  0.14974191955E+01  0.44164435261E+03  0.44210857569E+03  0.00000000000E+00 0.  1.
</event>
<event>
 4    1  0.6629728E+001  0.3085398E+02  0.7546771E-02  0.1412317E+00
          2   -1    0    0  502    0  0.00000000000E+00  0.00000000000E+00  0.11144471860E+02  0.11144471860E+02  0.00000000000E+00 0.  1.
         -2   -1    0    0    0  501 -0.00000000000E+00 -0.00000000000E+00 -0.12800304471E+03  0.12800304471E+03  0.00000000000E+00 0. -1.
          1    1    1    2  502    0  0.30756899339E+02 -0.24456329972E+01 -0.98557551043E+02  0.10327419254E+03  0.00000000000E+00 0. -1.
         -1    1    1    2    0  501 -0.30756899339E+02  0.24456329972E+01 -0.18301021810E+02  0.35873324031E+02  0.00000000000E+00 0.  1.
</event>
<event>
 4    1  0.6629728E+001  0.3094919E+02  0.7546771E-02  0.1411523E+00
          2   -1    0    0  502    0  0.00000000000E+00  0.00000000000E+00  0.23100680352E+03  0.23100680352E+03  0.00000000000E+00 0. -1.
         -2   -1    0    0    0  501 -0.00000000000E+00 -0.00000000000E+00 -0.45993990171E+01  0.45993990171E+01  0.00000000000E+00 0.  1.
          1    1    1    2  502    0 -0.25324149857E+01  0.30845405792E+02  0.15017317381E+03  0.15332916982E+03  0.00000000000E+00 0. -1.
         -1    1    1    2    0  501  0.25324149857E+01 -0.30845405792E+02  0.76234230691E+02  0.82277032720E+02  0.00000000000E+00 0.  1.
</event>
<event>
 4    1  0.6629728E+001  0.3172724E+02  0.7546771E-02  0.1405158E+00
          2   -1    0    0  502    0  0.00000000000E+00  0.00000000000E+00  0.53313368963E+02  0.53313368963E+02  0.00000000000E+00 0. -1.
         -2   -1    0    0    0  501 -0.00000000000E+00 -0.00000000000E+00 -0.31475903920E+02  0.31475903920E+02  0.00000000000E+00 0.  1.
          1    1    1    2  502    0 -0.28474847960E+02 -0.13992873542E+02  0.37736136281E+02  0.49301454925E+02  0.00000000000E+00 0. -1.
         -1    1    1    2    0  501  0.28474847960E+02  0.13992873542E+02 -0.15898671238E+02  0.35487817958E+02  0.00000000000E+00 0.  1.
</event>
<event>
 4    1  0.6629728E+001  0.2105480E+02  0.7546771E-02  0.1518484E+00
          2   -1    0    0  502    0  0.00000000000E+00  0.00000000000E+00  0.50893747940E+01  0.50893747940E+01  0.00000000000E+00 0. -1.
         -2   -1    0    0    0  501 -0.00000000000E+00 -0.00000000000E+00 -0.10016625336E+03  0.10016625336E+03  0.00000000000E+00 0.  1.
          1    1    1    2  502    0  0.19892766060E+02 -0.68980022766E+01 -0.66543301725E+02  0.69794810562E+02  0.00000000000E+00 0.  1.
         -1    1    1    2    0  501 -0.19892766060E+02  0.68980022766E+01 -0.28533576838E+02  0.35460817589E+02  0.00000000000E+00 0. -1.
</event>
<event>
 4    1  0.6629728E+001  0.2840094E+02  0.7546771E-02  0.1434021E+00
          2   -1    0    0  502    0  0.00000000000E+00  0.00000000000E+00  0.14540486101E+03  0.14540486101E+03  0.00000000000E+00 0. -1.
         -2   -1    0    0    0  501 -0.00000000000E+00 -0.00000000000E+00 -0.56101189827E+01  0.56101189827E+01  0.00000000000E+00 0.  1.
          1    1    1    2  502    0  0.27292578728E+02 -0.78567410346E+01  0.77883549395E+02  0.82900304581E+02  0.00000000000E+00 0. -1.
         -1    1    1    2    0  501 -0.27292578728E+02  0.78567410346E+01  0.61911192635E+02  0.68114675414E+02  0.00000000000E+00 0.  1.
</event>
<event>
 4    1  0.6629728E+001  0.4340246E+02  0.7546771E-02  0.1329624E+00
          2   -1    0    0  502    0  0.00000000000E+00  0.00000000000E+00  0.20309629177E+04  0.20309629177E+04  0.00000000000E+00 0.  1.
         -2   -1    0    0    0  501 -0.00000000000E+00 -0.00000000000E+00 -0.11054094673E+01  0.11054094673E+01  0.00000000000E+00 0. -1.
          1    1    1    2  502    0  0.36359608559E+02  0.23701313775E+02  0.14225088928E+04  0.14231708694E+04  0.00000000000E+00 0.  1.
         -1    1    1    2    0  501 -0.36359608559E+02 -0.23701313775E+02  0.60734861539E+03  0.60889745772E+03  0.00000000000E+00 0. -1.
</event>
<event>
 4    1  0.6629728E+001  0.2851685E+02  0.7546771E-02  0.1432938E+00
          2   -1    0    0  502    0  0.00000000000E+00  0.00000000000E+00  0.39820971809E+03  0.39820971809E+03  0.00000000000E+00 0. -1.
         -2   -1    0    0    0  501 -0.00000000000E+00 -0.00000000000E+00 -0.23612040631E+01  0.23612040631E+01  0.00000000000E+00 0.  1.
          1    1    1    2  502    0  0.12085781800E+02  0.25829147965E+02  0.27154543920E+03  0.27303870890E+03  0.00000000000E+00 0. -1.
         -1    1    1    2    0  501 -0.12085781800E+02 -0.25829147965E+02  0.12430307483E+03  0.12753221326E+03  0.00000000000E+00 0.  1.
</event>
<event>
 4    1  0.6629728E+001  0.2458513E+02  0.7546771E-02  0.1473498E+00
          2   -1    0    0  502    0  0.00000000000E+00  0.00000000000E+00  0.48851152925E+03  0.48851152925E+03  0.00000000000E+00 0. -1.
         -2   -1    0    0    0  501 -0.00000000000E+00 -0.00000000000E+00 -0.12399564711E+01  0.12399564711E+01  0.00000000000E+00 0.  1.
          1    1    1    2  502    0 -0.17567247252E+01 -0.24522285574E+02  0.23227206493E+03  0.23356956291E+03  0.00000000000E+00 0. -1.
         -1    1    1    2    0  501  0.17567247252E+01  0.24522285574E+02  0.25499950784E+03  0.25618192280E+03  0.00000000000E+00 0.  1.
</event>
<event>
 4    1  0.6629728E+001  0.2053207E+02  0.7546771E-02  0.1526052E+00
          2   -1    0    0  502    0  0.00000000000E+00  0.00000000000E+00  0.48585229249E+03  0.48585229249E+03  0.00000000000E+00 0. -1.
         -2   -1    0    0    0  501 -0.00000000000E+00 -0.00000000000E+00 -0.11167361465E+01  0.11167361465E+01  0.00000000000E+00 0.  1.
          1    1    1    2  502    0 -0.75173962408E+01 -0.19106406806E+02  0.35735289255E+03  0.35794225210E+03  0.00000000000E+00 0. -1.
         -1    1    1    2    0  501  0.75173962408E+01  0.19106406806E+02  0.12738266380E+03  0.12902677653E+03  0.00000000000E+00 0.  1.
</event>
<event>
 4    1  0.6629728E+001  0.2595349E+02  0.7546771E-02  0.1458413E+00
          2   -1    0    0  502    0  0.00000000000E+00  0.00000000000E+00  0.11965009954E+02  0.11965009954E+02  0.00000000000E+00 0. -1.
         -2   -1    0    0    0  501 -0.00000000000E+00 -0.00000000000E+00 -0.57297325171E+02  0.57297325171E+02  0.00000000000E+00 0.  1.
          1    1    1    2  502    0  0.25034432474E+02 -0.68454819836E+01 -0.18088269361E+02  0.31634931980E+02  0.00000000000E+00 0.  1.
         -1    1    1    2    0  501 -0.25034432474E+02  0.68454819836E+01 -0.27244045856E+02  0.37627403146E+02  0.00000000000E+00 0. -1.
</event>
<event>
 4    1  0.6629728E+001  0.3358583E+02  0.7546771E-02  0.1390787E+00
          2   -1    0    0  502    0  0.00000000000E+00  0.00000000000E+00  0.44369234842E+02  0.44369234842E+02  0.00000000000E+00 0.  1.
         -2   -1    0    0    0  501 -0.00000000000E+00 -0.00000000000E+00 -0.26892747363E+02  0.26892747363E+02  0.00000000000E+00 0. -1.
          1    1    1    2  502    0 -0.11033901525E+02 -0.31721618839E+02  0.40907616464E+00  0.33588322791E+02  0.00000000000E+00 0. -1.
         -1    1    1    2    0  501  0.11033901525E+02  0.31721618839E+02  0.17067411315E+02  0.37673659414E+02  0.00000000000E+00 0.  1.
</event>
<event>
 4    1  0.6629728E+001  0.2408392E+02  0.7546771E-02  0.1479318E+00
          2   -1    0    0  502    0  0.00000000000E+00  0.00000000000E+00  0.11136282835E+01  0.11136282835E+01  0.00000000000E+00 0.  1.
         -2   -1    0    0    0  501 -0.00000000000E+00 -0.00000000000E+00 -0.52771875818E+03  0.52771875818E+03  0.00000000000E+00 0. -1.
          1    1    1    2  502    0  0.21787168399E+02 -0.10264239075E+02 -0.23313997922E+03  0.23438064174E+03  0.00000000000E+00 0.  1.
         -1    1    1    2    0  501 -0.21787168399E+02  0.10264239075E+02 -0.29346515067E+03  0.29445174472E+03  0.00000000000E+00 0. -1.
</event>
<event>
 4    1  0.6629728E+001  0.2313704E+02  0.7546771E-02  0.1490784E+00
          2   -1    0    0  502    0  0.00000000000E+00  0.00000000000E+00  0.21238096540E+04  0.21238096540E+04  0.00000000000E+00 0.  1.
         -2   -1    0    0    0  501 -0.00000000000E+00 -0.00000000000E+00 -0.26158491726E+00  0.26158491726E+00  0.00000000000E+00 0. -1.
          1    1    1    2  502    0  0.10305680836E+02 -0.20715108178E+02  0.12644553681E+04  0.12646670316E+04  0.00000000000E+00 0. -1.
         -1    1    1    2    0  501 -0.10305680836E+02  0.20715108178E+02  0.85909270093E+03  0.85940420732E+03  0.00000000000E+00 0.  1.
</event>
<event>
 4    1  0.6629728E+001  0.4839140E+02  0.7546771E-02  0.1305302E+00
          2   -1    0    0  502    0  0.00000000000E+00  0.00000000000E+00  0.40788505129E+03  0.40788505129E+03  0.00000000000E+00 0. -1.
         -2   -1    0    0    0  501 -0.00000000000E+00 -0.00000000000E+00 -0.60525576902E+01  0.60525576902E+01  0.00000000000E+00 0.  1.
          1    1    1    2  502    0 -0.36582730076E+02 -0.31676983049E+02  0.24786275342E+03  0.25254241610E+03  0.00000000000E+00 0. -1.
         -1    1    1    2    0  501  0.36582730076E+02  0.31676983049E+02  0.15396974018E+03  0.16139519288E+03  0.00000000000E+00 0.  1.
</event>
<event>
 4    1  0.6629728E+001  0.2296436E+02  0.7546771E-02  0.1492946E+00
          2   -1    0    0  502    0  0.00000000000E+00  0.00000000000E+00  0.34567584625E+02  0.34567584625E+02  0.00000000000E+00 0. -1.
         -2   -1    0    0    0  501 -0.00000000000E+00 -0.00000000000E+00 -0.15290839081E+02  0.15290839081E+02  0.00000000000E+00 0.  1.
          1    1    1    2  502    0  0.99419332298E+01  0.20700716740E+02  0.10828988244E+02  0.25389539112E+02  0.00000000000E+00 0. -1.
         -1    1    1    2    0  501 -0.99419332298E+01 -0.20700716740E+02  0.84477572999E+01  0.24468884595E+02  0.00000000000E+00 0.  1.
</event>
<event>
 4    1  0.6629728E+001  0.2054762E+02  0.7546771E-02  0.1525823E+00
          2   -1    0    0  502    0  0.00000000000E+00  0.00000000000E+00  0.76754410816E+02  0.76754410816E+02  0.00000000000E+00 0. -1.
         -2   -1    0    0    0  501 -0.00000000000E+00 -0.00000000000E+00 -0.78836428803E+01  0.78836428803E+01  0.00000000000E+00 0.  1.
          1    1    1    2  502    0  0.13797625196E+02 -0.15225976124E+02  0.57701658768E+02  0.61251010070E+02  0.00000000000E+00 0. -1.
         -1    1    1    2    0  501 -0.13797625196E+02  0.15225976124E+02  0.11169109167E+02  0.23387043626E+02  0.00000000000E+00 0.  1.
</event>
<event>
 4    1  0.6629728E+001  0.2341954E+02  0.7546771E-02  0.1487296E+00
          2   -1    0    0  502    0  0.00000000000E+00  0.00000000000E+00  0.35670515962E+01  0.35670515962E+01  0.00000000000E+00 0. -1.
         -2   -1    0    0    0  501 -0.00000000000E+00 -0.00000000000E+00 -0.19229429936E+03  0.19229429936E+03  0.00000000000E+00 0.  1.
          1    1    1    2  502    0  0.23285182778E+02  0.25049734218E+01 -0.50525522724E+02  0.55689344361E+02  0.00000000000E+00 0. -1.
         -1    1    1    2    0  501 -0.23285182778E+02 -0.25049734218E+01 -0.13820172504E+03  0.14017200660E+03  0.00000000000E+00 0.  1.
</event>
<event>
 4    1  0.6629728E+001  0.2857915E+02  0.7546771E-02  0.1432359E+00
          2   -1    0    0  502    0  0.00000000000E+00  0.00000000000E+00  0.85343693011E+03  0.85343693011E+03  0.00000000000E+00 0. -1.
         -2   -1    0    0    0  501 -0.00000000000E+00 -0.00000000000E+00 -0.10716575007E+01  0.10716575007E+01  0.00000000000E+00 0.  1.
          1    1    1    2  502    0 -0.11144820063E+02  0.26316550066E+02  0.56591468124E+03  0.56663585684E+03  0.00000000000E+00 0. -1.
         -1    1    1    2    0  501  0.11144820063E+02 -0.26316550066E+02  0.28645059137E+03  0.28787273077E+03  0.00000000000E+00 0.  1.
</event>
<event>
 4    1  0.6629728E+001  0.2001137E+02  0.7546771E-02  0.1533862E+00
          2   -1    0    0  502    0  0.00000000000E+00  0.00000000000E+00  0.85533921164E+03  0.85533921164E+03  0.00000000000E+00 0.  1.
         -2   -1    0    0    0  501 -0.00000000000E+00 -0.00000000000E+00 -0.60991639805E+00  0.60991639805E+00  0.00000000000E+00 0. -1.
          1    1    1    2  502    0  0.16299074887E+02  0.11610123847E+02  0.22105490973E+03  0.22195884288E+03  0.00000000000E+00 0. -1.
         -1    1    1    2    0  501 -0.16299074887E+02 -0.11610123847E+02  0.63367438552E+03  0.63399028516E+03  0.00000000000E+00 0.  1.
</event>
<event>
 4    1  0.6629728E+001  0.3519113E+02  0.7546771E-02  0.1379224E+00
          2   -1    0    0  502    0  0.00000000000E+00  0.00000000000E+00  0.28088001662E+03  0.28088001662E+03  0.00000000000E+00 0. -1.
         -2   -1    0    0    0  501 -0.00000000000E+00 -0.00000000000E+00 -0.49341696970E+01  0.49341696970E+01  0.00000000000E+00 0.  1.
          1    1    1    2  502    0 -0.54504669168E+01 -0.34766478254E+02  0.18459306616E+03  0.18791757681E+03  0.00000000000E+00 0.  1.
         -1    1    1    2    0  501  0.54504669168E+01  0.34766478254E+02  0.91352780764E+02  0.97896609508E+02  0.00000000000E+00 0. -1.
</event>
<event>
 4    1  0.6629728E+001  0.2947323E+02  0.7546771E-02  0.1424230E+00
          2   -1    0    0  502    0  0.00000000000E+00  0.00000000000E+00  0.18979033593E+03  0.18979033593E+03  0.00000000000E+00 0. -1.
         -2   -1    0    0    0  501 -0.00000000000E+00 -0.00000000000E+00 -0.48173661249E+01  0.48173661249E+01  0.00000000000E+00 0.  1.
          1    1    1    2  502    0 -0.19953615244E+02 -0.21691577325E+02  0.11422137510E+03  0.11796267977E+03  0.00000000000E+00 0. -1.
         -1    1    1    2    0  501  0.19953615244E+02  0.21691577325E+02  0.70751594703E+02  0.76645022286E+02  0.00000000000E+00 0.  1.
</event>
<event>
 4    1  0.6629728E+001  0.2621184E+02  0.7546771E-02  0.1455690E+00
          2   -1    0    0  502    0  0.00000000000E+00  0.00000000000E+00  0.92497387073E+02  0.92497387073E+02  0.00000000000E+00 0. -1.
         -2   -1    0    0    0  501 -0.00000000000E+00 -0.00000000000E+00 -0.84335857231E+01  0.84335857231E+01  0.00000000000E+00 0.  1.
          1    1    1    2  502    0  0.25620337616E+02  0.55370470368E+01  0.24604956926E+02  0.35950862226E+02  0.00000000000E+00 0.  1.
         -1    1    1    2    0  501 -0.25620337616E+02 -0.55370470368E+01  0.59458844424E+02  0.64980110571E+02  0.00000000000E+00 0. -1.
</event>
<event>
 4    1  0.6629728E+001  0.3097010E+02  0.7546771E-02  0.1411349E+00
          2   -1    0    0  502    0  0.00000000000E+00  0.00000000000E+00  0.86717719298E+03  0.86717719298E+03  0.00000000000E+00 0.  1.
         -2   -1    0    0    0  501 -0.00000000000E+00 -0.00000000000E+00 -0.15792452039E+01  0.15792452039E+01  0.00000000000E+00 0. -1.
          1    1    1    2  502    0  0.30889676115E+02 -0.22304615835E+01  0.19502714415E+03  0.19747084343E+03  0.00000000000E+00 0. -1.
         -1    1    1    2    0  501 -0.30889676115E+02  0.22304615835E+01  0.67057080363E+03  0.67128559476E+03  0.00000000000E+00 0.  1.
</event>
<event>
 4    1  0.6629728E+001  0.4160640E+02  0.7546771E-02  0.1339321E+00
          2   -1    0    0  502    0  0.00000000000E+00  0.00000000000E+00  0.99984437560E+03  0.99984437560E+03  0.00000000000E+00 0. -1.
         -2   -1    0    0    0  501 -0.00000000000E+00 -0.00000000000E+00 -0.22241562761E+01  0.22241562761E+01  0.00000000000E+00 0.  1.
          1    1    1    2  502    0 -0.38396225036E+02 -0.16025670707E+02  0.73465026700E+03  0.73582749814E+03  0.00000000000E+00 0. -1.
         -1    1    1    2    0  501  0.38396225036E+02  0.16025670707E+02  0.26296995232E+03  0.26624103373E+03  0.00000000000E+00 0.  1.
</event>
<event>
 4    1  0.6629728E+001  0.2942003E+02  0.7546771E-02  0.1424704E+00
          2   -1    0    0  502    0  0.00000000000E+00  0.00000000000E+00  0.62981762585E+02  0.62981762585E+02  0.00000000000E+00 0.  1.
         -2   -1    0    0    0  501 -0.00000000000E+00 -0.00000000000E+00 -0.13764599155E+02  0.13764599155E+02  0.00000000000E+00 0. -1.
          1    1    1    2  502    0  0.24016068988E+02  0.16993131900E+02  0.26139933071E+02  0.39355230940E+02  0.00000000000E+00 0.  1.
         -1    1    1    2    0  501 -0.24016068988E+02 -0.16993131900E+02  0.23077230359E+02  0.37391130799E+02  0.00000000000E+00 0. -1.
</event>
<event>
 4    1  0.6629728E+001  0.2526010E+02  0.7546771E-02  0.1465915E+00
          2   -1    0    0  502    0  0.00000000000E+00  0.00000000000E+00  0.78620499543E+03  0.78620499543E+03  0.00000000000E+00 0.  1.
         -2   -1    0    0    0  501 -0.00000000000E+00 -0.00000000000E+00 -0.10565612162E+01  0.10565612162E+01  0.00000000000E+00 0. -1.
          1    1    1    2  502    0 -0.24458696524E+02 -0.63122930324E+01  0.20303333778E+03  0.20459865378E+03  0.00000000000E+00 0. -1.
         -1    1    1    2    0  501  0.24458696524E+02  0.63122930324E+01  0.58211509643E+03  0.58266290286E+03  0.00000000000E+00 0.  1.
</event>
<event>
 4    1  0.6629728E+001  0.2451382E+02  0.7546771E-02  0.1474316E+00
          2   -1    0    0  502    0  0.00000000000E+00  0.00000000000E+00  0.13621523277E+04  0.13621523277E+04  0.00000000000E+00 0. -1.
         -2   -1    0    0    0  501 -0.00000000000E+00 -0.00000000000E+00 -0.45750784550E+00  0.45750784550E+00  0.00000000000E+00 0.  1.
          1    1    1    2  502    0  0.21255204240E+02 -0.12212442247E+02  0.55206122586E+03  0.55260521582E+03  0.00000000000E+00 0.  1.
         -1    1    1    2    0  501 -0.21255204240E+02  0.12212442247E+02  0.80963359400E+03  0.81000461973E+03  0.00000000000E+00 0. -1.
</event>
<event>
 4    1  0.6629728E+001  0.8362757E+02  0.7546771E-02  0.1195667E+00
          2   -1    0    0  502    0  0.00000000000E+00  0.00000000000E+00  0.92886705633E+02  0.92886705633E+02  0.00000000000E+00 0. -1.
         -2   -1    0    0    0  501 -0.00000000000E+00 -0.00000000000E+00 -0.78424132091E+02  0.78424132091E+02  0.00000000000E+00 0.  1.
          1    1    1    2  502    0 -0.40788923150E+02  0.73005715031E+02 -0.98882175101E+01  0.84210139084E+02  0.00000000000E+00 0. -1.
         -1    1    1    2    0  501  0.40788923150E+02 -0.73005715031E+02  0.24350791052E+02  0.87100698641E+02  0.00000000000E+00 0.  1.
</event>
<event>
 4    1  0.6629728E+001  0.2531492E+02  0.7546771E-02  0.1465311E+00
          2   -1    0    0  502    0  0.00000000000E+00  0.00000000000E+00  0.22413497877E+03  0.22413497877E+03  0.00000000000E+00 0.  1.
         -2   -1    0    0    0  501 -0.00000000000E+00 -0.00000000000E+00 -0.61322162976E+01  0.61322162976E+01  0.00000000000E+00 0. -1.
          1    1    1    2  502    0 -0.20264855978E+02 -0.15171715425E+02  0.19311529470E+03  0.19476745720E+03  0.00000000000E+00 0.  1.
         -1    1    1    2    0  501  0.20264855978E+02  0.15171715425E+02  0.24887467778E+02  0.35499737874E+02  0.00000000000E+00 0. -1.
</event>
<event>
 4    1  0.6629728E+001  0.3912267E+02  0.7546771E-02  0.1353705E+00
          2   -1    0    0  502    0  0.00000000000E+00  0.00000000000E+00  0.22998606231E+03  0.22998606231E+03  0.00000000000E+00 0. -1.
         -2   -1    0    0    0  501 -0.00000000000E+00 -0.00000000000E+00 -0.20027563603E+02  0.20027563603E+02  0.00000000000E+00 0.  1.
          1    1    1    2  502    0  0.72575355303E+01  0.38443611797E+02  0.28323629889E+01  0.39225060741E+02  0.00000000000E+00 0.  1.
         -1    1    1    2    0  501 -0.72575355303E+01 -0.38443611797E+02  0.20712613572E+03  0.21078856518E+03  0.00000000000E+00 0. -1.
</event>
<event>
 4    1  0.6629728E+001  0.2246019E+02  0.7546771E-02  0.1499390E+00
          2   -1    0    0  502    0  0.00000000000E+00  0.00000000000E+00  0.13554057160E+04  0.13554057160E+04  0.00000000000E+00 0.  1.
         -2   -1    0    0    0  501 -0.00000000000E+00 -0.00000000000E+00 -0.37609847880E+00  0.37609847880E+00  0.00000000000E+00 0. -1.
          1    1    1    2  502    0 -0.56276699183E+01  0.21743725671E+02  0.74667367826E+03  0.74701140693E+03  0.00000000000E+00 0. -1.
         -1    1    1    2    0  501  0.56276699183E+01 -0.21743725671E+02  0.60835593929E+03  0.60877040758E+03  0.00000000000E+00 0.  1.
</event>
<event>
 4    1  0.6629728E+001  0.2121428E+02  0.7546771E-02  0.1516227E+00
          2   -1    0    0  502    0  0.00000000000E+00  0.00000000000E+00  0.39748083953E+03  0.39748083953E+03  0.00000000000E+00 0.  1.
         -2   -1    0    0    0  501 -0.00000000000E+00 -0.00000000000E+00 -0.19085605170E+01  0.19085605170E+01  0.00000000000E+00 0. -1.
          1    1    1    2  502    0 -0.10233068404E+02 -0.18583053586E+02  0.70426215425E+02  0.73552004655E+02  0.00000000000E+00 0. -1.
         -1    1    1    2    0  501  0.10233068404E+02  0.18583053586E+02  0.32514606359E+03  0.32583739539E+03  0.00000000000E+00 0.  1.
</event>
<event>
 4    1  0.6629728E+001  0.2573925E+02  0.7546771E-02  0.1460701E+00
          2   -1    0    0  502    0  0.00000000000E+00  0.00000000000E+00  0.17707758458E+04  0.17707758458E+04  0.00000000000E+00 0. -1.
         -2   -1    0    0    0  501 -0.00000000000E+00 -0.00000000000E+00 -0.47141793218E+00  0.47141793218E+00  0.00000000000E+00 0.  1.
          1    1    1    2  502    0  0.13296252850E+02  0.22039027190E+02  0.48283864785E+03  0.48352421751E+03  0.00000000000E+00 0.  1.
         -1    1    1    2    0  501 -0.13296252850E+02 -0.22039027190E+02  0.12874657800E+04  0.12877230462E+04  0.00000000000E+00 0. -1.
</event>
<event>
 4    1  0.6629728E+001  0.2989854E+02  0.7546771E-02  0.1420480E+00
          2   -1    0    0  502    0  0.00000000000E+00  0.00000000000E+00  0.42057921205E+03  0.42057921205E+03  0.00000000000E+00 0.  1.
         -2   -1    0    0    0  501 -0.00000000000E+00 -0.00000000000E+00 -0.22701021619E+01  0.22701021619E+01  0.00000000000E+00 0. -1.
          1    1    1    2  502    0 -0.11703870314E+02 -0.27512581583E+02  0.15578593445E+03  0.15862906448E+03  0.00000000000E+00 0. -1.
         -1    1    1    2    0  501  0.11703870314E+02  0.27512581583E+02  0.26252317543E+03  0.26422024972E+03  0.00000000000E+00 0.  1.
</event>
<event>
 4    1  0.6629728E+001  0.2761464E+02  0.7546771E-02  0.1441530E+00
          2   -1    0    0  502    0  0.00000000000E+00  0.00000000000E+00  0.10113048944E+04  0.10113048944E+04  0.00000000000E+00 0.  1.
         -2   -1    0    0    0  501 -0.00000000000E+00 -0.00000000000E+00 -0.11973506670E+01  0.11973506670E+01  0.00000000000E+00 0. -1.
          1    1    1    2  502    0  0.36705694510E+01  0.27369605324E+02  0.19701352962E+03  0.19893943609E+03  0.00000000000E+00 0. -1.
         -1    1    1    2    0  501 -0.36705694510E+01 -0.27369605324E+02  0.81309401410E+03  0.81356280897E+03  0.00000000000E+00 0.  1.
</event>
<event>
 4    1  0.6629728E+001  0.3346098E+02  0.7546771E-02  0.1391718E+00
          2   -1    0    0  502    0  0.00000000000E+00  0.00000000000E+00  0.10858406324E+02  0.10858406324E+02  0.00000000000E+00 0.  1.
         -2   -1    0    0    0  501 -0.00000000000E+00 -0.00000000000E+00 -0.13422276959E+03  0.13422276959E+03  0.00000000000E+00 0. -1.
          1    1    1    2  502    0  0.27509697595E+02  0.19048723503E+02 -0.96605855229E+02  0.10223663039E+03  0.00000000000E+00 0. -1.
         -1    1    1    2    0  501 -0.27509697595E+02 -0.19048723503E+02 -0.26758508037E+02  0.42844545525E+02  0.00000000000E+00 0.  1.
</event>
<event>
 4    1  0.6629728E+001  0.2397341E+02  0.7546771E-02  0.1480624E+00
          2   -1    0    0  502    0  0.00000000000E+00  0.00000000000E+00  0.89564346170E+02  0.89564346170E+02  0.00000000000E+00 0.  1.
         -2   -1    0    0    0  501 -0.00000000000E+00 -0.00000000000E+00 -0.38308275675E+02  0.38308275675E+02  0.00000000000E+00 0. -1.
          1    1    1    2  502    0  0.76904433513E+01 -0.22706414853E+02  0.83964216264E+02  0.87319607233E+02  0.00000000000E+00 0.  1.
         -1    1    1    2    0  501 -0.76904433513E+01  0.22706414853E+02 -0.32708145770E+02  0.40553014612E+02  0.00000000000E+00 0. -1.
</event>
<event>
 4    1  0.6629728E+001  0.2339589E+02  0.7546771E-02  0.1487586E+00
          2   -1    0    0  502    0  0.00000000000E+00  0.00000000000E+00  0.15503528125E+02  0.15503528125E+02  0.00000000000E+00 0. -1.
         -2   -1    0    0    0  501 -0.00000000000E+00 -0.00000000000E+00 -0.52334234136E+02  0.52334234136E+02  0.00000000000E+00 0.  1.
          1    1    1    2  502    0  0.22087684110E+02  0.77137318356E+01 -0.37763237372E+02  0.44423299574E+02  0.00000000000E+00 0.  1.
         -1    1    1    2    0  501 -0.22087684110E+02 -0.77137318356E+01  0.93253136113E+00  0.23414462687E+02  0.00000000000E+00 0. -1.
</event>
<event>
 4    1  0.6629728E+001  0.3060263E+02  0.7546771E-02  0.1414431E+00
          2   -1    0    0  502    0  0.00000000000E+00  0.00000000000E+00  0.29999566374E+03  0.29999566374E+03  0.00000000000E+00 0. -1.
         -2   -1    0    0    0  501 -0.00000000000E+00 -0.00000000000E+00 -0.33294690588E+01  0.33294690588E+01  0.00000000000E+00 0.  1.
          1    1    1    2  502    0 -0.27811429325E+02  0.12768911462E+02  0.11045423828E+03  0.11461526711E+03  0.00000000000E+00 0.  1.
         -1    1    1    2    0  501  0.27811429325E+02 -0.12768911462E+02  0.18621195640E+03  0.18870986569E+03  0.00000000000E+00 0. -1.
</event>
<event>
 4    1  0.6629728E+001  0.2146871E+02  0.7546771E-02  0.1512677E+00
          2   -1    0    0  502    0  0.00000000000E+00  0.00000000000E+00  0.22998766818E+03  0.22998766818E+03  0.00000000000E+00 0.  1.
         -2   -1    0    0    0  501 -0.00000000000E+00 -0.00000000000E+00 -0.39712621670E+01  0.39712621670E+01  0.00000000000E+00 0. -1.
          1    1    1    2  502    0 -0.20995029971E+02  0.44848690516E+01  0.30675637134E+02  0.37441955711E+02  0.00000000000E+00 0. -1.
         -1    1    1    2    0  501  0.20995029971E+02 -0.44848690516E+01  0.19534076888E+03  0.19651697464E+03  0.00000000000E+00 0.  1.
</event>
<event>
 4    1  0.6629728E+001  0.5894947E+02  0.7546771E-02  0.1263444E+00
          2   -1    0    0  502    0  0.00000000000E+00  0.00000000000E+00  0.92302398917E+03  0.92302398917E+03  0.00000000000E+00 0.  1.
         -2   -1    0    0    0  501 -0.00000000000E+00 -0.00000000000E+00 -0.40958245583E+01  0.40958245583E+01  0.00000000000E+00 0. -1.
          1    1    1    2  502    0  0.43063490853E+02  0.40256379515E+02  0.59124033119E+03  0.59417183505E+03  0.00000000000E+00 0. -1.
         -1    1    1    2    0  501 -0.43063490853E+02 -0.40256379515E+02  0.32768783343E+03  0.33294797869E+03  0.00000000000E+00 0.  1.
</event>
<event>
 4    1  0.6629728E+001  0.2322236E+02  0.7546771E-02  0.1489725E+00
          2   -1    0    0  502    0  0.00000000000E+00  0.00000000000E+00  0.19606717532E+03  0.19606717532E+03  0.00000000000E+00 0. -1.
         -2   -1    0    0    0  501 -0.00000000000E+00 -0.00000000000E+00 -0.29102730293E+01  0.29102730293E+01  0.00000000000E+00 0.  1.
          1    1    1    2  502    0  0.13880016303E+02  0.18617816838E+02  0.73265778584E+02  0.76858000676E+02  0.00000000000E+00 0. -1.
         -1    1    1    2    0  501 -0.13880016303E+02 -0.18617816838E+02  0.11989112371E+03  0.12211944768E+03  0.00000000000E+00 0.  1.
</event>
<event>
 4    1  0.6629728E+001  0.2651159E+02  0.7546771E-02  0.1452577E+00
          2   -1    0    0  502    0  0.00000000000E+00  0.00000000000E+00  0.22943973993E+04  0.22943973993E+04  0.00000000000E+00 0.  1.
         -2   -1    0    0    0  501 -0.00000000000E+00 -0.00000000000E+00 -0.31916270630E+00  0.31916270630E+00  0.00000000000E+00 0. -1.
          1    1    1    2  502    0 -0.11895924506E+02  0.23692850170E+02  0.91705696976E+03  0.91744010701E+03  0.00000000000E+00 0. -1.
         -1    1    1    2    0  501  0.11895924506E+02 -0.23692850170E+02  0.13770212668E+04  0.13772764550E+04  0.00000000000E+00 0.  1.
</event>
<event>
 4    1  0.6629728E+001  0.2331452E+02  0.7546771E-02  0.1488586E+00
          2   -1    0    0  502    0  0.00000000000E+00  0.00000000000E+00  0.13625675237E+04  0.13625675237E+04  0.00000000000E+00 0. -1.
         -2   -1    0    0    0  501 -0.00000000000E+00 -0.00000000000E+00 -0.42774020486E+00  0.42774020486E+00  0.00000000000E+00 0.  1.
          1    1    1    2  502    0  0.74275743861E+01  0.22099727515E+02  0.85794222480E+03  0.85825895155E+03  0.00000000000E+00 0.  1.
         -1    1    1    2    0  501 -0.74275743861E+01 -0.22099727515E+02  0.50419755874E+03  0.50473631240E+03  0.00000000000E+00 0. -1.
</event>
<event>
 4    1  0.6629728E+001  0.2276480E+02  0.7546771E-02  0.1495473E+00
          2   -1    0    0  502    0  0.00000000000E+00  0.00000000000E+00  0.22140529669E+02  0.22140529669E+02  0.00000000000E+00 0.  1.
         -2   -1    0    0    0  501 -0.00000000000E+00 -0.00000000000E+00 -0.23539614364E+02  0.23539614364E+02  0.00000000000E+00 0. -1.
          1    1    1    2  502    0 -0.17183504170E+02  0.14931963172E+02 -0.24159204995E+01  0.22892640992E+02  0.00000000000E+00 0. -1.
         -1    1    1    2    0  501  0.17183504170E+02 -0.14931963172E+02  0.10168358047E+01  0.22787503040E+02  0.00000000000E+00 0.  1.
</event>
<event>
 4    1  0.6629728E+001  0.2218121E+02  0.7546771E-02  0.1503044E+00
          2   -1    0    0  502    0  0.00000000000E+00  0.00000000000E+00  0.73612273184E+03  0.73612273184E+03  0.00000000000E+00 0. -1.
         -2   -1    0    0    0  501 -0.00000000000E+00 -0.00000000000E+00 -0.14012452554E+01  0.14012452554E+01  0.00000000000E+00 0.  1.
          1    1    1    2  502    0  0.16464999594E+02 -0.14863042855E+02  0.63404816240E+03  0.63443603184E+03  0.00000000000E+00 0. -1.
         -1    1    1    2    0  501 -0.16464999594E+02  0.14863042855E+02  0.10067332419E+03  0.10308794526E+03  0.00000000000E+00 0.  1.
</event>
<event>
 4    1  0.6629728E+001  0.2196878E+02  0.7546771E-02  0.1505870E+00
          2   -1    0    0  502    0  0.00000000000E+00  0.00000000000E+00  0.10596383147E+01  0.10596383147E+01  0.00000000000E+00 0. -1.
         -2   -1    0    0    0  501 -0.00000000000E+00 -0.00000000000E+00 -0.66749548049E+03  0.66749548049E+03  0.00000000000E+00 0.  1.
          1    1    1    2  502    0 -0.14701988398E+02 -0.16324177554E+02 -0.52161887824E+03  0.52208129767E+03  0.00000000000E+00 0.  1.
         -1    1    1    2    0  501  0.14701988398E+02  0.16324177554E+02 -0.14481696394E+03  0.14647382114E+03  0.00000000000E+00 0. -1.
</event>
<event>
 4    1  0.6629728E+001  0.2698222E+02  0.7546771E-02  0.1447787E+00
          2   -1    0    0  502    0  0.00000000000E+00  0.00000000000E+00  0.14256217833E+02  0.14256217833E+02  0.00000000000E+00 0.  1.
         -2   -1    0    0    0  501 -0.00000000000E+00 -0.00000000000E+00 -0.52089884263E+02  0.52089884263E+02  0.00000000000E+00 0. -1.
          1    1    1    2  502    0  0.65865341114E+01 -0.26165967225E+02 -0.23562561656E+02  0.35822263806E+02  0.00000000000E+00 0. -1.
         -1    1    1    2    0  501 -0.65865341114E+01  0.26165967225E+02 -0.14271104774E+02  0.30523838289E+02  0.00000000000E+00 0.  1.
</event>
<event>
 4    1  0.6629728E+001  0.2057714E+02  0.7546771E-02  0.1525389E+00
          2   -1    0    0  502    0  0.00000000000E+00  0.00000000000E+00  0.72748888613E+01  0.72748888613E+01  0.00000000000E+00 0. -1.
         -2   -1    0    0    0  501 -0.00000000000E+00 -0.00000000000E+00 -0.12478626011E+03  0.12478626011E+03  0.00000000000E+00 0.  1.
          1    1    1    2  502    0 -0.19450719554E+02 -0.67147625692E+01 -0.10698877047E+03  0.10894960089E+03  0.00000000000E+00 0.  1.
         -1    1    1    2    0  501  0.19450719554E+02  0.67147625692E+01 -0.10522600779E+02  0.23111548081E+02  0.00000000000E+00 0. -1.
</event>
<event>
 4    1  0.6629728E+001  0.2829536E+02  0.7546771E-02  0.1435013E+00
          2   -1    0    0  502    0  0.00000000000E+00  0.00000000000E+00  0.13175187029E+03  0.13175187029E+03  0.00000000000E+00 0. -1.
         -2   -1    0    0    0  501 -0.00000000000E+00 -0.00000000000E+00 -0.69263345845E+01  0.69263345845E+01  0.00000000000E+00 0.  1.
          1    1    1    2  502    0 -0.19232344198E+02 -0.20754387288E+02  0.38128718423E+02  0.47480804791E+02  0.00000000000E+00 0.  1.
         -1    1    1    2    0  501  0.19232344198E+02  0.20754387288E+02  0.86696817284E+02  0.91197400085E+02  0.00000000000E+00 0. -1.
</event>
<event>
 4    1  0.6629728E+001  0.5882251E+02  0.7546771E-02  0.1263887E+00
          2   -1    0    0  502    0  0.00000000000E+00  0.00000000000E+00  0.10677771718E+03  0.10677771718E+03  0.00000000000E+00 0. -1.
         -2   -1    0    0    0  501 -0.00000000000E+00 -0.00000000000E+00 -0.33074570429E+02  0.33074570429E+02  0.00000000000E+00 0.  1.
          1    1    1    2  502    0 -0.54019751920E+02  0.23279894753E+02  0.26899198730E+02  0.64681171832E+02  0.00000000000E+00 0. -1.
         -1    1    1    2    0  501  0.54019751920E+02 -0.23279894753E+02  0.46803948025E+02  0.75171115782E+02  0.00000000000E+00 0.  1.
</event>
<event>
 4    1  0.6629728E+001  0.2049063E+02  0.7546771E-02  0.1526663E+00
          2   -1    0    0  502    0  0.00000000000E+00  0.00000000000E+00  0.33191562847E+02  0.33191562847E+02  0.00000000000E+00 0.  1.
         -2   -1    0    0    0  501 -0.00000000000E+00 -0.00000000000E+00 -0.14370808601E+02  0.14370808601E+02  0.00000000000E+00 0. -1.
          1    1    1    2  502    0 -0.66880185035E+01 -0.19368441577E+02  0.11806323778E+01  0.20524619690E+02  0.00000000000E+00 0. -1.
         -1    1    1    2    0  501  0.66880185035E+01  0.19368441577E+02  0.17640121869E+02  0.27037751758E+02  0.00000000000E+00 0.  1.
</event>
<event>
 4    1  0.6629728E+001  0.4489291E+02  0.7546771E-02  0.1321976E+00
          2   -1    0    0  502    0  0.00000000000E+00  0.00000000000E+00  0.88509141352E+03  0.88509141352E+03  0.00000000000E+00 0. -1.
         -2   -1    0    0    0  501 -0.00000000000E+00 -0.00000000000E+00 -0.60272767570E+01  0.60272767570E+01  0.00000000000E+00 0.  1.
          1    1    1    2  502    0 -0.22788776397E+02  0.38678740289E+02  0.88072531576E+02  0.98854155695E+02  0.00000000000E+00 0.  1.
         -1    1    1    2    0  501  0.22788776397E+02 -0.38678740289E+02  0.79099160519E+03  0.79226453458E+03  0.00000000000E+00 0. -1.
</event>
<event>
 4    1  0.6629728E+001  0.2763592E+02  0.7546771E-02  0.1441323E+00
          2   -1    0    0  502    0  0.00000000000E+00  0.00000000000E+00  0.22146184197E+04  0.22146184197E+04  0.00000000000E+00 0. -1.
         -2   -1    0    0    0  501 -0.00000000000E+00 -0.00000000000E+00 -0.53304746697E+00  0.53304746697E+00  0.00000000000E+00 0.  1.
          1    1    1    2  502    0 -0.32788088801E+01  0.27440729462E+02  0.17651248986E+04  0.17653412282E+04  0.00000000000E+00 0. -1.
         -1    1    1    2    0  501  0.32788088801E+01 -0.27440729462E+02  0.44896047356E+03  0.44981023892E+03  0.00000000000E+00 0.  1.
</event>
<event>
 4    1  0.6629728E+001  0.3429489E+02  0.7546771E-02  0.1385589E+00
          2   -1    0    0  502    0  0.00000000000E+00  0.00000000000E+00  0.98644902490E+03  0.98644902490E+03  0.00000000000E+00 0. -1.
         -2   -1    0    0    0  501 -0.00000000000E+00 -0.00000000000E+00 -0.21601157120E+01  0.21601157120E+01  0.00000000000E+00 0.  1.
          1    1    1    2  502    0  0.29744687137E+02 -0.17070229456E+02  0.82301138923E+03  0.82372561327E+03  0.00000000000E+00 0. -1.
         -1    1    1    2    0  501 -0.29744687137E+02  0.17070229456E+02  0.16127751996E+03  0.16488352735E+03  0.00000000000E+00 0.  1.
</event>
<event>
 4    1  0.6629728E+001  0.2771139E+02  0.7546771E-02  0.1440590E+00
          2   -1    0    0  502    0  0.00000000000E+00  0.00000000000E+00  0.84092070496E+02  0.84092070496E+02  0.00000000000E+00 0. -1.
         -2   -1    0    0    0  501 -0.00000000000E+00 -0.00000000000E+00 -0.98291213702E+01  0.98291213702E+01  0.00000000000E+00 0.  1.
          1    1    1    2  502    0  0.75316910745E+01 -0.26668238649E+02  0.49638617047E+02  0.56849921947E+02  0.00000000000E+00 0. -1.
         -1    1    1    2    0  501 -0.75316910745E+01  0.26668238649E+02  0.24624332079E+02  0.37071269919E+02  0.00000000000E+00 0.  1.
</event>
<event>
 4    1  0.6629728E+001  0.2154064E+02  0.7546771E-02  0.1511684E+00
          2   -1    0    0  502    0  0.00000000000E+00  0.00000000000E+00  0.17233473503E+04  0.17233473503E+04  0.00000000000E+00 0.  1.
         -2   -1    0    0    0  501 -0.00000000000E+00 -0.00000000000E+00 -0.32784680572E+00  0.32784680572E+00  0.00000000000E+00 0. -1.
          1    1    1    2  502    0  0.49696786771E+01 -0.20959515699E+02  0.12258887283E+04  0.12260779637E+04  0.00000000000E+00 0.  1.
         -1    1    1    2    0  501 -0.49696786771E+01  0.20959515699E+02  0.49713077523E+03  0.49759723340E+03  0.00000000000E+00 0. -1.
</event>
<event>
 4    1  0.6629728E+001  0.8267231E+02  0.7546771E-02  0.1197776E+00
          2   -1    0    0  502    0  0.00000000000E+00  0.00000000000E+00  0.12094542219E+04  0.12094542219E+04  0.00000000000E+00 0. -1.
         -2   -1    0    0    0  501 -0.00000000000E+00 -0.00000000000E+00 -0.57381262858E+01  0.57381262858E+01  0.00000000000E+00 0.  1.
          1    1    1    2  502    0  0.61292209599E+02 -0.55479507178E+02  0.67669733212E+03  0.68172867768E+03  0.00000000000E+00 0.  1.
         -1    1    1    2    0  501 -0.61292209599E+02  0.55479507178E+02  0.52701876354E+03  0.53346367055E+03  0.00000000000E+00 0. -1.
</event>
<event>
 4    1  0.6629728E+001  0.3002922E+02  0.7546771E-02  0.1419343E+00
          2   -1    0    0  502    0  0.00000000000E+00  0.00000000000E+00  0.69202549852E+03  0.69202549852E+03  0.00000000000E+00 0. -1.
         -2   -1    0    0    0  501 -0.00000000000E+00 -0.00000000000E+00 -0.14296435495E+01  0.14296435495E+01  0.00000000000E+00 0.  1.
          1    1    1    2  502    0 -0.26139973773E+02 -0.14780257379E+02  0.24212767969E+03  0.24398271969E+03  0.00000000000E+00 0. -1.
         -1    1    1    2    0  501  0.26139973773E+02  0.14780257379E+02  0.44846817528E+03  0.44947242238E+03  0.00000000000E+00 0.  1.
</event>
<event>
 4    1  0.6629728E+001  0.2296804E+02  0.7546771E-02  0.1492900E+00
          2   -1    0    0  502    0  0.00000000000E+00  0.00000000000E+00  0.48217070064E+03  0.48217070064E+03  0.00000000000E+00 0. -1.
         -2   -1    0    0    0  501 -0.00000000000E+00 -0.00000000000E+00 -0.49117065619E+01  0.49117065619E+01  0.00000000000E+00 0.  1.
          1    1    1    2  502    0  0.20389081491E+02  0.10574324850E+02  0.23919019315E+02  0.33160978198E+02  0.00000000000E+00 0.  1.
         -1    1    1    2    0  501 -0.20389081491E+02 -0.10574324850E+02  0.45333997476E+03  0.45392142900E+03  0.00000000000E+00 0. -1.
</event>
<event>
 4    1  0.6629728E+001  0.2164766E+02  0.7546771E-02  0.1510215E+00
          2   -1    0    0  502    0  0.00000000000E+00  0.00000000000E+00  0.13802889997E+04  0.13802889997E+04  0.00000000000E+00 0. -1.
         -2   -1    0    0    0  501 -0.00000000000E+00 -0.00000000000E+00 -0.38871795874E+00  0.38871795874E+00  0.00000000000E+00 0.  1.
          1    1    1    2  502    0 -0.59368956898E+01  0.20817645260E+02  0.93557106319E+03  0.93582147622E+03  0.00000000000E+00 0. -1.
         -1    1    1    2    0  501  0.59368956898E+01 -0.20817645260E+02  0.44432921855E+03  0.44485624143E+03  0.00000000000E+00 0.  1.
</event>
<event>
 4    1  0.6629728E+001  0.2196522E+02  0.7546771E-02  0.1505917E+00
          2   -1    0    0  502    0  0.00000000000E+00  0.00000000000E+00  0.29315002444E+03  0.29315002444E+03  0.00000000000E+00 0. -1.
         -2   -1    0    0    0  501 -0.00000000000E+00 -0.00000000000E+00 -0.26740034519E+01  0.26740034519E+01  0.00000000000E+00 0.  1.
          1    1    1    2  502    0  0.13620121546E+02 -0.17232621722E+02  0.53519150970E+02  0.57851279008E+02  0.00000000000E+00 0.  1.
         -1    1    1    2    0  501 -0.13620121546E+02  0.17232621722E+02  0.23695687002E+03  0.23797274888E+03  0.00000000000E+00 0. -1.
</event>
<event>
 4    1  0.6629728E+001  0.2190807E+02  0.7546771E-02  0.1506684E+00
          2   -1    0    0  502    0  0.00000000000E+00  0.00000000000E+00  0.63753366287E+02  0.63753366287E+02  0.00000000000E+00 0. -1.
         -2   -1    0    0    0  501 -0.00000000000E+00 -0.00000000000E+00 -0.77115930861E+01  0.77115930861E+01  0.00000000000E+00 0.  1.
          1    1    1    2  502    0  0.13576410166E+01  0.21865966522E+02  0.22514168256E+02  0.31414191910E+02  0.00000000000E+00 0. -1.
         -1    1    1    2    0  501 -0.13576410166E+01 -0.21865966522E+02  0.33527604944E+02  0.40050767463E+02  0.00000000000E+00 0.  1.
</event>
<event>
 4    1  0.6629728E+001  0.3230472E+02  0.7546771E-02  0.1400571E+00
          2   -1    0    0  502    0  0.00000000000E+00  0.00000000000E+00  0.13322008198E+03  0.13322008198E+03  0.00000000000E+00 0. -1.
         -2   -1    0    0    0  501 -0.00000000000E+00 -0.00000000000E+00 -0.78357518780E+01  0.78357518780E+01  0.00000000000E+00 0.  1.
          1    1    1    2  502    0 -0.52007416641E+01 -0.31883332880E+02  0.63857271126E+02  0.71563578062E+02  0.00000000000E+00 0. -1.
         -1    1    1    2    0  501  0.52007416641E+01  0.31883332880E+02  0.61527058974E+02  0.69492255795E+02  0.00000000000E+00 0.  1.
</event>
<event>
 4    1  0.6629728E+001  0.3782723E+02  0.7546771E-02  0.1361711E+00
          2   -1    0    0  502    0  0.00000000000E+00  0.00000000000E+00  0.29588845524E+03  0.29588845524E+03  0.00000000000E+00 0.  1.
         -2   -1    0    0    0  501 -0.00000000000E+00 -0.00000000000E+00 -0.48438930286E+01  0.48438930286E+01  0.00000000000E+00 0. -1.
          1    1    1    2  502    0 -0.29882179558E+02  0.23193847904E+02  0.13942999295E+03  0.14447014283E+03  0.00000000000E+00 0.  1.
         -1    1    1    2    0  501  0.29882179558E+02 -0.23193847904E+02  0.15161456926E+03  0.15626220544E+03  0.00000000000E+00 0. -1.
</event>
<event>
 4    1  0.6629728E+001  0.5625581E+02  0.7546771E-02  0.1273114E+00
          2   -1    0    0  502    0  0.00000000000E+00  0.00000000000E+00  0.73792709541E+03  0.73792709541E+03  0.00000000000E+00 0.  1.
         -2   -1    0    0    0  501 -0.00000000000E+00 -0.00000000000E+00 -0.62430662019E+01  0.62430662019E+01  0.00000000000E+00 0. -1.
          1    1    1    2  502    0 -0.29752027659E+02 -0.47744460055E+02  0.15765627679E+03  0.16739240792E+03  0.00000000000E+00 0. -1.
         -1    1    1    2    0  501  0.29752027659E+02  0.47744460055E+02  0.57402775242E+03  0.57677775370E+03  0.00000000000E+00 0.  1.
</event>
<event>
 4    1  0.6629728E+001  0.2911718E+02  0.7546771E-02  0.1427426E+00
          2   -1    0    0  502    0  0.00000000000E+00  0.00000000000E+00  0.18642810522E+02  0.18642810522E+02  0.00000000000E+00 0.  1.
         -2   -1    0    0    0  501 -0.00000000000E+00 -0.00000000000E+00 -0.53894947251E+02  0.53894947251E+02  0.00000000000E+00 0. -1.
          1    1    1    2  502    0 -0.24843293429E+02 -0.15186208541E+02 -0.32917987237E+01  0.29302663652E+02  0.00000000000E+00 0.  1.
         -1    1    1    2    0  501  0.24843293429E+02  0.15186208541E+02 -0.31960338006E+02  0.43235094122E+02  0.00000000000E+00 0. -1.
</event>
<event>
 4    1  0.6629728E+001  0.2505510E+02  0.7546771E-02  0.1468188E+00
          2   -1    0    0  502    0  0.00000000000E+00  0.00000000000E+00  0.27639636865E+02  0.27639636865E+02  0.00000000000E+00 0.  1.
         -2   -1    0    0    0  501 -0.00000000000E+00 -0.00000000000E+00 -0.70207344581E+02  0.70207344581E+02  0.00000000000E+00 0. -1.
          1    1    1    2  502    0  0.14302036263E+02  0.20572061541E+02  0.18955463563E+02  0.31417631295E+02  0.00000000000E+00 0.  1.
         -1    1    1    2    0  501 -0.14302036263E+02 -0.20572061541E+02 -0.61523171279E+02  0.66429350151E+02  0.00000000000E+00 0. -1.
</event>
<event>
 4    1  0.6629728E+001  0.2105413E+02  0.7546771E-02  0.1518493E+00
          2   -1    0    0  502    0  0.00000000000E+00  0.00000000000E+00  0.49437472854E+02  0.49437472854E+02  0.00000000000E+00 0. -1.
         -2   -1    0    0    0  501 -0.00000000000E+00 -0.00000000000E+00 -0.92463682722E+01  0.92463682722E+01  0.00000000000E+00 0.  1.
          1    1    1    2  502    0  0.41954447326E+01  0.20631888242E+02  0.25201200445E+02  0.32838652116E+02  0.00000000000E+00 0.  1.
         -1    1    1    2    0  501 -0.41954447326E+01 -0.20631888242E+02  0.14989904137E+02  0.25845189010E+02  0.00000000000E+00 0. -1.
</event>
<event>
 4    1  0.6629728E+001  0.2264916E+02  0.7546771E-02  0.1496951E+00
          2   -1    0    0  502    0  0.00000000000E+00  0.00000000000E+00  0.15071644530E+04  0.15071644530E+04  0.00000000000E+00 0. -1.
         -2   -1    0    0    0  501 -0.00000000000E+00 -0.00000000000E+00 -0.48055051646E+00  0.48055051646E+00  0.00000000000E+00 0.  1.
          1    1    1    2  502    0  0.15970218592E+02  0.16060401286E+02  0.34619344141E+03  0.34693354298E+03  0.00000000000E+00 0.  1.
         -1    1    1    2    0  501 -0.15970218592E+02 -0.16060401286E+02  0.11604904611E+04  0.11607114605E+04  0.00000000000E+00 0. -1.
</event>
<event>
 4    1  0.6629728E+001  0.2656876E+02  0.7546771E-02  0.1451989E+00
          2   -1    0    0  502    0  0.00000000000E+00  0.00000000000E+00  0.47554706541E+01  0.47554706541E+01  0.00000000000E+00 0. -1.
         -2   -1    0    0    0  501 -0.00000000000E+00 -0.00000000000E+00 -0.25394292487E+03  0.25394292487E+03  0.00000000000E+00 0.  1.
          1    1    1    2  502    0 -0.11865339564E+02  0.23772099484E+02 -0.41219991997E+02  0.49040664117E+02  0.00000000000E+00 0. -1.
         -1    1    1    2    0  501  0.11865339564E+02 -0.23772099484E+02 -0.20796746222E+03  0.20965773141E+03  0.00000000000E+00 0.  1.
</event>
<event>
 4    1  0.6629728E+001  0.2773892E+02  0.7546771E-02  0.1440324E+00
          2   -1    0    0  502    0  0.00000000000E+00  0.00000000000E+00  0.34187527902E+02  0.34187527902E+02  0.00000000000E+00 0. -1.
         -2   -1    0    0    0  501 -0.00000000000E+00 -0.00000000000E+00 -0.40390664990E+02  0.40390664990E+02  0.00000000000E+00 0.  1.
          1    1    1    2  502    0  0.26000441219E+02 -0.96656338622E+01 -0.27914245624E+02  0.39352922767E+02  0.00000000000E+00 0.  1.
         -1    1    1    2    0  501 -0.26000441219E+02  0.96656338622E+01  0.21711108537E+02  0.35225270126E+02  0.00000000000E+00 0. -1.
</event>
<event>
 4    1  0.6629728E+001  0.2132114E+02  0.7546771E-02  0.1514729E+00
          2   -1    0    0  502    0  0.00000000000E+00  0.00000000000E+00  0.26020152009E+03  0.26020152009E+03  0.00000000000E+00 0. -1.
         -2   -1    0    0    0  501 -0.00000000000E+00 -0.00000000000E+00 -0.18403916561E+01  0.18403916561E+01  0.00000000000E+00 0.  1.
          1    1    1    2  502    0  0.16743983749E+02  0.13199614728E+02  0.99677173791E+02  0.10193198613E+03  0.00000000000E+00 0.  1.
         -1    1    1    2    0  501 -0.16743983749E+02 -0.13199614728E+02  0.15868395465E+03  0.16010992562E+03  0.00000000000E+00 0. -1.
</event>
<event>
 4    1  0.6629728E+001  0.2080892E+02  0.7546771E-02  0.1522011E+00
          2   -1    0    0  502    0  0.00000000000E+00  0.00000000000E+00  0.24487787787E+03  0.24487787787E+03  0.00000000000E+00 0. -1.
         -2   -1    0    0    0  501 -0.00000000000E+00 -0.00000000000E+00 -0.18598993515E+01  0.18598993515E+01  0.00000000000E+00 0.  1.
          1    1    1    2  502    0  0.12291560324E+00 -0.20808555367E+02  0.14889127666E+03  0.15033836287E+03  0.00000000000E+00 0. -1.
         -1    1    1    2    0  501 -0.12291560324E+00  0.20808555367E+02  0.94126701858E+02  0.96399414352E+02  0.00000000000E+00 0.  1.
</event>
<event>
 4    1  0.6629728E+001  0.2454539E+02  0.7546771E-02  0.1473954E+00
          2   -1    0    0  502    0  0.00000000000E+00  0.00000000000E+00  0.14800236454E+04  0.14800236454E+04  0.00000000000E+00 0.  1.
         -2   -1    0    0    0  501 -0.00000000000E+00 -0.00000000000E+00 -0.50643100033E+00  0.50643100033E+00  0.00000000000E+00 0. -1.
          1    1    1    2  502    0 -0.88265204550E+01 -0.22903463994E+02  0.41186662935E+03  0.41259737821E+03  0.00000000000E+00 0. -1.
         -1    1    1    2    0  501  0.88265204550E+01  0.22903463994E+02  0.10676505850E+04  0.10679326982E+04  0.00000000000E+00 0.  1.
</event>
<event>
 4    1  0.6629728E+001  0.2600243E+02  0.7546771E-02  0.1457895E+00
          2   -1    0    0  502    0  0.00000000000E+00  0.00000000000E+00  0.46278183864E+03  0.46278183864E+03  0.00000000000E+00 0.  1.
         -2   -1    0    0    0  501 -0.00000000000E+00 -0.00000000000E+00 -0.15520404571E+01  0.15520404571E+01  0.00000000000E+00 0. -1.
          1    1    1    2  502    0  0.25506766028E+02 -0.50528296374E+01  0.17438645030E+03  0.17631437902E+03  0.00000000000E+00 0. -1.
         -1    1    1    2    0  501 -0.25506766028E+02  0.50528296374E+01  0.28684334788E+03  0.28801950008E+03  0.00000000000E+00 0.  1.
</event>
<event>
 4    1  0.6629728E+001  0.3523841E+02  0.7546771E-02  0.1378895E+00
          2   -1    0    0  502    0  0.00000000000E+00  0.00000000000E+00  0.15005840563E+02  0.15005840563E+02  0.00000000000E+00 0.  1.
         -2   -1    0    0    0  501 -0.00000000000E+00 -0.00000000000E+00 -0.11867431437E+03  0.11867431437E+03  0.00000000000E+00 0. -1.
          1    1    1    2  502    0  0.12254772667E+02 -0.33038852835E+02 -0.88608841512E+02  0.95358649549E+02  0.00000000000E+00 0. -1.
         -1    1    1    2    0  501 -0.12254772667E+02  0.33038852835E+02 -0.15059632290E+02  0.38321505379E+02  0.00000000000E+00 0.  1.
</event>
<event>
 4    1  0.6629728E+001  0.3148196E+02  0.7546771E-02  0.1407141E+00
          2   -1    0    0  502    0  0.00000000000E+00  0.00000000000E+00  0.34493529482E+04  0.34493529482E+04  0.00000000000E+00 0.  1.
         -2   -1    0    0    0  501 -0.00000000000E+00 -0.00000000000E+00 -0.28800962533E+00  0.28800962533E+00  0.00000000000E+00 0. -1.
          1    1    1    2  502    0  0.72305171062E+01 -0.30640383822E+02  0.16409410502E+04  0.16412430179E+04  0.00000000000E+00 0. -1.
         -1    1    1    2    0  501 -0.72305171062E+01  0.30640383822E+02  0.18081238884E+04  0.18083979399E+04  0.00000000000E+00 0.  1.
</event>
<event>
 4    1  0.6629728E+001  0.2038514E+02  0.7546771E-02  0.1528227E+00
          2   -1    0    0  502    0  0.00000000000E+00  0.00000000000E+00  0.34231848389E+01  0.34231848389E+01  0.00000000000E+00 0.  1.
         -2   -1    0    0    0  501 -0.00000000000E+00 -0.00000000000E+00 -0.12311670427E+03  0.12311670427E+03  0.00000000000E+00 0. -1.
          1    1    1    2  502    0  0.18986756522E+02 -0.74200323874E+01 -0.52362389806E+02  0.56190512278E+02  0.00000000000E+00 0.  1.
         -1    1    1    2    0  501 -0.18986756522E+02  0.74200323874E+01 -0.67331129624E+02  0.70349376829E+02  0.00000000000E+00 0. -1.
</event>
<event>
 4    1  0.6629728E+001  0.2354341E+02  0.7546771E-02  0.1485785E+00
          2   -1    0    0  502    0  0.00000000000E+00  0.00000000000E+00  0.37568967081E+03  0.37568967081E+03  0.00000000000E+00 0.  1.
         -2   -1    0    0    0  501 -0.00000000000E+00 -0.00000000000E+00 -0.15028447067E+01  0.15028447067E+01  0.00000000000E+00 0. -1.
          1    1    1    2  502    0  0.21408370539E+02 -0.97966270719E+01  0.21258000854E+03  0.21387976123E+03  0.00000000000E+00 0.  1.
         -1    1    1    2    0  501 -0.21408370539E+02  0.97966270719E+01  0.16160681756E+03  0.16331275429E+03  0.00000000000E+00 0. -1.
</event>
<event>
 4    1  0.6629728E+001  0.2376404E+02  0.7546771E-02  0.1483121E+00
          2   -1    0    0  502    0  0.00000000000E+00  0.00000000000E+00  0.22724157208E+01  0.22724157208E+01  0.00000000000E+00 0. -1.
         -2   -1    0    0    0  501 -0.00000000000E+00 -0.00000000000E+00 -0.24949296902E+03  0.24949296902E+03  0.00000000000E+00 0.  1.
          1    1    1    2  502    0  0.89328529586E+01  0.22021211619E+02 -0.11572935671E+03  0.11814403764E+03  0.00000000000E+00 0.  1.
         -1    1    1    2    0  501 -0.89328529586E+01 -0.22021211619E+02 -0.13149119659E+03  0.13362134711E+03  0.00000000000E+00 0. -1.
</event>
<event>
 4    1  0.6629728E+001  0.5930257E+02  0.7546771E-02  0.1262221E+00
          2   -1    0    0  502    0  0.00000000000E+00  0.00000000000E+00  0.16345933311E+03  0.16345933311E+03  0.00000000000E+00 0.  1.
         -2   -1    0    0    0  501 -0.00000000000E+00 -0.00000000000E+00 -0.27614658352E+02  0.27614658352E+02  0.00000000000E+00 0. -1.
          1    1    1    2  502    0 -0.64616673451E+01  0.58949484750E+02  0.23020758752E+02  0.63614072584E+02  0.00000000000E+00 0. -1.
         -1    1    1    2    0  501  0.64616673451E+01 -0.58949484750E+02  0.11282391600E+03  0.12745991887E+03  0.00000000000E+00 0.  1.
</event>
<event>
 4    1  0.6629728E+001  0.3208626E+02  0.7546771E-02  0.1402293E+00
          2   -1    0    0  502    0  0.00000000000E+00  0.00000000000E+00  0.19777518716E+02  0.19777518716E+02  0.00000000000E+00 0.  1.
         -2   -1    0    0    0  501 -0.00000000000E+00 -0.00000000000E+00 -0.52629749527E+02  0.52629749527E+02  0.00000000000E+00 0. -1.
          1    1    1    2  502    0  0.14662815053E+02  0.28539965810E+02 -0.12644278969E+02  0.34487759921E+02  0.00000000000E+00 0. -1.
         -1    1    1    2    0  501 -0.14662815053E+02 -0.28539965810E+02 -0.20207951842E+02  0.37919508322E+02  0.00000000000E+00 0.  1.
</event>
<event>
 4    1  0.6629728E+001  0.2495155E+02  0.7546771E-02  0.1469346E+00
          2   -1    0    0  502    0  0.00000000000E+00  0.00000000000E+00  0.82654932756E+03  0.82654932756E+03  0.00000000000E+00 0.  1.
         -2   -1    0    0    0  501 -0.00000000000E+00 -0.00000000000E+00 -0.77692444052E+00  0.77692444052E+00  0.00000000000E+00 0. -1.
          1    1    1    2  502    0  0.23435672104E+02  0.85644154464E+01  0.48513002565E+03  0.48577126482E+03  0.00000000000E+00 0. -1.
         -1    1    1    2    0  501 -0.23435672104E+02 -0.85644154464E+01  0.34064237746E+03  0.34155498717E+03  0.00000000000E+00 0.  1.
</event>
<event>
 4    1  0.6629728E+001  0.2656737E+02  0.7546771E-02  0.1452003E+00
          2   -1    0    0  502    0  0.00000000000E+00  0.00000000000E+00  0.19234305349E+01  0.19234305349E+01  0.00000000000E+00 0. -1.
         -2   -1    0    0    0  501 -0.00000000000E+00 -0.00000000000E+00 -0.74793988215E+03  0.74793988215E+03  0.00000000000E+00 0.  1.
          1    1    1    2  502    0  0.23283710679E+01 -0.26465148630E+02 -0.64059755942E+03  0.64114823445E+03  0.00000000000E+00 0.  1.
         -1    1    1    2    0  501 -0.23283710679E+01  0.26465148630E+02 -0.10541889219E+03  0.10871507823E+03  0.00000000000E+00 0. -1.
</event>
<event>
 4    1  0.6629728E+001  0.2119037E+02  0.7546771E-02  0.1516564E+00
          2   -1    0    0  502    0  0.00000000000E+00  0.00000000000E+00  0.13914349007E+02  0.13914349007E+02  0.00000000000E+00 0.  1.
         -2   -1    0    0    0  501 -0.00000000000E+00 -0.00000000000E+00 -0.32676623252E+02  0.32676623252E+02  0.00000000000E+00 0. -1.
          1    1    1    2  502    0  0.67016257627E+01  0.20102732791E+02 -0.11976208599E+02  0.24340526410E+02  0.00000000000E+00 0. -1.
         -1    1    1    2    0  501 -0.67016257627E+01 -0.20102732791E+02 -0.67860656469E+01  0.22250445849E+02  0.00000000000E+00 0.  1.
</event>
<event>
 4    1  0.6629728E+001  0.3954695E+02  0.7546771E-02  0.1351161E+00
          2   -1    0    0  502    0  0.00000000000E+00  0.00000000000E+00  0.18192125945E+03  0.18192125945E+03  0.00000000000E+00 0.  1.
         -2   -1    0    0    0  501 -0.00000000000E+00 -0.00000000000E+00 -0.86540993048E+01  0.86540993048E+01  0.00000000000E+00 0. -1.
          1    1    1    2  502    0  0.31060430077E+02  0.24478793246E+02  0.78887828119E+02  0.88245402491E+02  0.00000000000E+00 0.  1.
         -1    1    1    2    0  501 -0.31060430077E+02 -0.24478793246E+02  0.94379332027E+02  0.10232995627E+03  0.00000000000E+00 0. -1.
</event>
<event>
 4    1  0.6629728E+001  0.3818163E+02  0.7546771E-02  0.1359484E+00
          2   -1    0    0  502    0  0.00000000000E+00  0.00000000000E+00  0.75438013743E+03  0.75438013743E+03  0.00000000000E+00 0. -1.
         -2   -1    0    0    0  501 -0.00000000000E+00 -0.00000000000E+00 -0.23345746554E+01  0.23345746554E+01  0.00000000000E+00 0.  1.
          1    1    1    2  502    0  0.12230346896E+01 -0.38162037764E+02  0.21900329108E+03  0.22230672154E+03  0.00000000000E+00 0.  1.
         -1    1    1    2    0  501 -0.12230346896E+01  0.38162037764E+02  0.53304227169E+03  0.53440799054E+03  0.00000000000E+00 0. -1.
</event>
<event>
 4    1  0.6629728E+001  0.2256374E+02  0.7546771E-02  0.1498050E+00
          2   -1    0    0  502    0  0.00000000000E+00  0.00000000000E+00  0.27109221525E+03  0.27109221525E+03  0.00000000000E+00 0.  1.
         -2   -1    0    0    0  501 -0.00000000000E+00 -0.00000000000E+00 -0.27585813396E+01  0.27585813396E+01  0.00000000000E+00 0. -1.
          1    1    1    2  502    0 -0.21340428600E+02  0.73286131364E+01  0.21152666200E+03  0.21272670542E+03  0.00000000000E+00 0. -1.
         -1    1    1    2    0  501  0.21340428600E+02 -0.73286131364E+01  0.56806971916E+02  0.61124091172E+02  0.00000000000E+00 0.  1.
</event>
<event>
 4    1  0.6629728E+001  0.2094932E+02  0.7546771E-02  0.1519990E+00
          2   -1    0    0  502    0  0.00000000000E+00  0.00000000000E+00  0.49545780577E+01  0.49545780577E+01  0.00000000000E+00 0. -1.
         -2   -1    0    0    0  501 -0.00000000000E+00 -0.00000000000E+00 -0.99442495238E+02  0.99442495238E+02  0.00000000000E+00 0.  1.
          1    1    1    2  502    0  0.20899230372E+02 -0.14477523944E+01 -0.64496299987E+02  0.67813321178E+02  0.00000000000E+00 0.  1.
         -1    1    1    2    0  501 -0.20899230372E+02  0.14477523944E+01 -0.29991617194E+02  0.36583752118E+02  0.00000000000E+00 0. -1.
</event>
<event>
 4    1  0.6629728E+001  0.1058698E+03  0.7546771E-02  0.1154008E+00
          2   -1    0    0  502    0  0.00000000000E+00  0.00000000000E+00  0.23885126172E+04  0.23885126172E+04  0.00000000000E+00 0. -1.
         -2   -1    0    0    0  501 -0.00000000000E+00 -0.00000000000E+00 -0.50264181815E+01  0.50264181815E+01  0.00000000000E+00 0.  1.
          1    1    1    2  502    0 -0.10558081149E+03  0.78175286950E+01  0.15001417388E+04  0.15038728862E+04  0.00000000000E+00 0. -1.
         -1    1    1    2    0  501  0.10558081149E+03 -0.78175286950E+01  0.88334446026E+03  0.88966614917E+03  0.00000000000E+00 0.  1.
</event>
<event>
 4    1  0.6629728E+001  0.3171902E+02  0.7546771E-02  0.1405224E+00
          2   -1    0    0  502    0  0.00000000000E+00  0.00000000000E+00  0.18847660802E+04  0.18847660802E+04  0.00000000000E+00 0. -1.
         -2   -1    0    0    0  501 -0.00000000000E+00 -0.00000000000E+00 -0.53994257425E+00  0.53994257425E+00  0.00000000000E+00 0.  1.
          1    1    1    2  502    0 -0.31641013173E+02 -0.22231442808E+01  0.10426218689E+04  0.10431042410E+04  0.00000000000E+00 0.  1.
         -1    1    1    2    0  501  0.31641013173E+02  0.22231442808E+01  0.84160426864E+03  0.84220178169E+03  0.00000000000E+00 0. -1.
</event>
<event>
 4    1  0.6629728E+001  0.2217731E+02  0.7546771E-02  0.1503095E+00
          2   -1    0    0  502    0  0.00000000000E+00  0.00000000000E+00  0.79880578690E+01  0.79880578690E+01  0.00000000000E+00 0.  1.
         -2   -1    0    0    0  501 -0.00000000000E+00 -0.00000000000E+00 -0.61617163702E+02  0.61617163702E+02  0.00000000000E+00 0. -1.
          1    1    1    2  502    0  0.19164114336E+02 -0.11161092381E+02 -0.27766443308E+02  0.35536018846E+02  0.00000000000E+00 0. -1.
         -1    1    1    2    0  501 -0.19164114336E+02  0.11161092381E+02 -0.25862662525E+02  0.34069202725E+02  0.00000000000E+00 0.  1.
</event>
<event>
 4    1  0.6629728E+001  0.2073189E+02  0.7546771E-02  0.1523127E+00
          2   -1    0    0  502    0  0.00000000000E+00  0.00000000000E+00  0.49974064752E+01  0.49974064752E+01  0.00000000000E+00 0. -1.
         -2   -1    0    0    0  501 -0.00000000000E+00 -0.00000000000E+00 -0.89408472848E+02  0.89408472848E+02  0.00000000000E+00 0.  1.
          1    1    1    2  502    0  0.79996335895E+01 -0.19126349016E+02 -0.51412584221E+02  0.55435234108E+02  0.00000000000E+00 0.  1.
         -1    1    1    2    0  501 -0.79996335895E+01  0.19126349016E+02 -0.32998482151E+02  0.38970645216E+02  0.00000000000E+00 0. -1.
</event>
<event>
 4    1  0.6629728E+001  0.2411152E+02  0.7546771E-02  0.1478993E+00
          2   -1    0    0  502    0  0.00000000000E+00  0.00000000000E+00  0.10420058283E+04  0.10420058283E+04  0.00000000000E+00 0.  1.
         -2   -1    0    0    0  501 -0.00000000000E+00 -0.00000000000E+00 -0.55793035979E+00  0.55793035979E+00  0.00000000000E+00 0. -1.
          1    1    1    2  502    0 -0.19841209205E+02  0.13700061525E+02  0.52153810588E+03  0.52209516484E+03  0.00000000000E+00 0.  1.
         -1    1    1    2    0  501  0.19841209205E+02 -0.13700061525E+02  0.51990979202E+03  0.52046859377E+03  0.00000000000E+00 0. -1.
</event>
<event>
 4    1  0.6629728E+001  0.2082620E+02  0.7546771E-02  0.1521761E+00
          2   -1    0    0  502    0  0.00000000000E+00  0.00000000000E+00  0.10937347487E+02  0.10937347487E+02  0.00000000000E+00 0.  1.
         -2   -1    0    0    0  501 -0.00000000000E+00 -0.00000000000E+00 -0.46650434119E+02  0.46650434119E+02  0.00000000000E+00 0. -1.
          1    1    1    2  502    0  0.77276148340E+01 -0.19339460252E+02 -0.67071616635E+01  0.21879597150E+02  0.00000000000E+00 0.  1.
         -1    1    1    2    0  501 -0.77276148340E+01  0.19339460252E+02 -0.29005924968E+02  0.35708184456E+02  0.00000000000E+00 0. -1.
</event>
<event>
 4    1  0.6629728E+001  0.2059250E+02  0.7546771E-02  0.1525163E+00
          2   -1    0    0  502    0  0.00000000000E+00  0.00000000000E+00  0.24430618618E+02  0.24430618618E+02  0.00000000000E+00 0. -1.
         -2   -1    0    0    0  501 -0.00000000000E+00 -0.00000000000E+00 -0.18770786906E+02  0.18770786906E+02  0.00000000000E+00 0.  1.
          1    1    1    2  502    0 -0.19810011716E+02 -0.56226758064E+01  0.87573029005E+01  0.22377251876E+02  0.00000000000E+00 0. -1.
         -1    1    1    2    0  501  0.19810011716E+02  0.56226758064E+01 -0.30974711887E+01  0.20824153648E+02  0.00000000000E+00 0.  1.
</event>
<event>
 4    1  0.6629728E+001  0.2363654E+02  0.7546771E-02  0.1484656E+00
          2   -1    0    0  502    0  0.00000000000E+00  0.00000000000E+00  0.16968930285E+04  0.16968930285E+04  0.00000000000E+00 0.  1.
         -2   -1    0    0    0  501 -0.00000000000E+00 -0.00000000000E+00 -0.33843028700E+00  0.33843028700E+00  0.00000000000E+00 0. -1.
          1    1    1    2  502    0 -0.19291204108E+02 -0.13657800649E+02  0.98811584070E+03  0.98839850300E+03  0.00000000000E+00 0.  1.
         -1    1    1    2    0  501  0.19291204108E+02  0.13657800649E+02  0.70843875749E+03  0.70883295578E+03  0.00000000000E+00 0. -1.
</event>
<event>
 4    1  0.6629728E+001  0.2394997E+02  0.7546771E-02  0.1480902E+00
          2   -1    0    0  502    0  0.00000000000E+00  0.00000000000E+00  0.72476980992E+02  0.72476980992E+02  0.00000000000E+00 0.  1.
         -2   -1    0    0    0  501 -0.00000000000E+00 -0.00000000000E+00 -0.12229131183E+02  0.12229131183E+02  0.00000000000E+00 0. -1.
          1    1    1    2  502    0 -0.61731531082E+01 -0.23140726627E+02  0.55281646212E+02  0.60246671743E+02  0.00000000000E+00 0.  1.
         -1    1    1    2    0  501  0.61731531082E+01  0.23140726627E+02  0.49662035960E+01  0.24459440432E+02  0.00000000000E+00 0. -1.
</event>
<event>
 4    1  0.6629728E+001  0.2015415E+02  0.7546771E-02  0.1531692E+00
          2   -1    0    0  502    0  0.00000000000E+00  0.00000000000E+00  0.16229343872E+02  0.16229343872E+02  0.00000000000E+00 0. -1.
         -2   -1    0    0    0  501 -0.00000000000E+00 -0.00000000000E+00 -0.87709199443E+02  0.87709199443E+02  0.00000000000E+00 0.  1.
          1    1    1    2  502    0 -0.62889219041E+01 -0.19147829901E+02 -0.79673073230E+02  0.82182653441E+02  0.00000000000E+00 0.  1.
         -1    1    1    2    0  501  0.62889219041E+01  0.19147829901E+02  0.81932176588E+01  0.21755889874E+02  0.00000000000E+00 0. -1.
</event>
<event>
 4    1  0.6629728E+001  0.4618289E+02  0.7546771E-02  0.1315628E+00
          2   -1    0    0  502    0  0.00000000000E+00  0.00000000000E+00  0.22359967055E+02  0.22359967055E+02  0.00000000000E+00 0. -1.
         -2   -1    0    0    0  501 -0.00000000000E+00 -0.00000000000E+00 -0.96610595817E+02  0.96610595817E+02  0.00000000000E+00 0.  1.
          1    1    1    2  502    0 -0.40464684344E+02  0.22259118311E+02 -0.30431928177E+02  0.55307877193E+02  0.00000000000E+00 0. -1.
         -1    1    1    2    0  501  0.40464684344E+02 -0.22259118311E+02 -0.43818700584E+02  0.63662685679E+02  0.00000000000E+00 0.  1.
</event>
<event>
 4    1  0.6629728E+001  0.2405766E+02  0.7546771E-02  0.1479628E+00
          2   -1    0    0  502    0  0.00000000000E+00  0.00000000000E+00  0.12926917748E+03  0.12926917748E+03  0.00000000000E+00 0.  1.
         -2   -1    0    0    0  501 -0.00000000000E+00 -0.00000000000E+00 -0.81388629855E+01  0.81388629855E+01  0.00000000000E+00 0. -1.
          1    1    1    2  502    0 -0.20394026531E+02  0.12761450530E+02  0.14482632343E+02  0.28080555147E+02  0.00000000000E+00 0. -1.
         -1    1    1    2    0  501  0.20394026531E+02 -0.12761450530E+02  0.10664768215E+03  0.10932748532E+03  0.00000000000E+00 0.  1.
</event>
<event>
 4    1  0.6629728E+001  0.2260922E+02  0.7546771E-02  0.1497464E+00
          2   -1    0    0  502    0  0.00000000000E+00  0.00000000000E+00  0.13541757063E+03  0.13541757063E+03  0.00000000000E+00 0.  1.
         -2   -1    0    0    0  501 -0.00000000000E+00 -0.00000000000E+00 -0.80014929449E+01  0.80014929449E+01  0.00000000000E+00 0. -1.
          1    1    1    2  502    0 -0.20587159388E+02 -0.93458886075E+01  0.11582640192E+03  0.11801242370E+03  0.00000000000E+00 0.  1.
         -1    1    1    2    0  501  0.20587159388E+02  0.93458886075E+01  0.11589675769E+02  0.25406639880E+02  0.00000000000E+00 0. -1.
</event>
<event>
 4    1  0.6629728E+001  0.3709732E+02  0.7546771E-02  0.1366390E+00
          2   -1    0    0  502    0  0.00000000000E+00  0.00000000000E+00  0.22192901858E+04  0.22192901858E+04  0.00000000000E+00 0.  1.
         -2   -1    0    0    0  501 -0.00000000000E+00 -0.00000000000E+00 -0.90191142842E+00  0.90191142842E+00  0.00000000000E+00 0. -1.
          1    1    1    2  502    0 -0.22969372280E+02  0.29131069363E+02  0.48868569134E+03  0.49009174262E+03  0.00000000000E+00 0. -1.
         -1    1    1    2    0  501  0.22969372280E+02 -0.29131069363E+02  0.17297025830E+04  0.17301003546E+04  0.00000000000E+00 0.  1.
</event>
<event>
 4    1  0.6629728E+001  0.2157452E+02  0.7546771E-02  0.1511218E+00
          2   -1    0    0  502    0  0.00000000000E+00  0.00000000000E+00  0.27432640864E+01  0.27432640864E+01  0.00000000000E+00 0. -1.
         -2   -1    0    0    0  501 -0.00000000000E+00 -0.00000000000E+00 -0.24669379618E+03  0.24669379618E+03  0.00000000000E+00 0.  1.
          1    1    1    2  502    0  0.14594475564E+02  0.15889031351E+02 -0.19166256376E+03  0.19287301103E+03  0.00000000000E+00 0. -1.
         -1    1    1    2    0  501 -0.14594475564E+02 -0.15889031351E+02 -0.52287968333E+02  0.56564049242E+02  0.00000000000E+00 0.  1.
</event>
<event>
 4    1  0.6629728E+001  0.2273493E+02  0.7546771E-02  0.1495854E+00
          2   -1    0    0  502    0  0.00000000000E+00  0.00000000000E+00  0.77240218820E+01  0.77240218820E+01  0.00000000000E+00 0. -1.
         -2   -1    0    0    0  501 -0.00000000000E+00 -0.00000000000E+00 -0.67534834522E+02  0.67534834522E+02  0.00000000000E+00 0.  1.
          1    1    1    2  502    0  0.14319977988E+02  0.17658295739E+02 -0.33501232834E+02  0.40487155733E+02  0.00000000000E+00 0.  1.
         -1    1    1    2    0  501 -0.14319977988E+02 -0.17658295739E+02 -0.26309579806E+02  0.34771700671E+02  0.00000000000E+00 0. -1.
</event>
<event>
 4    1  0.6629728E+001  0.4935515E+02  0.7546771E-02  0.1300993E+00
          2   -1    0    0  502    0  0.00000000000E+00  0.00000000000E+00  0.63164867950E+03  0.63164867950E+03  0.00000000000E+00 0. -1.
         -2   -1    0    0    0  501 -0.00000000000E+00 -0.00000000000E+00 -0.50390770672E+01  0.50390770672E+01  0.00000000000E+00 0.  1.
          1    1    1    2  502    0 -0.49259878054E+02 -0.30651332980E+01  0.15908424290E+03  0.16656448291E+03  0.00000000000E+00 0.  1.
         -1    1    1    2    0  501  0.49259878054E+02  0.30651332980E+01  0.46752535954E+03  0.47012327366E+03  0.00000000000E+00 0. -1.
</event>
<event>
 4    1  0.6629728E+001  0.2662183E+02  0.7546771E-02  0.1451444E+00
          2   -1    0    0  502    0  0.00000000000E+00  0.00000000000E+00  0.13168206277E+03  0.13168206277E+03  0.00000000000E+00 0.  1.
         -2   -1    0    0    0  501 -0.00000000000E+00 -0.00000000000E+00 -0.11232718054E+02  0.11232718054E+02  0.00000000000E+00 0. -1.
          1    1    1    2  502    0  0.18343308383E+02  0.19293651328E+02  0.86535304211E+01  0.27992955055E+02  0.00000000000E+00 0. -1.
         -1    1    1    2    0  501 -0.18343308383E+02 -0.19293651328E+02  0.11179581430E+03  0.11492182577E+03  0.00000000000E+00 0.  1.
</event>
<event>
 4    1  0.6629728E+001  0.5051998E+02  0.7546771E-02  0.1295934E+00
          2   -1    0    0  502    0  0.00000000000E+00  0.00000000000E+00  0.29395212216E+03  0.29395212216E+03  0.00000000000E+00 0. -1.
         -2   -1    0    0    0  501 -0.00000000000E+00 -0.00000000000E+00 -0.88099262050E+01  0.88099262050E+01  0.00000000000E+00 0.  1.
          1    1    1    2  502    0  0.78228779189E+01 -0.49910631247E+02  0.16076999892E+03  0.16852080312E+03  0.00000000000E+00 0. -1.
         -1    1    1    2    0  501 -0.78228779189E+01  0.49910631247E+02  0.12437219703E+03  0.13424124525E+03  0.00000000000E+00 0.  1.
</event>
<event>
 4    1  0.6629728E+001  0.2257634E+02  0.7546771E-02  0.1497888E+00
          2   -1    0    0  502    0  0.00000000000E+00  0.00000000000E+00  0.98440558197E+03  0.98440558197E+03  0.00000000000E+00 0. -1.
         -2   -1    0    0    0  501 -0.00000000000E+00 -0.00000000000E+00 -0.61581040685E+00  0.61581040685E+00  0.00000000000E+00 0.  1.
          1    1    1    2  502    0  0.22454500107E+02 -0.23423046814E+01  0.68841423107E+03  0.68878432365E+03  0.00000000000E+00 0. -1.
         -1    1    1    2    0  501 -0.22454500107E+02  0.23423046814E+01  0.29537554049E+03  0.29623706873E+03  0.00000000000E+00 0.  1.
</event>
<event>
 4    1  0.6629728E+001  0.2535614E+02  0.7546771E-02  0.1464858E+00
          2   -1    0    0  502    0  0.00000000000E+00  0.00000000000E+00  0.19657099790E+02  0.19657099790E+02  0.00000000000E+00 0.  1.
         -2   -1    0    0    0  501 -0.00000000000E+00 -0.00000000000E+00 -0.32962590633E+02  0.32962590633E+02  0.00000000000E+00 0. -1.
          1    1    1    2  502    0 -0.22782844664E+02 -0.11129944635E+02 -0.89674437960E+01  0.26895143182E+02  0.00000000000E+00 0. -1.
         -1    1    1    2    0  501  0.22782844664E+02  0.11129944635E+02 -0.43380470463E+01  0.25724547241E+02  0.00000000000E+00 0.  1.
</event>
<event>
 4    1  0.6629728E+001  0.2634495E+02  0.7546771E-02  0.1454301E+00
          2   -1    0    0  502    0  0.00000000000E+00  0.00000000000E+00  0.25531377375E+04  0.25531377375E+04  0.00000000000E+00 0. -1.
         -2   -1    0    0    0  501 -0.00000000000E+00 -0.00000000000E+00 -0.29434277389E+00  0.29434277389E+00  0.00000000000E+00 0.  1.
          1    1    1    2  502    0 -0.17531540391E+02  0.19664730094E+02  0.92344830097E+03  0.92382402062E+03  0.00000000000E+00 0.  1.
         -1    1    1    2    0  501  0.17531540391E+02 -0.19664730094E+02  0.16293950937E+04  0.16296080596E+04  0.00000000000E+00 0. -1.
</event>
<event>
 4    1  0.6629728E+001  0.2354359E+02  0.7546771E-02  0.1485783E+00
          2   -1    0    0  502    0  0.00000000000E+00  0.00000000000E+00  0.15592784518E+03  0.15592784518E+03  0.00000000000E+00 0. -1.
         -2   -1    0    0    0  501 -0.00000000000E+00 -0.00000000000E+00 -0.42570849828E+01  0.42570849828E+01  0.00000000000E+00 0.  1.
          1    1    1    2  502    0 -0.11282342330E+02  0.20664210923E+02  0.43306042362E+02  0.49292130879E+02  0.00000000000E+00 0.  1.
         -1    1    1    2    0  501  0.11282342330E+02 -0.20664210923E+02  0.10836471783E+03  0.11089279928E+03  0.00000000000E+00 0. -1.
</event>
<event>
 4    1  0.6629728E+001  0.2769832E+02  0.7546771E-02  0.1440717E+00
          2   -1    0    0  502    0  0.00000000000E+00  0.00000000000E+00  0.62202166885E+03  0.62202166885E+03  0.00000000000E+00 0.  1.
         -2   -1    0    0    0  501 -0.00000000000E+00 -0.00000000000E+00 -0.12343869649E+01  0.12343869649E+01  0.00000000000E+00 0. -1.
          1    1    1    2  502    0  0.24042548788E+02 -0.13753281444E+02  0.31923850180E+03  0.32043785347E+03  0.00000000000E+00 0. -1.
         -1    1    1    2    0  501 -0.24042548788E+02  0.13753281444E+02  0.30154878008E+03  0.30281820234E+03  0.00000000000E+00 0.  1.
</event>
<event>
 4    1  0.6629728E+001  0.1323642E+03  0.7546771E-02  0.1117203E+00
          2   -1    0    0  502    0  0.00000000000E+00  0.00000000000E+00  0.44880726752E+03  0.44880726752E+03  0.00000000000E+00 0.  1.
         -2   -1    0    0    0  501 -0.00000000000E+00 -0.00000000000E+00 -0.12230472818E+03  0.12230472818E+03  0.00000000000E+00 0. -1.
          1    1    1    2  502    0  0.51096445578E+01 -0.13226558890E+03 -0.72365842588E+02  0.15085459770E+03  0.00000000000E+00 0. -1.
         -1    1    1    2    0  501 -0.51096445578E+01  0.13226558890E+03  0.39886838193E+03  0.42025739800E+03  0.00000000000E+00 0.  1.
</event>
<event>
 4    1  0.6629728E+001  0.2351236E+02  0.7546771E-02  0.1486163E+00
          2   -1    0    0  502    0  0.00000000000E+00  0.00000000000E+00  0.67010816279E+03  0.67010816279E+03  0.00000000000E+00 0. -1.
         -2   -1    0    0    0  501 -0.00000000000E+00 -0.00000000000E+00 -0.10074604960E+01  0.10074604960E+01  0.00000000000E+00 0.  1.
          1    1    1    2  502    0 -0.21439140056E+02  0.96537194320E+01  0.47735828799E+03  0.47793698971E+03  0.00000000000E+00 0. -1.
         -1    1    1    2    0  501  0.21439140056E+02 -0.96537194320E+01  0.19174241431E+03  0.19317863357E+03  0.00000000000E+00 0.  1.
</event>
<event>
 4    1  0.6629728E+001  0.2622261E+02  0.7546771E-02  0.1455577E+00
          2   -1    0    0  502    0  0.00000000000E+00  0.00000000000E+00  0.22176254769E+02  0.22176254769E+02  0.00000000000E+00 0. -1.
         -2   -1    0    0    0  501 -0.00000000000E+00 -0.00000000000E+00 -0.32337356419E+02  0.32337356419E+02  0.00000000000E+00 0.  1.
          1    1    1    2  502    0  0.25918417368E+02 -0.39825588887E+01  0.44737897603E+00  0.26226423357E+02  0.00000000000E+00 0. -1.
         -1    1    1    2    0  501 -0.25918417368E+02  0.39825588887E+01 -0.10608480626E+02  0.28287187831E+02  0.00000000000E+00 0.  1.
</event>
<event>
 4    1  0.6629728E+001  0.2010868E+02  0.7546771E-02  0.1532381E+00
          2   -1    0    0  502    0  0.00000000000E+00  0.00000000000E+00  0.75119423729E+02  0.75119423729E+02  0.00000000000E+00 0. -1.
         -2   -1    0    0    0  501 -0.00000000000E+00 -0.00000000000E+00 -0.75055687161E+01  0.75055687161E+01  0.00000000000E+00 0.  1.
          1    1    1    2  502    0 -0.36523184291E+01 -0.19774210625E+02  0.11836788702E+02  0.23333846715E+02  0.00000000000E+00 0.  1.
         -1    1    1    2    0  501  0.36523184291E+01  0.19774210625E+02  0.55777066311E+02  0.59291145730E+02  0.00000000000E+00 0. -1.
</event>
<event>
 4    1  0.6629728E+001  0.2192495E+02  0.7546771E-02  0.1506458E+00
          2   -1    0    0  502    0  0.00000000000E+00  0.00000000000E+00  0.13545075209E+03  0.13545075209E+03  0.00000000000E+00 0. -1.
         -2   -1    0    0    0  501 -0.00000000000E+00 -0.00000000000E+00 -0.40027168428E+01  0.40027168428E+01  0.00000000000E+00 0.  1.
          1    1    1    2  502    0 -0.17869882068E+02 -0.12703172796E+02  0.89201674047E+02  0.91856637959E+02  0.00000000000E+00 0.  1.
         -1    1    1    2    0  501  0.17869882068E+02  0.12703172796E+02  0.42246361204E+02  0.47596830979E+02  0.00000000000E+00 0. -1.
</event>
<event>
 4    1  0.6629728E+001  0.2932078E+02  0.7546771E-02  0.1425592E+00
          2   -1    0    0  502    0  0.00000000000E+00  0.00000000000E+00  0.10253489181E+02  0.10253489181E+02  0.00000000000E+00 0. -1.
         -2   -1    0    0    0  501 -0.00000000000E+00 -0.00000000000E+00 -0.10673241235E+03  0.10673241235E+03  0.00000000000E+00 0.  1.
          1    1    1    2  502    0 -0.12408762228E+02 -0.26565597940E+02 -0.75325749023E+02  0.80831162554E+02  0.00000000000E+00 0.  1.
         -1    1    1    2    0  501  0.12408762228E+02  0.26565597940E+02 -0.21153174141E+02  0.36154738973E+02  0.00000000000E+00 0. -1.
</event>
<event>
 4    1  0.6629728E+001  0.2080204E+02  0.7546771E-02  0.1522110E+00
          2   -1    0    0  502    0  0.00000000000E+00  0.00000000000E+00  0.46007220985E+03  0.46007220985E+03  0.00000000000E+00 0.  1.
         -2   -1    0    0    0  501 -0.00000000000E+00 -0.00000000000E+00 -0.12831970993E+01  0.12831970993E+01  0.00000000000E+00 0. -1.
          1    1    1    2  502    0  0.91195574579E+01 -0.18696481093E+02  0.11019424516E+03  0.11214052077E+03  0.00000000000E+00 0. -1.
         -1    1    1    2    0  501 -0.91195574579E+01  0.18696481093E+02  0.34859476759E+03  0.34921488617E+03  0.00000000000E+00 0.  1.
</event>
<event>
 4    1  0.6629728E+001  0.2526391E+02  0.7546771E-02  0.1465873E+00
          2   -1    0    0  502    0  0.00000000000E+00  0.00000000000E+00  0.24247069054E+03  0.24247069054E+03  0.00000000000E+00 0. -1.
         -2   -1    0    0    0  501 -0.00000000000E+00 -0.00000000000E+00 -0.26600875338E+01  0.26600875338E+01  0.00000000000E+00 0.  1.
          1    1    1    2  502    0 -0.45335592230E+00  0.25259838967E+02  0.13242349910E+03  0.13481189900E+03  0.00000000000E+00 0. -1.
         -1    1    1    2    0  501  0.45335592230E+00 -0.25259838967E+02  0.10738710390E+03  0.11031887908E+03  0.00000000000E+00 0.  1.
</event>
<event>
 4    1  0.6629728E+001  0.2120771E+02  0.7546771E-02  0.1516320E+00
          2   -1    0    0  502    0  0.00000000000E+00  0.00000000000E+00  0.12388836268E+02  0.12388836268E+02  0.00000000000E+00 0. -1.
         -2   -1    0    0    0  501 -0.00000000000E+00 -0.00000000000E+00 -0.55977343473E+02  0.55977343473E+02  0.00000000000E+00 0.  1.
          1    1    1    2  502    0 -0.15636915308E+02 -0.14326676633E+02 -0.15294658412E+01  0.21262785553E+02  0.00000000000E+00 0. -1.
         -1    1    1    2    0  501  0.15636915308E+02  0.14326676633E+02 -0.42059041364E+02  0.47103394189E+02  0.00000000000E+00 0.  1.
</event>
<event>
 4    1  0.6629728E+001  0.2206695E+02  0.7546771E-02  0.1504559E+00
          2   -1    0    0  502    0  0.00000000000E+00  0.00000000000E+00  0.32752812533E+02  0.32752812533E+02  0.00000000000E+00 0.  1.
         -2   -1    0    0    0  501 -0.00000000000E+00 -0.00000000000E+00 -0.21589545674E+02  0.21589545674E+02  0.00000000000E+00 0. -1.
          1    1    1    2  502    0 -0.21528665483E+02 -0.48442650579E+01 -0.95797745089E+01  0.24056650246E+02  0.00000000000E+00 0. -1.
         -1    1    1    2    0  501  0.21528665483E+02  0.48442650579E+01  0.20743041368E+02  0.30285707960E+02  0.00000000000E+00 0.  1.
</event>
<event>
 4    1  0.6629728E+001  0.2047291E+02  0.7546771E-02  0.1526925E+00
          2   -1    0    0  502    0  0.00000000000E+00  0.00000000000E+00  0.20397467966E+03  0.20397467966E+03  0.00000000000E+00 0.  1.
         -2   -1    0    0    0  501 -0.00000000000E+00 -0.00000000000E+00 -0.28792694476E+01  0.28792694476E+01  0.00000000000E+00 0. -1.
          1    1    1    2  502    0  0.18362311949E+02  0.90534912970E+01  0.45204651196E+02  0.49624597677E+02  0.00000000000E+00 0. -1.
         -1    1    1    2    0  501 -0.18362311949E+02 -0.90534912970E+01  0.15589075901E+03  0.15722935143E+03  0.00000000000E+00 0.  1.
</event>
<event>
 4    1  0.6629728E+001  0.2109484E+02  0.7546771E-02  0.1517915E+00
          2   -1    0    0  502    0  0.00000000000E+00  0.00000000000E+00  0.27262239693E+01  0.27262239693E+01  0.00000000000E+00 0. -1.
         -2   -1    0    0    0  501 -0.00000000000E+00 -0.00000000000E+00 -0.31685256617E+03  0.31685256617E+03  0.00000000000E+00 0.  1.
          1    1    1    2  502    0  0.19252912840E+01  0.21006794564E+02 -0.26832641205E+03  0.26915433411E+03  0.00000000000E+00 0.  1.
         -1    1    1    2    0  501 -0.19252912840E+01 -0.21006794564E+02 -0.45799930146E+02  0.50424456029E+02  0.00000000000E+00 0. -1.
</event>
<event>
 4    1  0.6629728E+001  0.2195283E+02  0.7546771E-02  0.1506083E+00
          2   -1    0    0  502    0  0.00000000000E+00  0.00000000000E+00  0.25700816231E+04  0.25700816231E+04  0.00000000000E+00 0.  1.
         -2   -1    0    0    0  501 -0.00000000000E+00 -0.00000000000E+00 -0.19812669687E+00  0.19812669687E+00  0.00000000000E+00 0. -1.
          1    1    1    2  502    0 -0.57305498858E+01 -0.21191684564E+02  0.15823743059E+04  0.15825265782E+04  0.00000000000E+00 0.  1.
         -1    1    1    2    0  501  0.57305498858E+01  0.21191684564E+02  0.98750919050E+03  0.98775317160E+03  0.00000000000E+00 0. -1.
</event>
<event>
 4    1  0.6629728E+001  0.2207746E+02  0.7546771E-02  0.1504419E+00
          2   -1    0    0  502    0  0.00000000000E+00  0.00000000000E+00  0.10281252757E+01  0.10281252757E+01  0.00000000000E+00 0.  1.
         -2   -1    0    0    0  501 -0.00000000000E+00 -0.00000000000E+00 -0.75392340913E+03  0.75392340913E+03  0.00000000000E+00 0. -1.
          1    1    1    2  502    0 -0.15265809673E+02 -0.15948954453E+02 -0.60642371544E+03  0.60682545822E+03  0.00000000000E+00 0. -1.
         -1    1    1    2    0  501  0.15265809673E+02  0.15948954453E+02 -0.14647156842E+03  0.14812607619E+03  0.00000000000E+00 0.  1.
</event>
<event>
 4    1  0.6629728E+001  0.2469051E+02  0.7546771E-02  0.1472296E+00
          2   -1    0    0  502    0  0.00000000000E+00  0.00000000000E+00  0.35916978553E+03  0.35916978553E+03  0.00000000000E+00 0. -1.
         -2   -1    0    0    0  501 -0.00000000000E+00 -0.00000000000E+00 -0.17519586225E+01  0.17519586225E+01  0.00000000000E+00 0.  1.
          1    1    1    2  502    0  0.87144717393E+01  0.23101503101E+02  0.14683599278E+03  0.14889738157E+03  0.00000000000E+00 0.  1.
         -1    1    1    2    0  501 -0.87144717393E+01 -0.23101503101E+02  0.21058183412E+03  0.21202436258E+03  0.00000000000E+00 0. -1.
</event>
<event>
 4    1  0.6629728E+001  0.3596155E+02  0.7546771E-02  0.1373926E+00
          2   -1    0    0  502    0  0.00000000000E+00  0.00000000000E+00  0.12595093775E+04  0.12595093775E+04  0.00000000000E+00 0. -1.
         -2   -1    0    0    0  501 -0.00000000000E+00 -0.00000000000E+00 -0.12459517424E+01  0.12459517424E+01  0.00000000000E+00 0.  1.
          1    1    1    2  502    0  0.90535762305E+01 -0.34803243985E+02  0.89352304264E+03  0.89424642061E+03  0.00000000000E+00 0.  1.
         -1    1    1    2    0  501 -0.90535762305E+01  0.34803243985E+02  0.36474038310E+03  0.36650890862E+03  0.00000000000E+00 0. -1.
</event>
<event>
 4    1  0.6629728E+001  0.2258001E+02  0.7546771E-02  0.1497840E+00
          2   -1    0    0  502    0  0.00000000000E+00  0.00000000000E+00  0.22852320797E+02  0.22852320797E+02  0.00000000000E+00 0. -1.
         -2   -1    0    0    0  501 -0.00000000000E+00 -0.00000000000E+00 -0.22835799812E+02  0.22835799812E+02  0.00000000000E+00 0.  1.
          1    1    1    2  502    0  0.18004263865E+02 -0.13627297938E+02  0.34715332388E+01  0.22845312636E+02  0.00000000000E+00 0.  1.
         -1    1    1    2    0  501 -0.18004263865E+02  0.13627297938E+02 -0.34550122545E+01  0.22842807973E+02  0.00000000000E+00 0. -1.
</event>
<event>
 4    1  0.6629728E+001  0.2245099E+02  0.7546771E-02  0.1499510E+00
          2   -1    0    0  502    0  0.00000000000E+00  0.00000000000E+00  0.14926203555E+02  0.14926203555E+02  0.00000000000E+00 0.  1.
         -2   -1    0    0    0  501 -0.00000000000E+00 -0.00000000000E+00 -0.37054504403E+02  0.37054504403E+02  0.00000000000E+00 0. -1.
          1    1    1    2  502    0  0.32087507015E+01 -0.22220504567E+02 -0.33253207948E+01  0.22695917313E+02  0.00000000000E+00 0. -1.
         -1    1    1    2    0  501 -0.32087507015E+01  0.22220504567E+02 -0.18802980053E+02  0.29284790645E+02  0.00000000000E+00 0.  1.
</event>
<event>
 4    1  0.6629728E+001  0.2074759E+02  0.7546771E-02  0.1522899E+00
          2   -1    0    0  502    0  0.00000000000E+00  0.00000000000E+00  0.13059061423E+04  0.13059061423E+04  0.00000000000E+00 0. -1.
         -2   -1    0    0    0  501 -0.00000000000E+00 -0.00000000000E+00 -0.35538076882E+00  0.35538076882E+00  0.00000000000E+00 0.  1.
          1    1    1    2  502    0  0.20119374262E+02  0.50668638598E+01  0.47695429731E+03  0.47740534565E+03  0.00000000000E+00 0.  1.
         -1    1    1    2    0  501 -0.20119374262E+02 -0.50668638598E+01  0.82859646419E+03  0.82885617739E+03  0.00000000000E+00 0. -1.
</event>
<event>
 4    1  0.6629728E+001  0.2108817E+02  0.7546771E-02  0.1518010E+00
          2   -1    0    0  502    0  0.00000000000E+00  0.00000000000E+00  0.89386538029E+02  0.89386538029E+02  0.00000000000E+00 0. -1.
         -2   -1    0    0    0  501 -0.00000000000E+00 -0.00000000000E+00 -0.62707675741E+01  0.62707675741E+01  0.00000000000E+00 0.  1.
          1    1    1    2  502    0 -0.14978318887E+02  0.14844560034E+02  0.19817510390E+02  0.28938637102E+02  0.00000000000E+00 0.  1.
         -1    1    1    2    0  501  0.14978318887E+02 -0.14844560034E+02  0.63298260066E+02  0.66718668501E+02  0.00000000000E+00 0. -1.
</event>
<event>
 4    1  0.6629728E+001  0.4094753E+02  0.7546771E-02  0.1343021E+00
          2   -1    0    0  502    0  0.00000000000E+00  0.00000000000E+00  0.12354576336E+02  0.12354576336E+02  0.00000000000E+00 0. -1.
         -2   -1    0    0    0  501 -0.00000000000E+00 -0.00000000000E+00 -0.15064531485E+03  0.15064531485E+03  0.00000000000E+00 0.  1.
          1    1    1    2  502    0  0.34712067012E+02 -0.21720326436E+02 -0.43487809929E+02  0.59731815552E+02  0.00000000000E+00 0. -1.
         -1    1    1    2    0  501 -0.34712067012E+02  0.21720326436E+02 -0.94802928582E+02  0.10326807563E+03  0.00000000000E+00 0.  1.
</event>
<event>
 4    1  0.6629728E+001  0.2266191E+02  0.7546771E-02  0.1496788E+00
          2   -1    0    0  502    0  0.00000000000E+00  0.00000000000E+00  0.34956464347E+03  0.34956464347E+03  0.00000000000E+00 0.  1.
         -2   -1    0    0    0  501 -0.00000000000E+00 -0.00000000000E+00 -0.14936399382E+01  0.14936399382E+01  0.00000000000E+00 0. -1.
          1    1    1    2  502    0 -0.19206273753E+01 -0.22580371229E+02  0.15155823552E+03  0.15324314251E+03  0.00000000000E+00 0. -1.
         -1    1    1    2    0  501  0.19206273753E+01  0.22580371229E+02  0.19651276801E+03  0.19781514089E+03  0.00000000000E+00 0.  1.
</event>
<event>
 4    1  0.6629728E+001  0.3392538E+02  0.7546771E-02  0.1388280E+00
          2   -1    0    0  502    0  0.00000000000E+00  0.00000000000E+00  0.22354957265E+04  0.22354957265E+04  0.00000000000E+00 0.  1.
         -2   -1    0    0    0  501 -0.00000000000E+00 -0.00000000000E+00 -0.58991781206E+00  0.58991781206E+00  0.00000000000E+00 0. -1.
          1    1    1    2  502    0  0.33171559143E+02  0.71118968160E+01  0.15163006217E+04  0.15166800937E+04  0.00000000000E+00 0.  1.
         -1    1    1    2    0  501 -0.33171559143E+02 -0.71118968160E+01  0.71860518702E+03  0.71940555059E+03  0.00000000000E+00 0. -1.
</event>
<event>
 4    1  0.6629728E+001  0.2507475E+02  0.7546771E-02  0.1467969E+00
          2   -1    0    0  502    0  0.00000000000E+00  0.00000000000E+00  0.38843027539E+02  0.38843027539E+02  0.00000000000E+00 0.  1.
         -2   -1    0    0    0  501 -0.00000000000E+00 -0.00000000000E+00 -0.18843553689E+02  0.18843553689E+02  0.00000000000E+00 0. -1.
          1    1    1    2  502    0 -0.24733272160E+02 -0.41241439417E+01 -0.83057981520E+00  0.25088506887E+02  0.00000000000E+00 0. -1.
         -1    1    1    2    0  501  0.24733272160E+02  0.41241439417E+01  0.20830053666E+02  0.32598074341E+02  0.00000000000E+00 0.  1.
</event>
<event>
 4    1  0.6629728E+001  0.2829626E+02  0.7546771E-02  0.1435004E+00
          2   -1    0    0  502    0  0.00000000000E+00  0.00000000000E+00  0.73555973928E+01  0.73555973928E+01  0.00000000000E+00 0.  1.
         -2   -1    0    0    0  501 -0.00000000000E+00 -0.00000000000E+00 -0.16240870846E+03  0.16240870846E+03  0.00000000000E+00 0. -1.
          1    1    1    2  502    0 -0.27597842484E+02  0.62480103724E+01 -0.12626983884E+03  0.12940150982E+03  0.00000000000E+00 0. -1.
         -1    1    1    2    0  501  0.27597842484E+02 -0.62480103724E+01 -0.28783272228E+02  0.40362796032E+02  0.00000000000E+00 0.  1.
</event>
<event>
 4    1  0.6629728E+001  0.2204635E+02  0.7546771E-02  0.1504833E+00
          2   -1    0    0  502    0  0.00000000000E+00  0.00000000000E+00  0.11715342033E+03  0.11715342033E+03  0.00000000000E+00 0. -1.
         -2   -1    0    0    0  501 -0.00000000000E+00 -0.00000000000E+00 -0.43745901838E+01  0.43745901838E+01  0.00000000000E+00 0.  1.
          1    1    1    2  502    0  0.18106454247E+02 -0.12577679894E+02  0.70195365081E+02  0.73576021881E+02  0.00000000000E+00 0.  1.
         -1    1    1    2    0  501 -0.18106454247E+02  0.12577679894E+02  0.42583465063E+02  0.47951988631E+02  0.00000000000E+00 0. -1.
</event>
<event>
 4    1  0.6629728E+001  0.2016134E+02  0.7546771E-02  0.1531584E+00
          2   -1    0    0  502    0  0.00000000000E+00  0.00000000000E+00  0.11424655169E+04  0.11424655169E+04  0.00000000000E+00 0.  1.
         -2   -1    0    0    0  501 -0.00000000000E+00 -0.00000000000E+00 -0.59266443028E+00  0.59266443028E+00  0.00000000000E+00 0. -1.
          1    1    1    2  502    0 -0.21912328333E+01 -0.20041907207E+02  0.93225609612E+03  0.93247407915E+03  0.00000000000E+00 0.  1.
         -1    1    1    2    0  501  0.21912328333E+01  0.20041907207E+02  0.20961675638E+03  0.21058410221E+03  0.00000000000E+00 0. -1.
</event>
<event>
 4    1  0.6629728E+001  0.2284486E+02  0.7546771E-02  0.1494455E+00
          2   -1    0    0  502    0  0.00000000000E+00  0.00000000000E+00  0.74557250392E+00  0.74557250392E+00  0.00000000000E+00 0. -1.
         -2   -1    0    0    0  501 -0.00000000000E+00 -0.00000000000E+00 -0.11874165947E+04  0.11874165947E+04  0.00000000000E+00 0.  1.
          1    1    1    2  502    0 -0.43112726772E+01 -0.22434360806E+02 -0.97396477198E+03  0.97423265428E+03  0.00000000000E+00 0.  1.
         -1    1    1    2    0  501  0.43112726772E+01  0.22434360806E+02 -0.21270625024E+03  0.21392951295E+03  0.00000000000E+00 0. -1.
</event>
<event>
 4    1  0.6629728E+001  0.2886687E+02  0.7546771E-02  0.1429706E+00
          2   -1    0    0  502    0  0.00000000000E+00  0.00000000000E+00  0.55889690043E+03  0.55889690043E+03  0.00000000000E+00 0.  1.
         -2   -1    0    0    0  501 -0.00000000000E+00 -0.00000000000E+00 -0.21992508455E+01  0.21992508455E+01  0.00000000000E+00 0. -1.
          1    1    1    2  502    0 -0.27426259057E+02 -0.90053633567E+01  0.43756012779E+03  0.43851130166E+03  0.00000000000E+00 0.  1.
         -1    1    1    2    0  501  0.27426259057E+02  0.90053633567E+01  0.11913752180E+03  0.12258484961E+03  0.00000000000E+00 0. -1.
</event>
<event>
 4    1  0.6629728E+001  0.2028504E+02  0.7546771E-02  0.1529722E+00
          2   -1    0    0  502    0  0.00000000000E+00  0.00000000000E+00  0.23457543143E+02  0.23457543143E+02  0.00000000000E+00 0. -1.
         -2   -1    0    0    0  501 -0.00000000000E+00 -0.00000000000E+00 -0.17995578347E+02  0.17995578347E+02  0.00000000000E+00 0.  1.
          1    1    1    2  502    0 -0.10227130098E+02 -0.17518241514E+02  0.60229770034E+01  0.21160322015E+02  0.00000000000E+00 0.  1.
         -1    1    1    2    0  501  0.10227130098E+02  0.17518241514E+02 -0.56101220719E+00  0.20292799474E+02  0.00000000000E+00 0. -1.
</event>
<event>
 4    1  0.6629728E+001  0.3380136E+02  0.7546771E-02  0.1389192E+00
          2   -1    0    0  502    0  0.00000000000E+00  0.00000000000E+00  0.40940268029E+02  0.40940268029E+02  0.00000000000E+00 0. -1.
         -2   -1    0    0    0  501 -0.00000000000E+00 -0.00000000000E+00 -0.43102687561E+02  0.43102687561E+02  0.00000000000E+00 0.  1.
          1    1    1    2  502    0 -0.16345728177E+02  0.29586296666E+02 -0.26031478810E+02  0.42663446521E+02  0.00000000000E+00 0.  1.
         -1    1    1    2    0  501  0.16345728177E+02 -0.29586296666E+02  0.23869059278E+02  0.41379509070E+02  0.00000000000E+00 0. -1.
</event>
<event>
 4    1  0.6629728E+001  0.2804516E+02  0.7546771E-02  0.1437383E+00
          2   -1    0    0  502    0  0.00000000000E+00  0.00000000000E+00  0.49452728842E+01  0.49452728842E+01  0.00000000000E+00 0.  1.
         -2   -1    0    0    0  501 -0.00000000000E+00 -0.00000000000E+00 -0.16207502140E+03  0.16207502140E+03  0.00000000000E+00 0. -1.
          1    1    1    2  502    0 -0.27644256217E+02 -0.47250228959E+01 -0.89979501606E+02  0.94248827326E+02  0.00000000000E+00 0. -1.
         -1    1    1    2    0  501  0.27644256217E+02  0.47250228959E+01 -0.67150246912E+02  0.72771466960E+02  0.00000000000E+00 0.  1.
</event>
<event>
 4    1  0.6629728E+001  0.3479576E+02  0.7546771E-02  0.1382005E+00
          2   -1    0    0  502    0  0.00000000000E+00  0.00000000000E+00  0.16856159524E+03  0.16856159524E+03  0.00000000000E+00 0. -1.
         -2   -1    0    0    0  501 -0.00000000000E+00 -0.00000000000E+00 -0.76569372111E+01  0.76569372111E+01  0.00000000000E+00 0.  1.
          1    1    1    2  502    0  0.74731556847E+01 -0.33983777520E+02  0.58527135133E+02  0.68089431907E+02  0.00000000000E+00 0.  1.
         -1    1    1    2    0  501 -0.74731556847E+01  0.33983777520E+02  0.10237752290E+03  0.10812910055E+03  0.00000000000E+00 0. -1.
</event>
<event>
 4    1  0.6629728E+001  0.3022499E+02  0.7546771E-02  0.1417651E+00
          2   -1    0    0  502    0  0.00000000000E+00  0.00000000000E+00  0.23298789122E+04  0.23298789122E+04  0.00000000000E+00 0. -1.
         -2   -1    0    0    0  501 -0.00000000000E+00 -0.00000000000E+00 -0.47932888251E+00  0.47932888251E+00  0.00000000000E+00 0.  1.
          1    1    1    2  502    0  0.11371021119E+02 -0.28004464383E+02  0.16617509689E+04  0.16620258220E+04  0.00000000000E+00 0. -1.
         -1    1    1    2    0  501 -0.11371021119E+02  0.28004464383E+02  0.66764861436E+03  0.66833241909E+03  0.00000000000E+00 0.  1.
</event>
<event>
 4    1  0.6629728E+001  0.2249261E+02  0.7546771E-02  0.1498970E+00
          2   -1    0    0  502    0  0.00000000000E+00  0.00000000000E+00  0.28284167870E+03  0.28284167870E+03  0.00000000000E+00 0. -1.
         -2   -1    0    0    0  501 -0.00000000000E+00 -0.00000000000E+00 -0.18519255116E+01  0.18519255116E+01  0.00000000000E+00 0.  1.
          1    1    1    2  502    0 -0.94256341776E+01 -0.20422410216E+02  0.11419218152E+03  0.11638630392E+03  0.00000000000E+00 0.  1.
         -1    1    1    2    0  501  0.94256341776E+01  0.20422410216E+02  0.16679757167E+03  0.16830730030E+03  0.00000000000E+00 0. -1.
</event>
<event>
 4    1  0.6629728E+001  0.2057958E+02  0.7546771E-02  0.1525353E+00
          2   -1    0    0  502    0  0.00000000000E+00  0.00000000000E+00  0.27588463925E+03  0.27588463925E+03  0.00000000000E+00 0.  1.
         -2   -1    0    0    0  501 -0.00000000000E+00 -0.00000000000E+00 -0.15859745929E+01  0.15859745929E+01  0.00000000000E+00 0. -1.
          1    1    1    2  502    0  0.50014450621E+01  0.19962580769E+02  0.11230904190E+03  0.11417898220E+03  0.00000000000E+00 0. -1.
         -1    1    1    2    0  501 -0.50014450621E+01 -0.19962580769E+02  0.16198962275E+03  0.16329163164E+03  0.00000000000E+00 0.  1.
</event>
<event>
 4    1  0.6629728E+001  0.2419716E+02  0.7546771E-02  0.1477989E+00
          2   -1    0    0  502    0  0.00000000000E+00  0.00000000000E+00  0.29136311500E+02  0.29136311500E+02  0.00000000000E+00 0. -1.
         -2   -1    0    0    0  501 -0.00000000000E+00 -0.00000000000E+00 -0.22161969150E+02  0.22161969150E+02  0.00000000000E+00 0.  1.
          1    1    1    2  502    0 -0.17022310642E+02 -0.17197189138E+02 -0.43454313832E+01  0.24584245926E+02  0.00000000000E+00 0.  1.
         -1    1    1    2    0  501  0.17022310642E+02  0.17197189138E+02  0.11319773734E+02  0.26714034724E+02  0.00000000000E+00 0. -1.
</event>
<event>
 4    1  0.6629728E+001  0.1051409E+03  0.7546771E-02  0.1155186E+00
          2   -1    0    0  502    0  0.00000000000E+00  0.00000000000E+00  0.19126190684E+04  0.19126190684E+04  0.00000000000E+00 0. -1.
         -2   -1    0    0    0  501 -0.00000000000E+00 -0.00000000000E+00 -0.11698457791E+02  0.11698457791E+02  0.00000000000E+00 0.  1.
          1    1    1    2  502    0  0.10294525741E+03  0.21374827827E+02  0.16348335467E+04  0.16382110165E+04  0.00000000000E+00 0. -1.
         -1    1    1    2    0  501 -0.10294525741E+03 -0.21374827827E+02  0.26608706393E+03  0.28610650968E+03  0.00000000000E+00 0.  1.
</event>
<event>
 4    1  0.6629728E+001  0.2381664E+02  0.7546771E-02  0.1482490E+00
          2   -1    0    0  502    0  0.00000000000E+00  0.00000000000E+00  0.14519547494E+02  0.14519547494E+02  0.00000000000E+00 0. -1.
         -2   -1    0    0    0  501 -0.00000000000E+00 -0.00000000000E+00 -0.51676938979E+02  0.51676938979E+02  0.00000000000E+00 0.  1.
          1    1    1    2  502    0 -0.21971741648E+02 -0.91910349874E+01 -0.22287567338E+01  0.23920700487E+02  0.00000000000E+00 0. -1.
         -1    1    1    2    0  501  0.21971741648E+02  0.91910349874E+01 -0.34928634752E+02  0.42275785987E+02  0.00000000000E+00 0.  1.
</event>
<event>
 4    1  0.6629728E+001  0.2100185E+02  0.7546771E-02  0.1519238E+00
          2   -1    0    0  502    0  0.00000000000E+00  0.00000000000E+00  0.32246543128E+03  0.32246543128E+03  0.00000000000E+00 0.  1.
         -2   -1    0    0    0  501 -0.00000000000E+00 -0.00000000000E+00 -0.19815153908E+01  0.19815153908E+01  0.00000000000E+00 0. -1.
          1    1    1    2  502    0 -0.26081076642E+01 -0.20839277320E+02  0.25052123390E+03  0.25140001260E+03  0.00000000000E+00 0.  1.
         -1    1    1    2    0  501  0.26081076642E+01  0.20839277320E+02  0.69962681992E+02  0.73046934065E+02  0.00000000000E+00 0. -1.
</event>
<event>
 4    1  0.6629728E+001  0.3709918E+02  0.7546771E-02  0.1366378E+00
          2   -1    0    0  502    0  0.00000000000E+00  0.00000000000E+00  0.11433328529E+04  0.11433328529E+04  0.00000000000E+00 0.  1.
         -2   -1    0    0    0  501 -0.00000000000E+00 -0.00000000000E+00 -0.12055212452E+01  0.12055212452E+01  0.00000000000E+00 0. -1.
          1    1    1    2  502    0  0.58888602674E+01 -0.36628823347E+02  0.54946881737E+03  0.55071982953E+03  0.00000000000E+00 0. -1.
         -1    1    1    2    0  501 -0.58888602674E+01  0.36628823347E+02  0.59265851424E+03  0.59381854457E+03  0.00000000000E+00 0.  1.
</event>
<event>
 4    1  0.6629728E+001  0.2294589E+02  0.7546771E-02  0.1493179E+00
          2   -1    0    0  502    0  0.00000000000E+00  0.00000000000E+00  0.20111325696E+03  0.20111325696E+03  0.00000000000E+00 0.  1.
         -2   -1    0    0    0  501 -0.00000000000E+00 -0.00000000000E+00 -0.42153854854E+01  0.42153854854E+01  0.00000000000E+00 0. -1.
          1    1    1    2  502    0 -0.19309769876E+02  0.12395429807E+02  0.16164734895E+03  0.16326781469E+03  0.00000000000E+00 0.  1.
         -1    1    1    2    0  501  0.19309769876E+02 -0.12395429807E+02  0.35250522523E+02  0.42060827748E+02  0.00000000000E+00 0. -1.
</event>
<event>
 4    1  0.6629728E+001  0.3793489E+02  0.7546771E-02  0.1361031E+00
          2   -1    0    0  502    0  0.00000000000E+00  0.00000000000E+00  0.18957139228E+04  0.18957139228E+04  0.00000000000E+00 0. -1.
         -2   -1    0    0    0  501 -0.00000000000E+00 -0.00000000000E+00 -0.28550873864E+01  0.28550873864E+01  0.00000000000E+00 0.  1.
          1    1    1    2  502    0 -0.32949679571E+02  0.18798249032E+02  0.17597841115E+04  0.17601929368E+04  0.00000000000E+00 0. -1.
         -1    1    1    2    0  501  0.32949679571E+02 -0.18798249032E+02  0.13307472388E+03  0.13837607339E+03  0.00000000000E+00 0.  1.
</event>
<event>
 4    1  0.6629728E+001  0.3891999E+02  0.7546771E-02  0.1354934E+00
          2   -1    0    0  502    0  0.00000000000E+00  0.00000000000E+00  0.70897768436E+03  0.70897768436E+03  0.00000000000E+00 0.  1.
         -2   -1    0    0    0  501 -0.00000000000E+00 -0.00000000000E+00 -0.22231974179E+01  0.22231974179E+01  0.00000000000E+00 0. -1.
          1    1    1    2  502    0  0.10809395660E+02  0.37388801900E+02  0.42357991952E+03  0.42536421307E+03  0.00000000000E+00 0. -1.
         -1    1    1    2    0  501 -0.10809395660E+02 -0.37388801900E+02  0.28317456742E+03  0.28583666870E+03  0.00000000000E+00 0.  1.
</event>
<event>
 4    1  0.6629728E+001  0.2634450E+02  0.7546771E-02  0.1454306E+00
          2   -1    0    0  502    0  0.00000000000E+00  0.00000000000E+00  0.46899117730E+02  0.46899117730E+02  0.00000000000E+00 0. -1.
         -2   -1    0    0    0  501 -0.00000000000E+00 -0.00000000000E+00 -0.16290298564E+02  0.16290298564E+02  0.00000000000E+00 0.  1.
          1    1    1    2  502    0 -0.21184591391E+02 -0.15660328763E+02  0.24865703383E+02  0.36226178575E+02  0.00000000000E+00 0. -1.
         -1    1    1    2    0  501  0.21184591391E+02  0.15660328763E+02  0.57431157832E+01  0.26963237719E+02  0.00000000000E+00 0.  1.
</event>
<event>
 4    1  0.6629728E+001  0.2234791E+02  0.7546771E-02  0.1500853E+00
          2   -1    0    0  502    0  0.00000000000E+00  0.00000000000E+00  0.43088811471E+02  0.43088811471E+02  0.00000000000E+00 0. -1.
         -2   -1    0    0    0  501 -0.00000000000E+00 -0.00000000000E+00 -0.13895655401E+02  0.13895655401E+02  0.00000000000E+00 0.  1.
          1    1    1    2  502    0  0.19671557236E+02 -0.10604667041E+02  0.29922759356E+01  0.22547346683E+02  0.00000000000E+00 0.  1.
         -1    1    1    2    0  501 -0.19671557236E+02  0.10604667041E+02  0.26200880135E+02  0.34437120190E+02  0.00000000000E+00 0. -1.
</event>
<event>
 4    1  0.6629728E+001  0.2059916E+02  0.7546771E-02  0.1525065E+00
          2   -1    0    0  502    0  0.00000000000E+00  0.00000000000E+00  0.33269799798E+03  0.33269799798E+03  0.00000000000E+00 0.  1.
         -2   -1    0    0    0  501 -0.00000000000E+00 -0.00000000000E+00 -0.12759326891E+01  0.12759326891E+01  0.00000000000E+00 0. -1.
          1    1    1    2  502    0 -0.10763913088E+02 -0.17563136051E+02  0.16909840613E+03  0.17034845620E+03  0.00000000000E+00 0.  1.
         -1    1    1    2    0  501  0.10763913088E+02  0.17563136051E+02  0.16232365916E+03  0.16362547448E+03  0.00000000000E+00 0. -1.
</event>
<event>
 4    1  0.6629728E+001  0.2111055E+02  0.7546771E-02  0.1517692E+00
          2   -1    0    0  502    0  0.00000000000E+00  0.00000000000E+00  0.75876418922E+03  0.75876418922E+03  0.00000000000E+00 0.  1.
         -2   -1    0    0    0  501 -0.00000000000E+00 -0.00000000000E+00 -0.71205772250E+00  0.71205772250E+00  0.00000000000E+00 0. -1.
          1    1    1    2  502    0  0.19853409326E+02  0.71761800133E+01  0.22010403111E+03  0.22111408805E+03  0.00000000000E+00 0. -1.
         -1    1    1    2    0  501 -0.19853409326E+02 -0.71761800133E+01  0.53794810039E+03  0.53836215890E+03  0.00000000000E+00 0.  1.
</event>
<event>
 4    1  0.6629728E+001  0.2268033E+02  0.7546771E-02  0.1496552E+00
          2   -1    0    0  502    0  0.00000000000E+00  0.00000000000E+00  0.26679035380E+02  0.26679035380E+02  0.00000000000E+00 0. -1.
         -2   -1    0    0    0  501 -0.00000000000E+00 -0.00000000000E+00 -0.24319788365E+02  0.24319788365E+02  0.00000000000E+00 0.  1.
          1    1    1    2  502    0 -0.19024615707E+02  0.12347517192E+02 -0.10427254585E+02  0.24962468263E+02  0.00000000000E+00 0.  1.
         -1    1    1    2    0  501  0.19024615707E+02 -0.12347517192E+02  0.12786501600E+02  0.26036355482E+02  0.00000000000E+00 0. -1.
</event>
<event>
 4    1  0.6629728E+001  0.3198129E+02  0.7546771E-02  0.1403126E+00
          2   -1    0    0  502    0  0.00000000000E+00  0.00000000000E+00  0.21648576043E+03  0.21648576043E+03  0.00000000000E+00 0.  1.
         -2   -1    0    0    0  501 -0.00000000000E+00 -0.00000000000E+00 -0.49816226029E+01  0.49816226029E+01  0.00000000000E+00 0. -1.
          1    1    1    2  502    0  0.22781005486E+02 -0.22446131171E+02  0.80598366948E+02  0.86711589595E+02  0.00000000000E+00 0. -1.
         -1    1    1    2    0  501 -0.22781005486E+02  0.22446131171E+02  0.13090577088E+03  0.13475579343E+03  0.00000000000E+00 0.  1.
</event>
<event>
 4    1  0.6629728E+001  0.2524815E+02  0.7546771E-02  0.1466046E+00
          2   -1    0    0  502    0  0.00000000000E+00  0.00000000000E+00  0.22915288823E+02  0.22915288823E+02  0.00000000000E+00 0.  1.
         -2   -1    0    0    0  501 -0.00000000000E+00 -0.00000000000E+00 -0.11223359979E+03  0.11223359979E+03  0.00000000000E+00 0. -1.
          1    1    1    2  502    0  0.23211879817E+02  0.99336595396E+01  0.13945363592E+02  0.28843406910E+02  0.00000000000E+00 0.  1.
         -1    1    1    2    0  501 -0.23211879817E+02 -0.99336595396E+01 -0.10326367456E+03  0.10630548170E+03  0.00000000000E+00 0. -1.
</event>
<event>
 4    1  0.6629728E+001  0.3320329E+02  0.7546771E-02  0.1393654E+00
          2   -1    0    0  502    0  0.00000000000E+00  0.00000000000E+00  0.59227741394E+03  0.59227741394E+03  0.00000000000E+00 0. -1.
         -2   -1    0    0    0  501 -0.00000000000E+00 -0.00000000000E+00 -0.19282593664E+01  0.19282593664E+01  0.00000000000E+00 0.  1.
          1    1    1    2  502    0  0.27540718075E+02 -0.18546358885E+02  0.35050211992E+03  0.35207129200E+03  0.00000000000E+00 0. -1.
         -1    1    1    2    0  501 -0.27540718075E+02  0.18546358885E+02  0.23984703465E+03  0.24213438131E+03  0.00000000000E+00 0.  1.
</event>
<event>
 4    1  0.6629728E+001  0.2220808E+02  0.7546771E-02  0.1502689E+00
          2   -1    0    0  502    0  0.00000000000E+00  0.00000000000E+00  0.60359653045E+01  0.60359653045E+01  0.00000000000E+00 0. -1.
         -2   -1    0    0    0  501 -0.00000000000E+00 -0.00000000000E+00 -0.81966246604E+02  0.81966246604E+02  0.00000000000E+00 0.  1.
          1    1    1    2  502    0  0.13846652531E+02 -0.17362863085E+02 -0.40425307071E+02  0.46123792695E+02  0.00000000000E+00 0.  1.
         -1    1    1    2    0  501 -0.13846652531E+02  0.17362863085E+02 -0.35504974228E+02  0.41878419213E+02  0.00000000000E+00 0. -1.
</event>
<event>
 4    1  0.6629728E+001  0.3245734E+02  0.7546771E-02  0.1399378E+00
          2   -1    0    0  502    0  0.00000000000E+00  0.00000000000E+00  0.31392176093E+02  0.31392176093E+02  0.00000000000E+00 0.  1.
         -2   -1    0    0    0  501 -0.00000000000E+00 -0.00000000000E+00 -0.36362320610E+02  0.36362320610E+02  0.00000000000E+00 0. -1.
          1    1    1    2  502    0  0.32136942992E+01  0.32297852108E+02  0.69218108764E+01  0.33187204577E+02  0.00000000000E+00 0. -1.
         -1    1    1    2    0  501 -0.32136942992E+01 -0.32297852108E+02 -0.11891955393E+02  0.34567292126E+02  0.00000000000E+00 0.  1.
</event>
<event>
 4    1  0.6629728E+001  0.2714869E+02  0.7546771E-02  0.1446120E+00
          2   -1    0    0  502    0  0.00000000000E+00  0.00000000000E+00  0.62793059384E+01  0.62793059384E+01  0.00000000000E+00 0.  1.
         -2   -1    0    0    0  501 -0.00000000000E+00 -0.00000000000E+00 -0.21022289057E+03  0.21022289057E+03  0.00000000000E+00 0. -1.
          1    1    1    2  502    0 -0.26110723763E+02  0.74351331791E+01 -0.30031568032E+02  0.40483900248E+02  0.00000000000E+00 0.  1.
         -1    1    1    2    0  501  0.26110723763E+02 -0.74351331791E+01 -0.17391201660E+03  0.17601829626E+03  0.00000000000E+00 0. -1.
</event>
<event>
 4    1  0.6629728E+001  0.2643267E+02  0.7546771E-02  0.1453392E+00
          2   -1    0    0  502    0  0.00000000000E+00  0.00000000000E+00  0.44438985723E+03  0.44438985723E+03  0.00000000000E+00 0. -1.
         -2   -1    0    0    0  501 -0.00000000000E+00 -0.00000000000E+00 -0.15967066286E+01  0.15967066286E+01  0.00000000000E+00 0.  1.
          1    1    1    2  502    0 -0.21034946942E+02 -0.16006786326E+02  0.19379128002E+03  0.19558564981E+03  0.00000000000E+00 0. -1.
         -1    1    1    2    0  501  0.21034946942E+02  0.16006786326E+02  0.24900187059E+03  0.25040091405E+03  0.00000000000E+00 0.  1.
</event>
<event>
 4    1  0.6629728E+001  0.2287901E+02  0.7546771E-02  0.1494023E+00
          2   -1    0    0  502    0  0.00000000000E+00  0.00000000000E+00  0.35721190646E+03  0.35721190646E+03  0.00000000000E+00 0.  1.
         -2   -1    0    0    0  501 -0.00000000000E+00 -0.00000000000E+00 -0.15641334097E+01  0.15641334097E+01  0.00000000000E+00 0. -1.
          1    1    1    2  502    0 -0.15891541319E+02  0.16459279258E+02  0.13274779196E+03  0.13470495622E+03  0.00000000000E+00 0. -1.
         -1    1    1    2    0  501  0.15891541319E+02 -0.16459279258E+02  0.22289998109E+03  0.22407108365E+03  0.00000000000E+00 0.  1.
</event>
<event>
 4    1  0.6629728E+001  0.2151607E+02  0.7546771E-02  0.1512023E+00
          2   -1    0    0  502    0  0.00000000000E+00  0.00000000000E+00  0.12394571146E+02  0.12394571146E+02  0.00000000000E+00 0. -1.
         -2   -1    0    0    0  501 -0.00000000000E+00 -0.00000000000E+00 -0.37350336442E+02  0.37350336442E+02  0.00000000000E+00 0.  1.
          1    1    1    2  502    0 -0.21023230033E+02  0.45787513798E+01 -0.12460081936E+02  0.24863523625E+02  0.00000000000E+00 0.  1.
         -1    1    1    2    0  501  0.21023230033E+02 -0.45787513798E+01 -0.12495683360E+02  0.24881383962E+02  0.00000000000E+00 0. -1.
</event>
<event>
 4    1  0.6629728E+001  0.2435570E+02  0.7546771E-02  0.1476142E+00
          2   -1    0    0  502    0  0.00000000000E+00  0.00000000000E+00  0.12658455940E+04  0.12658455940E+04  0.00000000000E+00 0.  1.
         -2   -1    0    0    0  501 -0.00000000000E+00 -0.00000000000E+00 -0.63906328027E+00  0.63906328027E+00  0.00000000000E+00 0. -1.
          1    1    1    2  502    0  0.14942263539E+02 -0.19233538810E+02  0.30557276677E+03  0.30654186671E+03  0.00000000000E+00 0. -1.
         -1    1    1    2    0  501 -0.14942263539E+02  0.19233538810E+02  0.95963376398E+03  0.95994279060E+03  0.00000000000E+00 0.  1.
</event>
<event>
 4    1  0.6629728E+001  0.4022034E+02  0.7546771E-02  0.1347199E+00
          2   -1    0    0  502    0  0.00000000000E+00  0.00000000000E+00  0.32529993086E+03  0.32529993086E+03  0.00000000000E+00 0.  1.
         -2   -1    0    0    0  501 -0.00000000000E+00 -0.00000000000E+00 -0.50737542325E+01  0.50737542325E+01  0.00000000000E+00 0. -1.
          1    1    1    2  502    0  0.39041897161E+02 -0.96646750944E+01  0.13682075232E+03  0.14260993634E+03  0.00000000000E+00 0. -1.
         -1    1    1    2    0  501 -0.39041897161E+02  0.96646750944E+01  0.18340542431E+03  0.18776374875E+03  0.00000000000E+00 0.  1.
</event>
<event>
 4    1  0.6629728E+001  0.3309664E+02  0.7546771E-02  0.1394462E+00
          2   -1    0    0  502    0  0.00000000000E+00  0.00000000000E+00  0.85419873770E+03  0.85419873770E+03  0.00000000000E+00 0.  1.
         -2   -1    0    0    0  501 -0.00000000000E+00 -0.00000000000E+00 -0.12992393875E+01  0.12992393875E+01  0.00000000000E+00 0. -1.
          1    1    1    2  502    0  0.25010839193E+02  0.21675913181E+02  0.37768926835E+03  0.37913661221E+03  0.00000000000E+00 0.  1.
         -1    1    1    2    0  501 -0.25010839193E+02 -0.21675913181E+02  0.47521022996E+03  0.47636136487E+03  0.00000000000E+00 0. -1.
</event>
<event>
 4    1  0.6629728E+001  0.3927589E+02  0.7546771E-02  0.1352782E+00
          2   -1    0    0  502    0  0.00000000000E+00  0.00000000000E+00  0.58022762689E+03  0.58022762689E+03  0.00000000000E+00 0.  1.
         -2   -1    0    0    0  501 -0.00000000000E+00 -0.00000000000E+00 -0.38385552265E+01  0.38385552265E+01  0.00000000000E+00 0. -1.
          1    1    1    2  502    0  0.59343572788E+01 -0.38824975523E+02  0.12628208364E+03  0.13224885621E+03  0.00000000000E+00 0. -1.
         -1    1    1    2    0  501 -0.59343572788E+01  0.38824975523E+02  0.45010698802E+03  0.45181732591E+03  0.00000000000E+00 0.  1.
</event>
<event>
 4    1  0.6629728E+001  0.2152362E+02  0.7546771E-02  0.1511919E+00
          2   -1    0    0  502    0  0.00000000000E+00  0.00000000000E+00  0.33134229645E+03  0.33134229645E+03  0.00000000000E+00 0.  1.
         -2   -1    0    0    0  501 -0.00000000000E+00 -0.00000000000E+00 -0.14230156364E+01  0.14230156364E+01  0.00000000000E+00 0. -1.
          1    1    1    2  502    0 -0.53553504698E+01  0.20846737827E+02  0.14296573517E+03  0.14457685737E+03  0.00000000000E+00 0. -1.
         -1    1    1    2    0  501  0.53553504698E+01 -0.20846737827E+02  0.18695354565E+03  0.18818845471E+03  0.00000000000E+00 0.  1.
</event>
<event>
 4    1  0.6629728E+001  0.2578493E+02  0.7546771E-02  0.1460211E+00
          2   -1    0    0  502    0  0.00000000000E+00  0.00000000000E+00  0.56305071102E+03  0.56305071102E+03  0.00000000000E+00 0.  1.
         -2   -1    0    0    0  501 -0.00000000000E+00 -0.00000000000E+00 -0.13906874318E+01  0.13906874318E+01  0.00000000000E+00 0. -1.
          1    1    1    2  502    0  0.13823674656E+02 -0.21766225511E+02  0.17119613783E+03  0.17312706363E+03  0.00000000000E+00 0.  1.
         -1    1    1    2    0  501 -0.13823674656E+02  0.21766225511E+02  0.39046388577E+03  0.39131433483E+03  0.00000000000E+00 0. -1.
</event>
<event>
 4    1  0.6629728E+001  0.3032571E+02  0.7546771E-02  0.1416787E+00
          2   -1    0    0  502    0  0.00000000000E+00  0.00000000000E+00  0.49239454713E+03  0.49239454713E+03  0.00000000000E+00 0.  1.
         -2   -1    0    0    0  501 -0.00000000000E+00 -0.00000000000E+00 -0.18715586930E+01  0.18715586930E+01  0.00000000000E+00 0. -1.
          1    1    1    2  502    0  0.29259415149E+02  0.79709135546E+01  0.25647248578E+03  0.25825914272E+03  0.00000000000E+00 0.  1.
         -1    1    1    2    0  501 -0.29259415149E+02 -0.79709135546E+01  0.23405050266E+03  0.23600696310E+03  0.00000000000E+00 0. -1.
</event>
<event>
 4    1  0.6629728E+001  0.2157528E+02  0.7546771E-02  0.1511208E+00
          2   -1    0    0  502    0  0.00000000000E+00  0.00000000000E+00  0.11211322156E+04  0.11211322156E+04  0.00000000000E+00 0. -1.
         -2   -1    0    0    0  501 -0.00000000000E+00 -0.00000000000E+00 -0.41979481756E+00  0.41979481756E+00  0.00000000000E+00 0.  1.
          1    1    1    2  502    0 -0.12421389528E+02 -0.17640907523E+02  0.61903359755E+03  0.61940946670E+03  0.00000000000E+00 0. -1.
         -1    1    1    2    0  501  0.12421389528E+02  0.17640907523E+02  0.50167882324E+03  0.50214254373E+03  0.00000000000E+00 0.  1.
</event>
<event>
 4    1  0.6629728E+001  0.2140732E+02  0.7546771E-02  0.1513528E+00
          2   -1    0    0  502    0  0.00000000000E+00  0.00000000000E+00  0.80320178489E+02  0.80320178489E+02  0.00000000000E+00 0.  1.
         -2   -1    0    0    0  501 -0.00000000000E+00 -0.00000000000E+00 -0.57115250226E+01  0.57115250226E+01  0.00000000000E+00 0. -1.
          1    1    1    2  502    0  0.60249881850E+01  0.20541981804E+02  0.38691705367E+02  0.44219018118E+02  0.00000000000E+00 0.  1.
         -1    1    1    2    0  501 -0.60249881850E+01 -0.20541981804E+02  0.35916948099E+02  0.41812685394E+02  0.00000000000E+00 0. -1.
</event>
<event>
 4    1  0.6629728E+001  0.2085982E+02  0.7546771E-02  0.1521276E+00
          2   -1    0    0  502    0  0.00000000000E+00  0.00000000000E+00  0.31444378697E+03  0.31444378697E+03  0.00000000000E+00 0. -1.
         -2   -1    0    0    0  501 -0.00000000000E+00 -0.00000000000E+00 -0.22345431888E+01  0.22345431888E+01  0.00000000000E+00 0.  1.
          1    1    1    2  502    0  0.20824829100E+02 -0.12076956025E+01  0.58405787948E+02  0.62019094653E+02  0.00000000000E+00 0.  1.
         -1    1    1    2    0  501 -0.20824829100E+02  0.12076956025E+01  0.25380345583E+03  0.25465923550E+03  0.00000000000E+00 0. -1.
</event>
<event>
 4    1  0.6629728E+001  0.5144417E+02  0.7546771E-02  0.1292030E+00
          2   -1    0    0  502    0  0.00000000000E+00  0.00000000000E+00  0.12021070377E+04  0.12021070377E+04  0.00000000000E+00 0. -1.
         -2   -1    0    0    0  501 -0.00000000000E+00 -0.00000000000E+00 -0.22015732433E+01  0.22015732433E+01  0.00000000000E+00 0.  1.
          1    1    1    2  502    0 -0.50970872281E+02  0.69622478171E+01  0.59814039360E+03  0.60034859304E+03  0.00000000000E+00 0.  1.
         -1    1    1    2    0  501  0.50970872281E+02 -0.69622478171E+01  0.60176507082E+03  0.60396001786E+03  0.00000000000E+00 0. -1.
</event>
<event>
 4    1  0.6629728E+001  0.3461642E+02  0.7546771E-02  0.1383280E+00
          2   -1    0    0  502    0  0.00000000000E+00  0.00000000000E+00  0.20688766690E+04  0.20688766690E+04  0.00000000000E+00 0.  1.
         -2   -1    0    0    0  501 -0.00000000000E+00 -0.00000000000E+00 -0.70593182440E+00  0.70593182440E+00  0.00000000000E+00 0. -1.
          1    1    1    2  502    0 -0.28595952857E+02 -0.19508144273E+02  0.59564364663E+03  0.59664868221E+03  0.00000000000E+00 0. -1.
         -1    1    1    2    0  501  0.28595952857E+02  0.19508144273E+02  0.14725270906E+04  0.14729339187E+04  0.00000000000E+00 0.  1.
</event>
<event>
 4    1  0.6629728E+001  0.6616559E+02  0.7546771E-02  0.1240210E+00
          2   -1    0    0  502    0  0.00000000000E+00  0.00000000000E+00  0.12579159912E+04  0.12579159912E+04  0.00000000000E+00 0.  1.
         -2   -1    0    0    0  501 -0.00000000000E+00 -0.00000000000E+00 -0.79141401538E+01  0.79141401538E+01  0.00000000000E+00 0. -1.
          1    1    1    2  502    0 -0.66089341409E+02 -0.31754741485E+01  0.10987355762E+04  0.11007260109E+04  0.00000000000E+00 0.  1.
         -1    1    1    2    0  501  0.66089341409E+02  0.31754741485E+01  0.15126627492E+03  0.16510412052E+03  0.00000000000E+00 0. -1.
</event>
<event>
 4    1  0.6629728E+001  0.2206535E+02  0.7546771E-02  0.1504580E+00
          2   -1    0    0  502    0  0.00000000000E+00  0.00000000000E+00  0.59162124987E+01  0.59162124987E+01  0.00000000000E+00 0.  1.
         -2   -1    0    0    0  501 -0.00000000000E+00 -0.00000000000E+00 -0.20787154479E+03  0.20787154479E+03  0.00000000000E+00 0. -1.
          1    1    1    2  502    0  0.17387110478E+02 -0.13585589445E+02 -0.18405988282E+03  0.18537777729E+03  0.00000000000E+00 0. -1.
         -1    1    1    2    0  501 -0.17387110478E+02  0.13585589445E+02 -0.17895449468E+02  0.28409979989E+02  0.00000000000E+00 0.  1.
</event>
<event>
 4    1  0.6629728E+001  0.2079010E+02  0.7546771E-02  0.1522283E+00
          2   -1    0    0  502    0  0.00000000000E+00  0.00000000000E+00  0.51133818616E+03  0.51133818616E+03  0.00000000000E+00 0. -1.
         -2   -1    0    0    0  501 -0.00000000000E+00 -0.00000000000E+00 -0.84613678086E+00  0.84613678086E+00  0.00000000000E+00 0.  1.
          1    1    1    2  502    0 -0.20588591320E+02  0.28875771436E+01  0.26335550299E+03  0.26417484579E+03  0.00000000000E+00 0. -1.
         -1    1    1    2    0  501  0.20588591320E+02 -0.28875771436E+01  0.24713654640E+03  0.24800947716E+03  0.00000000000E+00 0.  1.
</event>
<event>
 4    1  0.6629728E+001  0.2888117E+02  0.7546771E-02  0.1429575E+00
          2   -1    0    0  502    0  0.00000000000E+00  0.00000000000E+00  0.65443206547E+01  0.65443206547E+01  0.00000000000E+00 0.  1.
         -2   -1    0    0    0  501 -0.00000000000E+00 -0.00000000000E+00 -0.13773039694E+03  0.13773039694E+03  0.00000000000E+00 0. -1.
          1    1    1    2  502    0 -0.31953728103E+01  0.28703858305E+02 -0.85294324515E+02  0.90051339154E+02  0.00000000000E+00 0.  1.
         -1    1    1    2    0  501  0.31953728103E+01 -0.28703858305E+02 -0.45891751774E+02  0.54223378444E+02  0.00000000000E+00 0. -1.
</event>
<event>
 4    1  0.6629728E+001  0.3590243E+02  0.7546771E-02  0.1374327E+00
          2   -1    0    0  502    0  0.00000000000E+00  0.00000000000E+00  0.97310534652E+02  0.97310534652E+02  0.00000000000E+00 0. -1.
         -2   -1    0    0    0  501 -0.00000000000E+00 -0.00000000000E+00 -0.13269103751E+02  0.13269103751E+02  0.00000000000E+00 0.  1.
          1    1    1    2  502    0 -0.33490383922E+02 -0.12937502739E+02  0.39718473658E+02  0.53540096582E+02  0.00000000000E+00 0.  1.
         -1    1    1    2    0  501  0.33490383922E+02  0.12937502739E+02  0.44322957243E+02  0.57039541821E+02  0.00000000000E+00 0. -1.
</event>
<event>
 4    1  0.6629728E+001  0.2094410E+02  0.7546771E-02  0.1520064E+00
          2   -1    0    0  502    0  0.00000000000E+00  0.00000000000E+00  0.45539528765E+03  0.45539528765E+03  0.00000000000E+00 0.  1.
         -2   -1    0    0    0  501 -0.00000000000E+00 -0.00000000000E+00 -0.11594525085E+01  0.11594525085E+01  0.00000000000E+00 0. -1.
          1    1    1    2  502    0 -0.63740153278E+01  0.19950620242E+02  0.32102510690E+03  0.32170759174E+03  0.00000000000E+00 0.  1.
         -1    1    1    2    0  501  0.63740153278E+01 -0.19950620242E+02  0.13321072824E+03  0.13484714842E+03  0.00000000000E+00 0. -1.
</event>
<event>
 4    1  0.6629728E+001  0.2928790E+02  0.7546771E-02  0.1425887E+00
          2   -1    0    0  502    0  0.00000000000E+00  0.00000000000E+00  0.10565831414E+04  0.10565831414E+04  0.00000000000E+00 0.  1.
         -2   -1    0    0    0  501 -0.00000000000E+00 -0.00000000000E+00 -0.93391150742E+00  0.93391150742E+00  0.00000000000E+00 0. -1.
          1    1    1    2  502    0  0.21549056256E+02 -0.19834803445E+02  0.33666171953E+03  0.33793326952E+03  0.00000000000E+00 0. -1.
         -1    1    1    2    0  501 -0.21549056256E+02  0.19834803445E+02  0.71898751033E+03  0.71958378335E+03  0.00000000000E+00 0.  1.
</event>
<event>
 4    1  0.6629728E+001  0.2214436E+02  0.7546771E-02  0.1503531E+00
          2   -1    0    0  502    0  0.00000000000E+00  0.00000000000E+00  0.19840551995E+04  0.19840551995E+04  0.00000000000E+00 0.  1.
         -2   -1    0    0    0  501 -0.00000000000E+00 -0.00000000000E+00 -0.39385027556E+00  0.39385027556E+00  0.00000000000E+00 0. -1.
          1    1    1    2  502    0  0.22048243777E+02  0.20609765387E+01  0.38628093523E+03  0.38691515039E+03  0.00000000000E+00 0. -1.
         -1    1    1    2    0  501 -0.22048243777E+02 -0.20609765387E+01  0.15973804140E+04  0.15975338994E+04  0.00000000000E+00 0.  1.
</event>
<event>
 4    1  0.6629728E+001  0.4180717E+02  0.7546771E-02  0.1338209E+00
          2   -1    0    0  502    0  0.00000000000E+00  0.00000000000E+00  0.54065186766E+02  0.54065186766E+02  0.00000000000E+00 0.  1.
         -2   -1    0    0    0  501 -0.00000000000E+00 -0.00000000000E+00 -0.42009439845E+02  0.42009439845E+02  0.00000000000E+00 0. -1.
          1    1    1    2  502    0  0.23102848702E+02  0.34843904243E+02  0.29088280805E+02  0.50931005893E+02  0.00000000000E+00 0.  1.
         -1    1    1    2    0  501 -0.23102848702E+02 -0.34843904243E+02 -0.17032533884E+02  0.45143620719E+02  0.00000000000E+00 0. -1.
</event>
<event>
 4    1  0.6629728E+001  0.2955757E+02  0.7546771E-02  0.1423481E+00
          2   -1    0    0  502    0  0.00000000000E+00  0.00000000000E+00  0.67804129345E+03  0.67804129345E+03  0.00000000000E+00 0.  1.
         -2   -1    0    0    0  501 -0.00000000000E+00 -0.00000000000E+00 -0.13378885375E+01  0.13378885375E+01  0.00000000000E+00 0. -1.
          1    1    1    2  502    0 -0.80371086850E+01 -0.28443886413E+02  0.27307969679E+03  0.27467466317E+03  0.00000000000E+00 0. -1.
         -1    1    1    2    0  501  0.80371086850E+01  0.28443886413E+02  0.40362370812E+03  0.40470451881E+03  0.00000000000E+00 0.  1.
</event>
<event>
 4    1  0.6629728E+001  0.3057675E+02  0.7546771E-02  0.1414649E+00
          2   -1    0    0  502    0  0.00000000000E+00  0.00000000000E+00  0.21178261663E+02  0.21178261663E+02  0.00000000000E+00 0.  1.
         -2   -1    0    0    0  501 -0.00000000000E+00 -0.00000000000E+00 -0.44201099542E+02  0.44201099542E+02  0.00000000000E+00 0. -1.
          1    1    1    2  502    0 -0.22769426970E+02  0.20408101613E+02 -0.12664656139E+02  0.33095784189E+02  0.00000000000E+00 0. -1.
         -1    1    1    2    0  501  0.22769426970E+02 -0.20408101613E+02 -0.10358181740E+02  0.32283577016E+02  0.00000000000E+00 0.  1.
</event>
<event>
 4    1  0.6629728E+001  0.2013605E+02  0.7546771E-02  0.1531966E+00
          2   -1    0    0  502    0  0.00000000000E+00  0.00000000000E+00  0.64074587035E+01  0.64074587035E+01  0.00000000000E+00 0. -1.
         -2   -1    0    0    0  501 -0.00000000000E+00 -0.00000000000E+00 -0.64538835062E+02  0.64538835062E+02  0.00000000000E+00 0.  1.
          1    1    1    2  502    0 -0.20448686585E+01 -0.20031947591E+02 -0.34020986269E+02  0.39533377276E+02  0.00000000000E+00 0. -1.
         -1    1    1    2    0  501  0.20448686585E+01  0.20031947591E+02 -0.24110390089E+02  0.31412916490E+02  0.00000000000E+00 0.  1.
</event>
<event>
 4    1  0.6629728E+001  0.2291700E+02  0.7546771E-02  0.1493543E+00
          2   -1    0    0  502    0  0.00000000000E+00  0.00000000000E+00  0.26718368750E+03  0.26718368750E+03  0.00000000000E+00 0. -1.
         -2   -1    0    0    0  501 -0.00000000000E+00 -0.00000000000E+00 -0.28635545255E+01  0.28635545255E+01  0.00000000000E+00 0.  1.
          1    1    1    2  502    0  0.20208920839E+02  0.10806869645E+02  0.56551198137E+02  0.61018250743E+02  0.00000000000E+00 0.  1.
         -1    1    1    2    0  501 -0.20208920839E+02 -0.10806869645E+02  0.20776893483E+03  0.20902899128E+03  0.00000000000E+00 0. -1.
</event>
<event>
 4    1  0.6629728E+001  0.2302776E+02  0.7546771E-02  0.1492150E+00
          2   -1    0    0  502    0  0.00000000000E+00  0.00000000000E+00  0.21511104540E+01  0.21511104540E+01  0.00000000000E+00 0. -1.
         -2   -1    0    0    0  501 -0.00000000000E+00 -0.00000000000E+00 -0.35606520240E+03  0.35606520240E+03  0.00000000000E+00 0.  1.
          1    1    1    2  502    0 -0.11486828915E+02  0.19958213331E+02 -0.77608756956E+02  0.80953052284E+02  0.00000000000E+00 0. -1.
         -1    1    1    2    0  501  0.11486828915E+02 -0.19958213331E+02 -0.27630533499E+03  0.27726326057E+03  0.00000000000E+00 0.  1.
</event>
<event>
 4    1  0.6629728E+001  0.1056811E+03  0.7546771E-02  0.1154312E+00
          2   -1    0    0  502    0  0.00000000000E+00  0.00000000000E+00  0.25320195030E+04  0.25320195030E+04  0.00000000000E+00 0.  1.
         -2   -1    0    0    0  501 -0.00000000000E+00 -0.00000000000E+00 -0.46751506447E+01  0.46751506447E+01  0.00000000000E+00 0. -1.
          1    1    1    2  502    0 -0.93384293252E+02 -0.49476034404E+02  0.15652102325E+04  0.15687739085E+04  0.00000000000E+00 0.  1.
         -1    1    1    2    0  501  0.93384293252E+02  0.49476034404E+02  0.96213411990E+03  0.96792074515E+03  0.00000000000E+00 0. -1.
</event>
<event>
 4    1  0.6629728E+001  0.2334607E+02  0.7546771E-02  0.1488198E+00
          2   -1    0    0  502    0  0.00000000000E+00  0.00000000000E+00  0.79309274150E+02  0.79309274150E+02  0.00000000000E+00 0. -1.
         -2   -1    0    0    0  501 -0.00000000000E+00 -0.00000000000E+00 -0.17104919956E+02  0.17104919956E+02  0.00000000000E+00 0.  1.
          1    1    1    2  502    0 -0.41769042985E+01 -0.22969375965E+02 -0.61836207791E+01  0.24151106138E+02  0.00000000000E+00 0.  1.
         -1    1    1    2    0  501  0.41769042985E+01  0.22969375965E+02  0.68387974973E+02  0.72263087968E+02  0.00000000000E+00 0. -1.
</event>
<event>
 4    1  0.6629728E+001  0.2027251E+02  0.7546771E-02  0.1529910E+00
          2   -1    0    0  502    0  0.00000000000E+00  0.00000000000E+00  0.87089745338E+02  0.87089745338E+02  0.00000000000E+00 0.  1.
         -2   -1    0    0    0  501 -0.00000000000E+00 -0.00000000000E+00 -0.47507966307E+01  0.47507966307E+01  0.00000000000E+00 0. -1.
          1    1    1    2  502    0 -0.13576125599E+02 -0.15055353390E+02  0.44927343173E+02  0.49289360074E+02  0.00000000000E+00 0. -1.
         -1    1    1    2    0  501  0.13576125599E+02  0.15055353390E+02  0.37411605535E+02  0.42551181895E+02  0.00000000000E+00 0.  1.
</event>
<event>
 4    1  0.6629728E+001  0.3056607E+02  0.7546771E-02  0.1414740E+00
          2   -1    0    0  502    0  0.00000000000E+00  0.00000000000E+00  0.41918556333E+03  0.41918556333E+03  0.00000000000E+00 0. -1.
         -2   -1    0    0    0  501 -0.00000000000E+00 -0.00000000000E+00 -0.27007882042E+01  0.27007882042E+01  0.00000000000E+00 0.  1.
          1    1    1    2  502    0  0.16680919132E+02  0.25613114708E+02  0.29642469956E+03  0.29799645504E+03  0.00000000000E+00 0.  1.
         -1    1    1    2    0  501 -0.16680919132E+02 -0.25613114708E+02  0.12006007557E+03  0.12388989649E+03  0.00000000000E+00 0. -1.
</event>
<event>
 4    1  0.6629728E+001  0.8049178E+02  0.7546771E-02  0.1202710E+00
          2   -1    0    0  502    0  0.00000000000E+00  0.00000000000E+00  0.10826618837E+04  0.10826618837E+04  0.00000000000E+00 0. -1.
         -2   -1    0    0    0  501 -0.00000000000E+00 -0.00000000000E+00 -0.84412306008E+01  0.84412306008E+01  0.00000000000E+00 0.  1.
          1    1    1    2  502    0 -0.13652663747E+02  0.79325476814E+02  0.83143942475E+03  0.83532654904E+03  0.00000000000E+00 0. -1.
         -1    1    1    2    0  501  0.13652663747E+02 -0.79325476814E+02  0.24278122836E+03  0.25577656527E+03  0.00000000000E+00 0.  1.
</event>
<event>
 4    1  0.6629728E+001  0.2150838E+02  0.7546771E-02  0.1512129E+00
          2   -1    0    0  502    0  0.00000000000E+00  0.00000000000E+00  0.70125544631E+02  0.70125544631E+02  0.00000000000E+00 0. -1.
         -2   -1    0    0    0  501 -0.00000000000E+00 -0.00000000000E+00 -0.88480365684E+01  0.88480365684E+01  0.00000000000E+00 0.  1.
          1    1    1    2  502    0  0.17009263479E+02 -0.13164169325E+02  0.10721456361E+02  0.24032478537E+02  0.00000000000E+00 0.  1.
         -1    1    1    2    0  501 -0.17009263479E+02  0.13164169325E+02  0.50556051702E+02  0.54941102663E+02  0.00000000000E+00 0. -1.
</event>
<event>
 4    1  0.6629728E+001  0.4297245E+02  0.7546771E-02  0.1331896E+00
          2   -1    0    0  502    0  0.00000000000E+00  0.00000000000E+00  0.17564160804E+01  0.17564160804E+01  0.00000000000E+00 0. -1.
         -2   -1    0    0    0  501 -0.00000000000E+00 -0.00000000000E+00 -0.10539894181E+04  0.10539894181E+04  0.00000000000E+00 0.  1.
          1    1    1    2  502    0 -0.42963066505E+02 -0.89813800737E+00 -0.49976818298E+03  0.50161226905E+03  0.00000000000E+00 0.  1.
         -1    1    1    2    0  501  0.42963066505E+02  0.89813800737E+00 -0.55246481905E+03  0.55413356515E+03  0.00000000000E+00 0. -1.
</event>
<event>
 4    1  0.6629728E+001  0.2455784E+02  0.7546771E-02  0.1473811E+00
          2   -1    0    0  502    0  0.00000000000E+00  0.00000000000E+00  0.12301911007E+04  0.12301911007E+04  0.00000000000E+00 0. -1.
         -2   -1    0    0    0  501 -0.00000000000E+00 -0.00000000000E+00 -0.14719252606E+01  0.14719252606E+01  0.00000000000E+00 0.  1.
          1    1    1    2  502    0  0.87677284502E-01 -0.24557684447E+02  0.11172871117E+04  0.11175569683E+04  0.00000000000E+00 0. -1.
         -1    1    1    2    0  501 -0.87677284502E-01  0.24557684447E+02  0.11143206376E+03  0.11410605762E+03  0.00000000000E+00 0.  1.
</event>
<event>
 4    1  0.6629728E+001  0.2014357E+02  0.7546771E-02  0.1531852E+00
          2   -1    0    0  502    0  0.00000000000E+00  0.00000000000E+00  0.78003189040E+02  0.78003189040E+02  0.00000000000E+00 0.  1.
         -2   -1    0    0    0  501 -0.00000000000E+00 -0.00000000000E+00 -0.52095166111E+01  0.52095166111E+01  0.00000000000E+00 0. -1.
          1    1    1    2  502    0  0.19593282475E+02 -0.46761804806E+01  0.37989615061E+02  0.42999700401E+02  0.00000000000E+00 0.  1.
         -1    1    1    2    0  501 -0.19593282475E+02  0.46761804806E+01  0.34804057367E+02  0.40213005250E+02  0.00000000000E+00 0. -1.
</event>
<event>
 4    1  0.6629728E+001  0.3856875E+02  0.7546771E-02  0.1357083E+00
          2   -1    0    0  502    0  0.00000000000E+00  0.00000000000E+00  0.64405020920E+02  0.64405020920E+02  0.00000000000E+00 0.  1.
         -2   -1    0    0    0  501 -0.00000000000E+00 -0.00000000000E+00 -0.23356635236E+02  0.23356635236E+02  0.00000000000E+00 0. -1.
          1    1    1    2  502    0 -0.37658663476E+02  0.83290818683E+01  0.15895736366E+02  0.41715979842E+02  0.00000000000E+00 0. -1.
         -1    1    1    2    0  501  0.37658663476E+02 -0.83290818683E+01  0.25152649318E+02  0.46045676314E+02  0.00000000000E+00 0.  1.
</event>
<event>
 4    1  0.6629728E+001  0.2395054E+02  0.7546771E-02  0.1480895E+00
          2   -1    0    0  502    0  0.00000000000E+00  0.00000000000E+00  0.17301158427E+04  0.17301158427E+04  0.00000000000E+00 0. -1.
         -2   -1    0    0    0  501 -0.00000000000E+00 -0.00000000000E+00 -0.49334006980E+00  0.49334006980E+00  0.00000000000E+00 0.  1.
          1    1    1    2  502    0  0.23926920534E+02 -0.10634826475E+01  0.13603356708E+04  0.13605464952E+04  0.00000000000E+00 0. -1.
         -1    1    1    2    0  501 -0.23926920534E+02  0.10634826475E+01  0.36928683183E+03  0.37006268751E+03  0.00000000000E+00 0.  1.
</event>
<event>
 4    1  0.6629728E+001  0.2825948E+02  0.7546771E-02  0.1435351E+00
          2   -1    0    0  502    0  0.00000000000E+00  0.00000000000E+00  0.23768040015E+04  0.23768040015E+04  0.00000000000E+00 0.  1.
         -2   -1    0    0    0  501 -0.00000000000E+00 -0.00000000000E+00 -0.51709467628E+00  0.51709467628E+00  0.00000000000E+00 0. -1.
          1    1    1    2  502    0 -0.19623128976E+02  0.20335462633E+02  0.18915876469E+04  0.18917987272E+04  0.00000000000E+00 0.  1.
         -1    1    1    2    0  501  0.19623128976E+02 -0.20335462633E+02  0.48469925993E+03  0.48552236901E+03  0.00000000000E+00 0. -1.
</event>
<event>
 4    1  0.6629728E+001  0.2091276E+02  0.7546771E-02  0.1520514E+00
          2   -1    0    0  502    0  0.00000000000E+00  0.00000000000E+00  0.44431705620E+03  0.44431705620E+03  0.00000000000E+00 0. -1.
         -2   -1    0    0    0  501 -0.00000000000E+00 -0.00000000000E+00 -0.99131512553E+00  0.99131512553E+00  0.00000000000E+00 0.  1.
          1    1    1    2  502    0 -0.15040023664E+01 -0.20858610004E+02  0.24038600357E+03  0.24129395837E+03  0.00000000000E+00 0. -1.
         -1    1    1    2    0  501  0.15040023664E+01  0.20858610004E+02  0.20293973751E+03  0.20401441296E+03  0.00000000000E+00 0.  1.
</event>
<event>
 4    1  0.6629728E+001  0.3160034E+02  0.7546771E-02  0.1406181E+00
          2   -1    0    0  502    0  0.00000000000E+00  0.00000000000E+00  0.48246620420E+03  0.48246620420E+03  0.00000000000E+00 0.  1.
         -2   -1    0    0    0  501 -0.00000000000E+00 -0.00000000000E+00 -0.22704573595E+01  0.22704573595E+01  0.00000000000E+00 0. -1.
          1    1    1    2  502    0  0.94485285413E+01  0.30154715663E+02  0.31216002983E+03  0.31375542352E+03  0.00000000000E+00 0.  1.
         -1    1    1    2    0  501 -0.94485285413E+01 -0.30154715663E+02  0.16803571701E+03  0.17098123803E+03  0.00000000000E+00 0. -1.
</event>
<event>
 4    1  0.6629728E+001  0.3349016E+02  0.7546771E-02  0.1391500E+00
          2   -1    0    0  502    0  0.00000000000E+00  0.00000000000E+00  0.70051789073E+02  0.70051789073E+02  0.00000000000E+00 0.  1.
         -2   -1    0    0    0  501 -0.00000000000E+00 -0.00000000000E+00 -0.16061362869E+02  0.16061362869E+02  0.00000000000E+00 0. -1.
          1    1    1    2  502    0  0.24051771007E+01  0.33403677840E+02  0.24581232797E+02  0.41543080964E+02  0.00000000000E+00 0. -1.
         -1    1    1    2    0  501 -0.24051771007E+01 -0.33403677840E+02  0.29409193407E+02  0.44570070978E+02  0.00000000000E+00 0.  1.
</event>
<event>
 4    1  0.6629728E+001  0.3123253E+02  0.7546771E-02  0.1409180E+00
          2   -1    0    0  502    0  0.00000000000E+00  0.00000000000E+00  0.52318577328E+02  0.52318577328E+02  0.00000000000E+00 0.  1.
         -2   -1    0    0    0  501 -0.00000000000E+00 -0.00000000000E+00 -0.22495394416E+02  0.22495394416E+02  0.00000000000E+00 0. -1.
          1    1    1    2  502    0 -0.15490755947E+02  0.27120234664E+02 -0.56475573706E+00  0.31237631106E+02  0.00000000000E+00 0. -1.
         -1    1    1    2    0  501  0.15490755947E+02 -0.27120234664E+02  0.30387938650E+02  0.43576340638E+02  0.00000000000E+00 0.  1.
</event>
<event>
 4    1  0.6629728E+001  0.2156723E+02  0.7546771E-02  0.1511318E+00
          2   -1    0    0  502    0  0.00000000000E+00  0.00000000000E+00  0.13726796429E+04  0.13726796429E+04  0.00000000000E+00 0. -1.
         -2   -1    0    0    0  501 -0.00000000000E+00 -0.00000000000E+00 -0.45212511279E+00  0.45212511279E+00  0.00000000000E+00 0.  1.
          1    1    1    2  502    0  0.10880534054E+02 -0.18621475521E+02  0.34247497388E+03  0.34315339589E+03  0.00000000000E+00 0.  1.
         -1    1    1    2    0  501 -0.10880534054E+02  0.18621475521E+02  0.10297525439E+04  0.10299783721E+04  0.00000000000E+00 0. -1.
</event>
<event>
 4    1  0.6629728E+001  0.4393669E+02  0.7546771E-02  0.1326843E+00
          2   -1    0    0  502    0  0.00000000000E+00  0.00000000000E+00  0.24888172360E+03  0.24888172360E+03  0.00000000000E+00 0. -1.
         -2   -1    0    0    0  501 -0.00000000000E+00 -0.00000000000E+00 -0.10033174273E+02  0.10033174273E+02  0.00000000000E+00 0.  1.
          1    1    1    2  502    0  0.15044099985E+02 -0.41280835933E+02  0.18109307418E+03  0.18634681075E+03  0.00000000000E+00 0. -1.
         -1    1    1    2    0  501 -0.15044099985E+02  0.41280835933E+02  0.57755475147E+02  0.72568087126E+02  0.00000000000E+00 0.  1.
</event>
<event>
 4    1  0.6629728E+001  0.2221230E+02  0.7546771E-02  0.1502633E+00
          2   -1    0    0  502    0  0.00000000000E+00  0.00000000000E+00  0.11263168211E+03  0.11263168211E+03  0.00000000000E+00 0. -1.
         -2   -1    0    0    0  501 -0.00000000000E+00 -0.00000000000E+00 -0.14816260742E+02  0.14816260742E+02  0.00000000000E+00 0.  1.
          1    1    1    2  502    0 -0.29472238346E+01 -0.22015909961E+02 -0.45727289267E+01  0.22678101102E+02  0.00000000000E+00 0.  1.
         -1    1    1    2    0  501  0.29472238346E+01  0.22015909961E+02  0.10238815030E+03  0.10476984175E+03  0.00000000000E+00 0. -1.
</event>
<event>
 4    1  0.6629728E+001  0.2396605E+02  0.7546771E-02  0.1480711E+00
          2   -1    0    0  502    0  0.00000000000E+00  0.00000000000E+00  0.95965854410E+03  0.95965854410E+03  0.00000000000E+00 0. -1.
         -2   -1    0    0    0  501 -0.00000000000E+00 -0.00000000000E+00 -0.12348015529E+01  0.12348015529E+01  0.00000000000E+00 0.  1.
          1    1    1    2  502    0  0.10419069129E+02 -0.21582733628E+02  0.13432830873E+03  0.13644949952E+03  0.00000000000E+00 0.  1.
         -1    1    1    2    0  501 -0.10419069129E+02  0.21582733628E+02  0.82409543381E+03  0.82444384613E+03  0.00000000000E+00 0. -1.
</event>
<event>
 4    1  0.6629728E+001  0.4133089E+02  0.7546771E-02  0.1340858E+00
          2   -1    0    0  502    0  0.00000000000E+00  0.00000000000E+00  0.58908214081E+03  0.58908214081E+03  0.00000000000E+00 0. -1.
         -2   -1    0    0    0  501 -0.00000000000E+00 -0.00000000000E+00 -0.34299874774E+01  0.34299874774E+01  0.00000000000E+00 0.  1.
          1    1    1    2  502    0 -0.11160659581E+02  0.39795507874E+02  0.40929770732E+03  0.41137921190E+03  0.00000000000E+00 0. -1.
         -1    1    1    2    0  501  0.11160659581E+02 -0.39795507874E+02  0.17635444601E+03  0.18113291638E+03  0.00000000000E+00 0.  1.
</event>
<event>
 4    1  0.6629728E+001  0.2181190E+02  0.7546771E-02  0.1507982E+00
          2   -1    0    0  502    0  0.00000000000E+00  0.00000000000E+00  0.42114438515E+02  0.42114438515E+02  0.00000000000E+00 0. -1.
         -2   -1    0    0    0  501 -0.00000000000E+00 -0.00000000000E+00 -0.14391798718E+02  0.14391798718E+02  0.00000000000E+00 0.  1.
          1    1    1    2  502    0 -0.21498717874E+02 -0.36829253054E+01  0.26963343929E+02  0.34681129232E+02  0.00000000000E+00 0. -1.
         -1    1    1    2    0  501  0.21498717874E+02  0.36829253054E+01  0.75929586775E+00  0.21825108000E+02  0.00000000000E+00 0.  1.
</event>
<event>
 4    1  0.6629728E+001  0.2531354E+02  0.7546771E-02  0.1465326E+00
          2   -1    0    0  502    0  0.00000000000E+00  0.00000000000E+00  0.15964772169E+04  0.15964772169E+04  0.00000000000E+00 0.  1.
         -2   -1    0    0    0  501 -0.00000000000E+00 -0.00000000000E+00 -0.11484990745E+01  0.11484990745E+01  0.00000000000E+00 0. -1.
          1    1    1    2  502    0  0.19885311919E+02 -0.15663646901E+02  0.15337936938E+03  0.15545419395E+03  0.00000000000E+00 0. -1.
         -1    1    1    2    0  501 -0.19885311919E+02  0.15663646901E+02  0.14419493484E+04  0.14421715220E+04  0.00000000000E+00 0.  1.
</event>
<event>
 4    1  0.6629728E+001  0.7317409E+02  0.7546771E-02  0.1220647E+00
          2   -1    0    0  502    0  0.00000000000E+00  0.00000000000E+00  0.10596761027E+04  0.10596761027E+04  0.00000000000E+00 0. -1.
         -2   -1    0    0    0  501 -0.00000000000E+00 -0.00000000000E+00 -0.35290108729E+02  0.35290108729E+02  0.00000000000E+00 0.  1.
          1    1    1    2  502    0  0.44503314757E+02  0.58085304491E+02  0.10189677884E+04  0.10215917978E+04  0.00000000000E+00 0. -1.
         -1    1    1    2    0  501 -0.44503314757E+02 -0.58085304491E+02  0.54182056050E+01  0.73374413621E+02  0.00000000000E+00 0.  1.
</event>
<event>
 4    1  0.6629728E+001  0.2362520E+02  0.7546771E-02  0.1484793E+00
          2   -1    0    0  502    0  0.00000000000E+00  0.00000000000E+00  0.54455632004E+03  0.54455632004E+03  0.00000000000E+00 0. -1.
         -2   -1    0    0    0  501 -0.00000000000E+00 -0.00000000000E+00 -0.27818038393E+01  0.27818038393E+01  0.00000000000E+00 0.  1.
          1    1    1    2  502    0  0.41014351428E+01 -0.23266463116E+02  0.53402581844E+02  0.58395083900E+02  0.00000000000E+00 0.  1.
         -1    1    1    2    0  501 -0.41014351428E+01  0.23266463116E+02  0.48837193436E+03  0.48894303998E+03  0.00000000000E+00 0. -1.
</event>
<event>
 4    1  0.6629728E+001  0.2273832E+02  0.7546771E-02  0.1495810E+00
          2   -1    0    0  502    0  0.00000000000E+00  0.00000000000E+00  0.11751734734E+03  0.11751734734E+03  0.00000000000E+00 0.  1.
         -2   -1    0    0    0  501 -0.00000000000E+00 -0.00000000000E+00 -0.44164548694E+01  0.44164548694E+01  0.00000000000E+00 0. -1.
          1    1    1    2  502    0 -0.14343922606E+02 -0.17643221966E+02  0.52786076783E+02  0.57475223351E+02  0.00000000000E+00 0. -1.
         -1    1    1    2    0  501  0.14343922606E+02  0.17643221966E+02  0.60314815686E+02  0.64458578857E+02  0.00000000000E+00 0.  1.
</event>
<event>
 4    1  0.6629728E+001  0.2818637E+02  0.7546771E-02  0.1436041E+00
          2   -1    0    0  502    0  0.00000000000E+00  0.00000000000E+00  0.39397822555E+02  0.39397822555E+02  0.00000000000E+00 0.  1.
         -2   -1    0    0    0  501 -0.00000000000E+00 -0.00000000000E+00 -0.20604215700E+02  0.20604215700E+02  0.00000000000E+00 0. -1.
          1    1    1    2  502    0  0.26685419269E+02 -0.90752290146E+01  0.13775224011E+02  0.31372411125E+02  0.00000000000E+00 0.  1.
         -1    1    1    2    0  501 -0.26685419269E+02  0.90752290146E+01  0.50183828439E+01  0.28629627130E+02  0.00000000000E+00 0. -1.
</event>
<event>
 4    1  0.6629728E+001  0.2657453E+02  0.7546771E-02  0.1451929E+00
          2   -1    0    0  502    0  0.00000000000E+00  0.00000000000E+00  0.93284279177E+03  0.93284279177E+03  0.00000000000E+00 0. -1.
         -2   -1    0    0    0  501 -0.00000000000E+00 -0.00000000000E+00 -0.77462014410E+00  0.77462014410E+00  0.00000000000E+00 0.  1.
          1    1    1    2  502    0 -0.25731724169E+02  0.66395896820E+01  0.39572360866E+03  0.39661490168E+03  0.00000000000E+00 0. -1.
         -1    1    1    2    0  501  0.25731724169E+02 -0.66395896820E+01  0.53634456296E+03  0.53700251023E+03  0.00000000000E+00 0.  1.
</event>
<event>
 4    1  0.6629728E+001  0.2037736E+02  0.7546771E-02  0.1528343E+00
          2   -1    0    0  502    0  0.00000000000E+00  0.00000000000E+00  0.48162169525E+03  0.48162169525E+03  0.00000000000E+00 0.  1.
         -2   -1    0    0    0  501 -0.00000000000E+00 -0.00000000000E+00 -0.89492160482E+00  0.89492160482E+00  0.00000000000E+00 0. -1.
          1    1    1    2  502    0  0.10412454246E+02  0.17516213272E+02  0.19420557073E+03  0.19527170976E+03  0.00000000000E+00 0. -1.
         -1    1    1    2    0  501 -0.10412454246E+02 -0.17516213272E+02  0.28652120292E+03  0.28724490710E+03  0.00000000000E+00 0.  1.
</event>
<event>
 4    1  0.6629728E+001  0.2252095E+02  0.7546771E-02  0.1498603E+00
          2   -1    0    0  502    0  0.00000000000E+00  0.00000000000E+00  0.59138705324E+03  0.59138705324E+03  0.00000000000E+00 0.  1.
         -2   -1    0    0    0  501 -0.00000000000E+00 -0.00000000000E+00 -0.11329174481E+01  0.11329174481E+01  0.00000000000E+00 0. -1.
          1    1    1    2  502    0 -0.21198550776E+02  0.76035948582E+01  0.44116460273E+03  0.44173906315E+03  0.00000000000E+00 0.  1.
         -1    1    1    2    0  501  0.21198550776E+02 -0.76035948582E+01  0.14908953307E+03  0.15078090754E+03  0.00000000000E+00 0. -1.
</event>
<event>
 4    1  0.6629728E+001  0.3794013E+02  0.7546771E-02  0.1360998E+00
          2   -1    0    0  502    0  0.00000000000E+00  0.00000000000E+00  0.18625959512E+02  0.18625959512E+02  0.00000000000E+00 0.  1.
         -2   -1    0    0    0  501 -0.00000000000E+00 -0.00000000000E+00 -0.85856138254E+02  0.85856138254E+02  0.00000000000E+00 0. -1.
          1    1    1    2  502    0  0.20903341261E+02  0.31662338544E+02 -0.50124014414E+02  0.62863902034E+02  0.00000000000E+00 0.  1.
         -1    1    1    2    0  501 -0.20903341261E+02 -0.31662338544E+02 -0.17106164328E+02  0.41618195731E+02  0.00000000000E+00 0. -1.
</event>
<event>
 4    1  0.6629728E+001  0.2297084E+02  0.7546771E-02  0.1492865E+00
          2   -1    0    0  502    0  0.00000000000E+00  0.00000000000E+00  0.31291424286E+02  0.31291424286E+02  0.00000000000E+00 0.  1.
         -2   -1    0    0    0  501 -0.00000000000E+00 -0.00000000000E+00 -0.27678882265E+02  0.27678882265E+02  0.00000000000E+00 0. -1.
          1    1    1    2  502    0 -0.23952766672E+00 -0.22969595501E+02  0.20237952850E+02  0.30614284682E+02  0.00000000000E+00 0.  1.
         -1    1    1    2    0  501  0.23952766672E+00  0.22969595501E+02 -0.16625410829E+02  0.28356021869E+02  0.00000000000E+00 0. -1.
</event>
<event>
 4    1  0.6629728E+001  0.3024870E+02  0.7546771E-02  0.1417447E+00
          2   -1    0    0  502    0  0.00000000000E+00  0.00000000000E+00  0.25312864764E+01  0.25312864764E+01  0.00000000000E+00 0. -1.
         -2   -1    0    0    0  501 -0.00000000000E+00 -0.00000000000E+00 -0.40291724964E+03  0.40291724964E+03  0.00000000000E+00 0.  1.
          1    1    1    2  502    0 -0.57498471486E+01  0.29697194222E+02 -0.26521279861E+03  0.26693222480E+03  0.00000000000E+00 0.  1.
         -1    1    1    2    0  501  0.57498471486E+01 -0.29697194222E+02 -0.13517316455E+03  0.13851631131E+03  0.00000000000E+00 0. -1.
</event>
<event>
 4    1  0.6629728E+001  0.4387898E+02  0.7546771E-02  0.1327141E+00
          2   -1    0    0  502    0  0.00000000000E+00  0.00000000000E+00  0.18239883798E+04  0.18239883798E+04  0.00000000000E+00 0.  1.
         -2   -1    0    0    0  501 -0.00000000000E+00 -0.00000000000E+00 -0.14495376832E+01  0.14495376832E+01  0.00000000000E+00 0. -1.
          1    1    1    2  502    0 -0.33811419300E+02  0.27966999814E+02  0.13870944199E+04  0.13877882745E+04  0.00000000000E+00 0.  1.
         -1    1    1    2    0  501  0.33811419300E+02 -0.27966999814E+02  0.43544442222E+03  0.43764964298E+03  0.00000000000E+00 0. -1.
</event>
<event>
 4    1  0.6629728E+001  0.2463746E+02  0.7546771E-02  0.1472900E+00
          2   -1    0    0  502    0  0.00000000000E+00  0.00000000000E+00  0.13170394574E+03  0.13170394574E+03  0.00000000000E+00 0.  1.
         -2   -1    0    0    0  501 -0.00000000000E+00 -0.00000000000E+00 -0.81961973783E+01  0.81961973783E+01  0.00000000000E+00 0. -1.
          1    1    1    2  502    0 -0.21240914084E+02 -0.12483099596E+02  0.10803122150E+03  0.11080500451E+03  0.00000000000E+00 0.  1.
         -1    1    1    2    0  501  0.21240914084E+02  0.12483099596E+02  0.15476526861E+02  0.29095138603E+02  0.00000000000E+00 0. -1.
</event>
<event>
 4    1  0.6629728E+001  0.2367028E+02  0.7546771E-02  0.1484249E+00
          2   -1    0    0  502    0  0.00000000000E+00  0.00000000000E+00  0.27806710808E+03  0.27806710808E+03  0.00000000000E+00 0.  1.
         -2   -1    0    0    0  501 -0.00000000000E+00 -0.00000000000E+00 -0.20187432892E+01  0.20187432892E+01  0.00000000000E+00 0. -1.
          1    1    1    2  502    0  0.14733439579E+02 -0.18525868074E+02  0.13192695090E+03  0.13403358685E+03  0.00000000000E+00 0.  1.
         -1    1    1    2    0  501 -0.14733439579E+02  0.18525868074E+02  0.14412141389E+03  0.14605226452E+03  0.00000000000E+00 0. -1.
</event>
<event>
 4    1  0.6629728E+001  0.2034437E+02  0.7546771E-02  0.1528835E+00
          2   -1    0    0  502    0  0.00000000000E+00  0.00000000000E+00  0.87723328961E+03  0.87723328961E+03  0.00000000000E+00 0. -1.
         -2   -1    0    0    0  501 -0.00000000000E+00 -0.00000000000E+00 -0.58493039345E+00  0.58493039345E+00  0.00000000000E+00 0.  1.
          1    1    1    2  502    0 -0.55959732667E+01 -0.19559615497E+02  0.63133414995E+03  0.63166185762E+03  0.00000000000E+00 0. -1.
         -1    1    1    2    0  501  0.55959732667E+01  0.19559615497E+02  0.24531420927E+03  0.24615636239E+03  0.00000000000E+00 0.  1.
</event>
<event>
 4    1  0.6629728E+001  0.2249993E+02  0.7546771E-02  0.1498875E+00
          2   -1    0    0  502    0  0.00000000000E+00  0.00000000000E+00  0.16910803819E+02  0.16910803819E+02  0.00000000000E+00 0.  1.
         -2   -1    0    0    0  501 -0.00000000000E+00 -0.00000000000E+00 -0.57883502996E+02  0.57883502996E+02  0.00000000000E+00 0. -1.
          1    1    1    2  502    0 -0.56648474397E+01 -0.21775128019E+02 -0.46471809599E+02  0.51632119695E+02  0.00000000000E+00 0. -1.
         -1    1    1    2    0  501  0.56648474397E+01  0.21775128019E+02  0.54991104211E+01  0.23162187120E+02  0.00000000000E+00 0.  1.
</event>
<event>
 4    1  0.6629728E+001  0.2073128E+02  0.7546771E-02  0.1523136E+00
          2   -1    0    0  502    0  0.00000000000E+00  0.00000000000E+00  0.23302585765E+03  0.23302585765E+03  0.00000000000E+00 0.  1.
         -2   -1    0    0    0  501 -0.00000000000E+00 -0.00000000000E+00 -0.26937491425E+01  0.26937491425E+01  0.00000000000E+00 0. -1.
          1    1    1    2  502    0  0.10380302433E+02  0.17945344096E+02  0.48984377402E+02  0.53190744334E+02  0.00000000000E+00 0. -1.
         -1    1    1    2    0  501 -0.10380302433E+02 -0.17945344096E+02  0.18134773110E+03  0.18252886246E+03  0.00000000000E+00 0.  1.
</event>
<event>
 4    1  0.6629728E+001  0.2249608E+02  0.7546771E-02  0.1498925E+00
          2   -1    0    0  502    0  0.00000000000E+00  0.00000000000E+00  0.14720794876E+04  0.14720794876E+04  0.00000000000E+00 0.  1.
         -2   -1    0    0    0  501 -0.00000000000E+00 -0.00000000000E+00 -0.34387801269E+00  0.34387801269E+00  0.00000000000E+00 0. -1.
          1    1    1    2  502    0  0.14586622143E+02  0.17126118928E+02  0.74821013374E+03  0.74854824676E+03  0.00000000000E+00 0.  1.
         -1    1    1    2    0  501 -0.14586622143E+02 -0.17126118928E+02  0.72352547587E+03  0.72387511888E+03  0.00000000000E+00 0. -1.
</event>
<event>
 4    1  0.6629728E+001  0.2138790E+02  0.7546771E-02  0.1513798E+00
          2   -1    0    0  502    0  0.00000000000E+00  0.00000000000E+00  0.26072977619E+04  0.26072977619E+04  0.00000000000E+00 0.  1.
         -2   -1    0    0    0  501 -0.00000000000E+00 -0.00000000000E+00 -0.18127425419E+00  0.18127425419E+00  0.00000000000E+00 0. -1.
          1    1    1    2  502    0 -0.51243338065E+00  0.21381757033E+02  0.10698031089E+04  0.10700168849E+04  0.00000000000E+00 0. -1.
         -1    1    1    2    0  501  0.51243338065E+00 -0.21381757033E+02  0.15373133787E+04  0.15374621512E+04  0.00000000000E+00 0.  1.
</event>
<event>
 4    1  0.6629728E+001  0.2482765E+02  0.7546771E-02  0.1470741E+00
          2   -1    0    0  502    0  0.00000000000E+00  0.00000000000E+00  0.92839636052E+03  0.92839636052E+03  0.00000000000E+00 0. -1.
         -2   -1    0    0    0  501 -0.00000000000E+00 -0.00000000000E+00 -0.66486709055E+00  0.66486709055E+00  0.00000000000E+00 0.  1.
          1    1    1    2  502    0 -0.19711038455E+02  0.15095926780E+02  0.44664645841E+03  0.44733597089E+03  0.00000000000E+00 0. -1.
         -1    1    1    2    0  501  0.19711038455E+02 -0.15095926780E+02  0.48108503501E+03  0.48172525671E+03  0.00000000000E+00 0.  1.
</event>
<event>
 4    1  0.6629728E+001  0.3111524E+02  0.7546771E-02  0.1410146E+00
          2   -1    0    0  502    0  0.00000000000E+00  0.00000000000E+00  0.73455475953E+02  0.73455475953E+02  0.00000000000E+00 0.  1.
         -2   -1    0    0    0  501 -0.00000000000E+00 -0.00000000000E+00 -0.13776453760E+02  0.13776453760E+02  0.00000000000E+00 0. -1.
          1    1    1    2  502    0  0.20477016220E+02 -0.23427541604E+02  0.38913372842E+02  0.49823774293E+02  0.00000000000E+00 0.  1.
         -1    1    1    2    0  501 -0.20477016220E+02  0.23427541604E+02  0.20765649351E+02  0.37408155419E+02  0.00000000000E+00 0. -1.
</event>
<event>
 4    1  0.6629728E+001  0.3401808E+02  0.7546771E-02  0.1387601E+00
          2   -1    0    0  502    0  0.00000000000E+00  0.00000000000E+00  0.14211837256E+03  0.14211837256E+03  0.00000000000E+00 0. -1.
         -2   -1    0    0    0  501 -0.00000000000E+00 -0.00000000000E+00 -0.94433217781E+01  0.94433217781E+01  0.00000000000E+00 0.  1.
          1    1    1    2  502    0 -0.10352852578E+01  0.34002321284E+02  0.94461050636E+02  0.10039979958E+03  0.00000000000E+00 0. -1.
         -1    1    1    2    0  501  0.10352852578E+01 -0.34002321284E+02  0.38214000151E+02  0.51161894764E+02  0.00000000000E+00 0.  1.
</event>
<event>
 4    1  0.6629728E+001  0.2601829E+02  0.7546771E-02  0.1457727E+00
          2   -1    0    0  502    0  0.00000000000E+00  0.00000000000E+00  0.26357869519E+02  0.26357869519E+02  0.00000000000E+00 0.  1.
         -2   -1    0    0    0  501 -0.00000000000E+00 -0.00000000000E+00 -0.33550238665E+02  0.33550238665E+02  0.00000000000E+00 0. -1.
          1    1    1    2  502    0 -0.13435205071E+02 -0.22281082354E+02  0.10908779524E+02  0.28212636120E+02  0.00000000000E+00 0.  1.
         -1    1    1    2    0  501  0.13435205071E+02  0.22281082354E+02 -0.18101148670E+02  0.31695472063E+02  0.00000000000E+00 0. -1.
</event>
<event>
 4    1  0.6629728E+001  0.2446306E+02  0.7546771E-02  0.1474901E+00
          2   -1    0    0  502    0  0.00000000000E+00  0.00000000000E+00  0.13494284491E+03  0.13494284491E+03  0.00000000000E+00 0.  1.
         -2   -1    0    0    0  501 -0.00000000000E+00 -0.00000000000E+00 -0.90722434132E+01  0.90722434132E+01  0.00000000000E+00 0. -1.
          1    1    1    2  502    0  0.15225323100E+01  0.24415632261E+02  0.11441797735E+03  0.11700390910E+03  0.00000000000E+00 0.  1.
         -1    1    1    2    0  501 -0.15225323100E+01 -0.24415632261E+02  0.11452624148E+02  0.27011179227E+02  0.00000000000E+00 0. -1.
</event>
<event>
 4    1  0.6629728E+001  0.2176410E+02  0.7546771E-02  0.1508629E+00
          2   -1    0    0  502    0  0.00000000000E+00  0.00000000000E+00  0.41845261138E+03  0.41845261138E+03  0.00000000000E+00 0.  1.
         -2   -1    0    0    0  501 -0.00000000000E+00 -0.00000000000E+00 -0.14198625940E+01  0.14198625940E+01  0.00000000000E+00 0. -1.
          1    1    1    2  502    0  0.19320500285E+02 -0.10019706263E+02  0.11398440657E+03  0.11604361760E+03  0.00000000000E+00 0. -1.
         -1    1    1    2    0  501 -0.19320500285E+02  0.10019706263E+02  0.30304834222E+03  0.30382885638E+03  0.00000000000E+00 0.  1.
</event>
<event>
 4    1  0.6629728E+001  0.4636134E+02  0.7546771E-02  0.1314769E+00
          2   -1    0    0  502    0  0.00000000000E+00  0.00000000000E+00  0.23984452406E+04  0.23984452406E+04  0.00000000000E+00 0.  1.
         -2   -1    0    0    0  501 -0.00000000000E+00 -0.00000000000E+00 -0.90822565587E+00  0.90822565587E+00  0.00000000000E+00 0. -1.
          1    1    1    2  502    0 -0.19147904450E+02 -0.42222410404E+02  0.13370826563E+04  0.13378861701E+04  0.00000000000E+00 0. -1.
         -1    1    1    2    0  501  0.19147904450E+02  0.42222410404E+02  0.10604543586E+04  0.10614672962E+04  0.00000000000E+00 0.  1.
</event>
<event>
 4    1  0.6629728E+001  0.2116284E+02  0.7546771E-02  0.1516953E+00
          2   -1    0    0  502    0  0.00000000000E+00  0.00000000000E+00  0.30715631733E+02  0.30715631733E+02  0.00000000000E+00 0. -1.
         -2   -1    0    0    0  501 -0.00000000000E+00 -0.00000000000E+00 -0.14588052560E+02  0.14588052560E+02  0.00000000000E+00 0.  1.
          1    1    1    2  502    0  0.17615131807E+02 -0.11729142281E+02  0.75669085144E+01  0.22474958324E+02  0.00000000000E+00 0. -1.
         -1    1    1    2    0  501 -0.17615131807E+02  0.11729142281E+02  0.85606706580E+01  0.22828725968E+02  0.00000000000E+00 0.  1.
</event>
<event>
 4    1  0.6629728E+001  0.4385139E+02  0.7546771E-02  0.1327284E+00
          2   -1    0    0  502    0  0.00000000000E+00  0.00000000000E+00  0.14936197184E+04  0.14936197184E+04  0.00000000000E+00 0. -1.
         -2   -1    0    0    0  501 -0.00000000000E+00 -0.00000000000E+00 -0.13401526269E+01  0.13401526269E+01  0.00000000000E+00 0.  1.
          1    1    1    2  502    0 -0.26230754355E+02  0.35141033028E+02  0.59789386086E+03  0.59949980278E+03  0.00000000000E+00 0.  1.
         -1    1    1    2    0  501  0.26230754355E+02 -0.35141033028E+02  0.89438570492E+03  0.89546006826E+03  0.00000000000E+00 0. -1.
</event>
<event>
 4    1  0.6629728E+001  0.2077652E+02  0.7546771E-02  0.1522480E+00
          2   -1    0    0  502    0  0.00000000000E+00  0.00000000000E+00  0.17929764631E+03  0.17929764631E+03  0.00000000000E+00 0. -1.
         -2   -1    0    0    0  501 -0.00000000000E+00 -0.00000000000E+00 -0.25338011412E+01  0.25338011412E+01  0.00000000000E+00 0.  1.
          1    1    1    2  502    0  0.20043166498E+02  0.54713187559E+01  0.10867793135E+03  0.11064608721E+03  0.00000000000E+00 0.  1.
         -1    1    1    2    0  501 -0.20043166498E+02 -0.54713187559E+01  0.68085913816E+02  0.71185360239E+02  0.00000000000E+00 0. -1.
</event>
<event>
 4    1  0.6629728E+001  0.2194433E+02  0.7546771E-02  0.1506197E+00
          2   -1    0    0  502    0  0.00000000000E+00  0.00000000000E+00  0.16715176672E+03  0.16715176672E+03  0.00000000000E+00 0.  1.
         -2   -1    0    0    0  501 -0.00000000000E+00 -0.00000000000E+00 -0.39677442913E+01  0.39677442913E+01  0.00000000000E+00 0. -1.
          1    1    1    2  502    0  0.18531902585E+02 -0.11752538815E+02  0.36813039019E+02  0.42857361373E+02  0.00000000000E+00 0. -1.
         -1    1    1    2    0  501 -0.18531902585E+02  0.11752538815E+02  0.12637098341E+03  0.12826214964E+03  0.00000000000E+00 0.  1.
</event>
<event>
 4    1  0.6629728E+001  0.4381490E+02  0.7546771E-02  0.1327473E+00
          2   -1    0    0  502    0  0.00000000000E+00  0.00000000000E+00  0.16857089898E+02  0.16857089898E+02  0.00000000000E+00 0. -1.
         -2   -1    0    0    0  501 -0.00000000000E+00 -0.00000000000E+00 -0.11881442055E+03  0.11881442055E+03  0.00000000000E+00 0.  1.
          1    1    1    2  502    0  0.50952694176E+01 -0.43517620276E+02 -0.64797976560E+02  0.78220987025E+02  0.00000000000E+00 0.  1.
         -1    1    1    2    0  501 -0.50952694176E+01  0.43517620276E+02 -0.37159354088E+02  0.57450523419E+02  0.00000000000E+00 0. -1.
</event>
<event>
 4    1  0.6629728E+001  0.2424484E+02  0.7546771E-02  0.1477432E+00
          2   -1    0    0  502    0  0.00000000000E+00  0.00000000000E+00  0.11035343449E+03  0.11035343449E+03  0.00000000000E+00 0. -1.
         -2   -1    0    0    0  501 -0.00000000000E+00 -0.00000000000E+00 -0.55098137681E+01  0.55098137681E+01  0.00000000000E+00 0.  1.
          1    1    1    2  502    0 -0.18985168746E+02  0.15078977685E+02  0.62984819872E+02  0.67489997294E+02  0.00000000000E+00 0. -1.
         -1    1    1    2    0  501  0.18985168746E+02 -0.15078977685E+02  0.41858800851E+02  0.48373250966E+02  0.00000000000E+00 0.  1.
</event>
<event>
 4    1  0.6629728E+001  0.4379064E+02  0.7546771E-02  0.1327598E+00
          2   -1    0    0  502    0  0.00000000000E+00  0.00000000000E+00  0.11616585716E+02  0.11616585716E+02  0.00000000000E+00 0.  1.
         -2   -1    0    0    0  501 -0.00000000000E+00 -0.00000000000E+00 -0.29761289936E+03  0.29761289936E+03  0.00000000000E+00 0. -1.
          1    1    1    2  502    0 -0.32905461667E+02 -0.28893781268E+02 -0.24617764254E+03  0.25004209983E+03  0.00000000000E+00 0.  1.
         -1    1    1    2    0  501  0.32905461667E+02  0.28893781268E+02 -0.39818671111E+02  0.59187385248E+02  0.00000000000E+00 0. -1.
</event>
<event>
 4    1  0.6629728E+001  0.2017045E+02  0.7546771E-02  0.1531446E+00
          2   -1    0    0  502    0  0.00000000000E+00  0.00000000000E+00  0.13797704093E+03  0.13797704093E+03  0.00000000000E+00 0.  1.
         -2   -1    0    0    0  501 -0.00000000000E+00 -0.00000000000E+00 -0.29595117237E+01  0.29595117237E+01  0.00000000000E+00 0. -1.
          1    1    1    2  502    0  0.99333323937E+01 -0.17554942096E+02  0.71776289424E+02  0.74556574545E+02  0.00000000000E+00 0. -1.
         -1    1    1    2    0  501 -0.99333323937E+01  0.17554942096E+02  0.63241239777E+02  0.66379978104E+02  0.00000000000E+00 0.  1.
</event>
<event>
 4    1  0.6629728E+001  0.3202355E+02  0.7546771E-02  0.1402790E+00
          2   -1    0    0  502    0  0.00000000000E+00  0.00000000000E+00  0.75991873200E+02  0.75991873200E+02  0.00000000000E+00 0.  1.
         -2   -1    0    0    0  501 -0.00000000000E+00 -0.00000000000E+00 -0.54252562619E+02  0.54252562619E+02  0.00000000000E+00 0. -1.
          1    1    1    2  502    0  0.31718901772E+02  0.44067194412E+01  0.67314375787E+02  0.74543497996E+02  0.00000000000E+00 0.  1.
         -1    1    1    2    0  501 -0.31718901772E+02 -0.44067194412E+01 -0.45575065206E+02  0.55700937823E+02  0.00000000000E+00 0. -1.
</event>
<event>
 4    1  0.6629728E+001  0.3849028E+02  0.7546771E-02  0.1357567E+00
          2   -1    0    0  502    0  0.00000000000E+00  0.00000000000E+00  0.29637250637E+03  0.29637250637E+03  0.00000000000E+00 0.  1.
         -2   -1    0    0    0  501 -0.00000000000E+00 -0.00000000000E+00 -0.49998356491E+01  0.49998356491E+01  0.00000000000E+00 0. -1.
          1    1    1    2  502    0  0.38489565786E+02  0.23389690607E+00  0.14349826992E+03  0.14857070657E+03  0.00000000000E+00 0. -1.
         -1    1    1    2    0  501 -0.38489565786E+02 -0.23389690607E+00  0.14787440080E+03  0.15280163544E+03  0.00000000000E+00 0.  1.
</event>
<event>
 4    1  0.6629728E+001  0.2500802E+02  0.7546771E-02  0.1468714E+00
          2   -1    0    0  502    0  0.00000000000E+00  0.00000000000E+00  0.30190284452E+02  0.30190284452E+02  0.00000000000E+00 0.  1.
         -2   -1    0    0    0  501 -0.00000000000E+00 -0.00000000000E+00 -0.21945221298E+02  0.21945221298E+02  0.00000000000E+00 0. -1.
          1    1    1    2  502    0  0.24637211608E+02 -0.42905349779E+01 -0.20486989067E+01  0.25091792551E+02  0.00000000000E+00 0. -1.
         -1    1    1    2    0  501 -0.24637211608E+02  0.42905349779E+01  0.10293762061E+02  0.27043713199E+02  0.00000000000E+00 0.  1.
</event>
<event>
 4    1  0.6629728E+001  0.3603603E+02  0.7546771E-02  0.1373422E+00
          2   -1    0    0  502    0  0.00000000000E+00  0.00000000000E+00  0.65288180938E+02  0.65288180938E+02  0.00000000000E+00 0. -1.
         -2   -1    0    0    0  501 -0.00000000000E+00 -0.00000000000E+00 -0.31873680433E+02  0.31873680433E+02  0.00000000000E+00 0.  1.
          1    1    1    2  502    0 -0.35891220463E+02 -0.32273906560E+01 -0.13080725555E+02  0.38336681362E+02  0.00000000000E+00 0.  1.
         -1    1    1    2    0  501  0.35891220463E+02  0.32273906560E+01  0.46495226060E+02  0.58825180009E+02  0.00000000000E+00 0. -1.
</event>
<event>
 4    1  0.6629728E+001  0.2678598E+02  0.7546771E-02  0.1449770E+00
          2   -1    0    0  502    0  0.00000000000E+00  0.00000000000E+00  0.42034354683E+01  0.42034354683E+01  0.00000000000E+00 0.  1.
         -2   -1    0    0    0  501 -0.00000000000E+00 -0.00000000000E+00 -0.17135223899E+03  0.17135223899E+03  0.00000000000E+00 0. -1.
          1    1    1    2  502    0 -0.82450803508E+00 -0.26773288412E+02 -0.78121785152E+02  0.82586331201E+02  0.00000000000E+00 0. -1.
         -1    1    1    2    0  501  0.82450803508E+00  0.26773288412E+02 -0.89027018373E+02  0.92969343260E+02  0.00000000000E+00 0.  1.
</event>
<event>
 4    1  0.6629728E+001  0.2146293E+02  0.7546771E-02  0.1512757E+00
          2   -1    0    0  502    0  0.00000000000E+00  0.00000000000E+00  0.24799567265E+02  0.24799567265E+02  0.00000000000E+00 0.  1.
         -2   -1    0    0    0  501 -0.00000000000E+00 -0.00000000000E+00 -0.19311466251E+02  0.19311466251E+02  0.00000000000E+00 0. -1.
          1    1    1    2  502    0  0.11218327703E+02 -0.18297718264E+02  0.70505235077E+01  0.22591309211E+02  0.00000000000E+00 0. -1.
         -1    1    1    2    0  501 -0.11218327703E+02  0.18297718264E+02 -0.15624224934E+01  0.21519724305E+02  0.00000000000E+00 0.  1.
</event>
<event>
 4    1  0.6629728E+001  0.2319020E+02  0.7546771E-02  0.1490124E+00
          2   -1    0    0  502    0  0.00000000000E+00  0.00000000000E+00  0.55335932003E+02  0.55335932003E+02  0.00000000000E+00 0. -1.
         -2   -1    0    0    0  501 -0.00000000000E+00 -0.00000000000E+00 -0.10419003524E+02  0.10419003524E+02  0.00000000000E+00 0.  1.
          1    1    1    2  502    0 -0.53025507850E+01 -0.22575832433E+02  0.30983056703E+02  0.38700582134E+02  0.00000000000E+00 0. -1.
         -1    1    1    2    0  501  0.53025507850E+01  0.22575832433E+02  0.13933871775E+02  0.27054353393E+02  0.00000000000E+00 0.  1.
</event>
<event>
 4    1  0.6629728E+001  0.2145654E+02  0.7546771E-02  0.1512845E+00
          2   -1    0    0  502    0  0.00000000000E+00  0.00000000000E+00  0.46292691397E+03  0.46292691397E+03  0.00000000000E+00 0.  1.
         -2   -1    0    0    0  501 -0.00000000000E+00 -0.00000000000E+00 -0.10940537552E+01  0.10940537552E+01  0.00000000000E+00 0. -1.
          1    1    1    2  502    0 -0.12771949015E+02  0.17241237925E+02  0.16093110769E+03  0.16235517974E+03  0.00000000000E+00 0. -1.
         -1    1    1    2    0  501  0.12771949015E+02 -0.17241237925E+02  0.30090175253E+03  0.30166578798E+03  0.00000000000E+00 0.  1.
</event>
<event>
 4    1  0.6629728E+001  0.2249909E+02  0.7546771E-02  0.1498886E+00
          2   -1    0    0  502    0  0.00000000000E+00  0.00000000000E+00  0.16094859951E+04  0.16094859951E+04  0.00000000000E+00 0. -1.
         -2   -1    0    0    0  501 -0.00000000000E+00 -0.00000000000E+00 -0.35120264775E+00  0.35120264775E+00  0.00000000000E+00 0.  1.
          1    1    1    2  502    0 -0.71393405220E+01  0.21336330606E+02  0.10647191496E+04  0.10649568427E+04  0.00000000000E+00 0.  1.
         -1    1    1    2    0  501  0.71393405220E+01 -0.21336330606E+02  0.54441564283E+03  0.54488035508E+03  0.00000000000E+00 0. -1.
</event>
<event>
 4    1  0.6629728E+001  0.2130815E+02  0.7546771E-02  0.1514910E+00
          2   -1    0    0  502    0  0.00000000000E+00  0.00000000000E+00  0.35938073805E+03  0.35938073805E+03  0.00000000000E+00 0. -1.
         -2   -1    0    0    0  501 -0.00000000000E+00 -0.00000000000E+00 -0.74583736409E+01  0.74583736409E+01  0.00000000000E+00 0.  1.
          1    1    1    2  502    0  0.11197991631E+02  0.18128492950E+02  0.34312555574E+03  0.34378653882E+03  0.00000000000E+00 0. -1.
         -1    1    1    2    0  501 -0.11197991631E+02 -0.18128492950E+02  0.87968086711E+01  0.23052572871E+02  0.00000000000E+00 0.  1.
</event>
<event>
 4    1  0.6629728E+001  0.1026410E+03  0.7546771E-02  0.1159309E+00
          2   -1    0    0  502    0  0.00000000000E+00  0.00000000000E+00  0.64522452980E+03  0.64522452980E+03  0.00000000000E+00 0. -1.
         -2   -1    0    0    0  501 -0.00000000000E+00 -0.00000000000E+00 -0.16329979208E+02  0.16329979208E+02  0.00000000000E+00 0.  1.
          1    1    1    2  502    0  0.70648044672E+01  0.10239761157E+03  0.31074377711E+03  0.32725659250E+03  0.00000000000E+00 0.  1.
         -1    1    1    2    0  501 -0.70648044672E+01 -0.10239761157E+03  0.31815077348E+03  0.33429791651E+03  0.00000000000E+00 0. -1.
</event>
<event>
 4    1  0.6629728E+001  0.2379030E+02  0.7546771E-02  0.1482806E+00
          2   -1    0    0  502    0  0.00000000000E+00  0.00000000000E+00  0.76416052623E+03  0.76416052623E+03  0.00000000000E+00 0. -1.
         -2   -1    0    0    0  501 -0.00000000000E+00 -0.00000000000E+00 -0.75851562143E+00  0.75851562143E+00  0.00000000000E+00 0.  1.
          1    1    1    2  502    0 -0.21369716046E+02 -0.10455324071E+02  0.32301109917E+03  0.32388601197E+03  0.00000000000E+00 0.  1.
         -1    1    1    2    0  501  0.21369716046E+02  0.10455324071E+02  0.44039091144E+03  0.44103302988E+03  0.00000000000E+00 0. -1.
</event>
<event>
 4    1  0.6629728E+001  0.5061275E+02  0.7546771E-02  0.1295537E+00
          2   -1    0    0  502    0  0.00000000000E+00  0.00000000000E+00  0.10138257322E+03  0.10138257322E+03  0.00000000000E+00 0.  1.
         -2   -1    0    0    0  501 -0.00000000000E+00 -0.00000000000E+00 -0.17716005538E+03  0.17716005538E+03  0.00000000000E+00 0. -1.
          1    1    1    2  502    0 -0.49620278763E+02 -0.99738938039E+01  0.91069020959E+02  0.10418837363E+03  0.00000000000E+00 0.  1.
         -1    1    1    2    0  501  0.49620278763E+02  0.99738938039E+01 -0.16684650312E+03  0.17435425496E+03  0.00000000000E+00 0. -1.
</event>
<event>
 4    1  0.6629728E+001  0.2465750E+02  0.7546771E-02  0.1472672E+00
          2   -1    0    0  502    0  0.00000000000E+00  0.00000000000E+00  0.50252009237E+02  0.50252009237E+02  0.00000000000E+00 0. -1.
         -2   -1    0    0    0  501 -0.00000000000E+00 -0.00000000000E+00 -0.13814504206E+02  0.13814504206E+02  0.00000000000E+00 0.  1.
          1    1    1    2  502    0  0.12591196950E+02  0.21200335860E+02  0.29507503844E+02  0.38453676863E+02  0.00000000000E+00 0.  1.
         -1    1    1    2    0  501 -0.12591196950E+02 -0.21200335860E+02  0.69300011873E+01  0.25612836580E+02  0.00000000000E+00 0. -1.
</event>
<event>
 4    1  0.6629728E+001  0.4166553E+02  0.7546771E-02  0.1338993E+00
          2   -1    0    0  502    0  0.00000000000E+00  0.00000000000E+00  0.82510113968E+02  0.82510113968E+02  0.00000000000E+00 0. -1.
         -2   -1    0    0    0  501 -0.00000000000E+00 -0.00000000000E+00 -0.21625845768E+02  0.21625845768E+02  0.00000000000E+00 0.  1.
          1    1    1    2  502    0 -0.22028758616E+02  0.35365946032E+02  0.39011721084E+02  0.57078285949E+02  0.00000000000E+00 0. -1.
         -1    1    1    2    0  501  0.22028758616E+02 -0.35365946032E+02  0.21872547115E+02  0.47057673787E+02  0.00000000000E+00 0.  1.
</event>
<event>
 4    1  0.6629728E+001  0.2530529E+02  0.7546771E-02  0.1465417E+00
          2   -1    0    0  502    0  0.00000000000E+00  0.00000000000E+00  0.12785939285E+03  0.12785939285E+03  0.00000000000E+00 0. -1.
         -2   -1    0    0    0  501 -0.00000000000E+00 -0.00000000000E+00 -0.72712727458E+01  0.72712727458E+01  0.00000000000E+00 0.  1.
          1    1    1    2  502    0 -0.25256781131E+02  0.15661797141E+01  0.22601244579E+02  0.33928957669E+02  0.00000000000E+00 0.  1.
         -1    1    1    2    0  501  0.25256781131E+02 -0.15661797141E+01  0.97986875523E+02  0.10120170792E+03  0.00000000000E+00 0. -1.
</event>
<event>
 4    1  0.6629728E+001  0.2360213E+02  0.7546771E-02  0.1485072E+00
          2   -1    0    0  502    0  0.00000000000E+00  0.00000000000E+00  0.40267020316E+02  0.40267020316E+02  0.00000000000E+00 0. -1.
         -2   -1    0    0    0  501 -0.00000000000E+00 -0.00000000000E+00 -0.24065355777E+02  0.24065355777E+02  0.00000000000E+00 0.  1.
          1    1    1    2  502    0  0.21347961445E+02  0.10066037200E+02 -0.12872457924E+02  0.26884209785E+02  0.00000000000E+00 0.  1.
         -1    1    1    2    0  501 -0.21347961445E+02 -0.10066037200E+02  0.29074122463E+02  0.37448166307E+02  0.00000000000E+00 0. -1.
</event>
<event>
 4    1  0.6629728E+001  0.2291958E+02  0.7546771E-02  0.1493511E+00
          2   -1    0    0  502    0  0.00000000000E+00  0.00000000000E+00  0.12849507247E+01  0.12849507247E+01  0.00000000000E+00 0.  1.
         -2   -1    0    0    0  501 -0.00000000000E+00 -0.00000000000E+00 -0.46188042655E+03  0.46188042655E+03  0.00000000000E+00 0. -1.
          1    1    1    2  502    0 -0.19690624489E+02  0.11729715668E+02 -0.30879378824E+03  0.30964319882E+03  0.00000000000E+00 0. -1.
         -1    1    1    2    0  501  0.19690624489E+02 -0.11729715668E+02 -0.15180168759E+03  0.15352217845E+03  0.00000000000E+00 0.  1.
</event>
<event>
 4    1  0.6629728E+001  0.3037178E+02  0.7546771E-02  0.1416393E+00
          2   -1    0    0  502    0  0.00000000000E+00  0.00000000000E+00  0.41382291307E+02  0.41382291307E+02  0.00000000000E+00 0.  1.
         -2   -1    0    0    0  501 -0.00000000000E+00 -0.00000000000E+00 -0.24148958078E+02  0.24148958078E+02  0.00000000000E+00 0. -1.
          1    1    1    2  502    0  0.22983474442E+01 -0.30284691876E+02  0.17705516564E+02  0.35155800087E+02  0.00000000000E+00 0. -1.
         -1    1    1    2    0  501 -0.22983474442E+01  0.30284691876E+02 -0.47218333477E+00  0.30375449298E+02  0.00000000000E+00 0.  1.
</event>
<event>
 4    1  0.6629728E+001  0.2527454E+02  0.7546771E-02  0.1465755E+00
          2   -1    0    0  502    0  0.00000000000E+00  0.00000000000E+00  0.83969340066E+01  0.83969340066E+01  0.00000000000E+00 0.  1.
         -2   -1    0    0    0  501 -0.00000000000E+00 -0.00000000000E+00 -0.83695999143E+02  0.83695999143E+02  0.00000000000E+00 0. -1.
          1    1    1    2  502    0 -0.12592682311E+02  0.21914076322E+02 -0.51543644633E+02  0.57406878429E+02  0.00000000000E+00 0. -1.
         -1    1    1    2    0  501  0.12592682311E+02 -0.21914076322E+02 -0.23755420503E+02  0.34686054721E+02  0.00000000000E+00 0.  1.
</event>
<event>
 4    1  0.6629728E+001  0.5096777E+02  0.7546771E-02  0.1294030E+00
          2   -1    0    0  502    0  0.00000000000E+00  0.00000000000E+00  0.11610642860E+03  0.11610642860E+03  0.00000000000E+00 0.  1.
         -2   -1    0    0    0  501 -0.00000000000E+00 -0.00000000000E+00 -0.13536331300E+03  0.13536331300E+03  0.00000000000E+00 0. -1.
          1    1    1    2  502    0  0.17402185803E+02  0.47904885084E+02 -0.12450324608E+03  0.13453167794E+03  0.00000000000E+00 0.  1.
         -1    1    1    2    0  501 -0.17402185803E+02 -0.47904885084E+02  0.10524636168E+03  0.11693806366E+03  0.00000000000E+00 0. -1.
</event>
<event>
 4    1  0.6629728E+001  0.2952705E+02  0.7546771E-02  0.1423751E+00
          2   -1    0    0  502    0  0.00000000000E+00  0.00000000000E+00  0.33314003662E+02  0.33314003662E+02  0.00000000000E+00 0. -1.
         -2   -1    0    0    0  501 -0.00000000000E+00 -0.00000000000E+00 -0.26183512505E+02  0.26183512505E+02  0.00000000000E+00 0.  1.
          1    1    1    2  502    0 -0.59983980779E+01 -0.28911345186E+02  0.42264956901E+01  0.29828005729E+02  0.00000000000E+00 0. -1.
         -1    1    1    2    0  501  0.59983980779E+01  0.28911345186E+02  0.29039954671E+01  0.29669510438E+02  0.00000000000E+00 0.  1.
</event>
<event>
 4    1  0.6629728E+001  0.2541293E+02  0.7546771E-02  0.1464237E+00
          2   -1    0    0  502    0  0.00000000000E+00  0.00000000000E+00  0.10576220167E+04  0.10576220167E+04  0.00000000000E+00 0.  1.
         -2   -1    0    0    0  501 -0.00000000000E+00 -0.00000000000E+00 -0.61274239525E+00  0.61274239525E+00  0.00000000000E+00 0. -1.
          1    1    1    2  502    0  0.16316896851E+02  0.19482709850E+02  0.55956217843E+03  0.56013895475E+03  0.00000000000E+00 0.  1.
         -1    1    1    2    0  501 -0.16316896851E+02 -0.19482709850E+02  0.49744709585E+03  0.49809580431E+03  0.00000000000E+00 0. -1.
</event>
<event>
 4    1  0.6629728E+001  0.2293580E+02  0.7546771E-02  0.1493306E+00
          2   -1    0    0  502    0  0.00000000000E+00  0.00000000000E+00  0.56219573664E+02  0.56219573664E+02  0.00000000000E+00 0.  1.
         -2   -1    0    0    0  501 -0.00000000000E+00 -0.00000000000E+00 -0.16327132345E+02  0.16327132345E+02  0.00000000000E+00 0. -1.
          1    1    1    2  502    0 -0.17747961356E+02  0.14527932293E+02 -0.37539143884E+01  0.23240972919E+02  0.00000000000E+00 0. -1.
         -1    1    1    2    0  501  0.17747961356E+02 -0.14527932293E+02  0.43646355707E+02  0.49305733090E+02  0.00000000000E+00 0.  1.
</event>
<event>
 4    1  0.6629728E+001  0.3424955E+02  0.7546771E-02  0.1385917E+00
          2   -1    0    0  502    0  0.00000000000E+00  0.00000000000E+00  0.66837376111E+03  0.66837376111E+03  0.00000000000E+00 0.  1.
         -2   -1    0    0    0  501 -0.00000000000E+00 -0.00000000000E+00 -0.24241694116E+01  0.24241694116E+01  0.00000000000E+00 0. -1.
          1    1    1    2  502    0 -0.22732117323E+02  0.25618014746E+02  0.15676467413E+03  0.16046244075E+03  0.00000000000E+00 0. -1.
         -1    1    1    2    0  501  0.22732117323E+02 -0.25618014746E+02  0.50918491758E+03  0.51033548978E+03  0.00000000000E+00 0.  1.
</event>
<event>
 4    1  0.6629728E+001  0.2671698E+02  0.7546771E-02  0.1450472E+00
          2   -1    0    0  502    0  0.00000000000E+00  0.00000000000E+00  0.38509245218E+01  0.38509245218E+01  0.00000000000E+00 0. -1.
         -2   -1    0    0    0  501 -0.00000000000E+00 -0.00000000000E+00 -0.21097296326E+03  0.21097296326E+03  0.00000000000E+00 0.  1.
          1    1    1    2  502    0  0.97339901769E+01 -0.24880647057E+02 -0.66133455740E+02  0.71326230315E+02  0.00000000000E+00 0. -1.
         -1    1    1    2    0  501 -0.97339901769E+01  0.24880647057E+02 -0.14098858300E+03  0.14349765747E+03  0.00000000000E+00 0.  1.
</event>
<event>
 4    1  0.6629728E+001  0.2117338E+02  0.7546771E-02  0.1516804E+00
          2   -1    0    0  502    0  0.00000000000E+00  0.00000000000E+00  0.31264840395E+01  0.31264840395E+01  0.00000000000E+00 0. -1.
         -2   -1    0    0    0  501 -0.00000000000E+00 -0.00000000000E+00 -0.15456708340E+03  0.15456708340E+03  0.00000000000E+00 0.  1.
          1    1    1    2  502    0  0.19097547257E+02  0.91430746070E+01 -0.54519362590E+02  0.58486520000E+02  0.00000000000E+00 0.  1.
         -1    1    1    2    0  501 -0.19097547257E+02 -0.91430746070E+01 -0.96921236768E+02  0.99207047437E+02  0.00000000000E+00 0. -1.
</event>
<event>
 4    1  0.6629728E+001  0.2070377E+02  0.7546771E-02  0.1523537E+00
          2   -1    0    0  502    0  0.00000000000E+00  0.00000000000E+00  0.13167666638E+03  0.13167666638E+03  0.00000000000E+00 0. -1.
         -2   -1    0    0    0  501 -0.00000000000E+00 -0.00000000000E+00 -0.40827888904E+01  0.40827888904E+01  0.00000000000E+00 0.  1.
          1    1    1    2  502    0 -0.24466729668E+01 -0.20558693516E+02  0.94356325629E+02  0.96601046961E+02  0.00000000000E+00 0. -1.
         -1    1    1    2    0  501  0.24466729668E+01  0.20558693516E+02  0.33237551864E+02  0.39158408313E+02  0.00000000000E+00 0.  1.
</event>
<event>
 4    1  0.6629728E+001  0.3071974E+02  0.7546771E-02  0.1413443E+00
          2   -1    0    0  502    0  0.00000000000E+00  0.00000000000E+00  0.16859774861E+04  0.16859774861E+04  0.00000000000E+00 0.  1.
         -2   -1    0    0    0  501 -0.00000000000E+00 -0.00000000000E+00 -0.60979601018E+00  0.60979601018E+00  0.00000000000E+00 0. -1.
          1    1    1    2  502    0 -0.29802254527E+02  0.74517254707E+01  0.10843029374E+04  0.10847380157E+04  0.00000000000E+00 0. -1.
         -1    1    1    2    0  501  0.29802254527E+02 -0.74517254707E+01  0.60106475263E+03  0.60184926638E+03  0.00000000000E+00 0.  1.
</event>
<event>
 4    1  0.6629728E+001  0.2036396E+02  0.7546771E-02  0.1528543E+00
          2   -1    0    0  502    0  0.00000000000E+00  0.00000000000E+00  0.16819546135E+04  0.16819546135E+04  0.00000000000E+00 0. -1.
         -2   -1    0    0    0  501 -0.00000000000E+00 -0.00000000000E+00 -0.25862571358E+00  0.25862571358E+00  0.00000000000E+00 0.  1.
          1    1    1    2  502    0  0.22717642506E+00  0.20362688266E+02  0.10225754601E+04  0.10227782077E+04  0.00000000000E+00 0. -1.
         -1    1    1    2    0  501 -0.22717642506E+00 -0.20362688266E+02  0.65912052774E+03  0.65943503150E+03  0.00000000000E+00 0.  1.
</event>
<event>
 4    1  0.6629728E+001  0.2087110E+02  0.7546771E-02  0.1521113E+00
          2   -1    0    0  502    0  0.00000000000E+00  0.00000000000E+00  0.15538197310E+03  0.15538197310E+03  0.00000000000E+00 0. -1.
         -2   -1    0    0    0  501 -0.00000000000E+00 -0.00000000000E+00 -0.56338246616E+01  0.56338246616E+01  0.00000000000E+00 0.  1.
          1    1    1    2  502    0  0.19728428847E+02 -0.68111658519E+01  0.17810347679E+02  0.27437408214E+02  0.00000000000E+00 0.  1.
         -1    1    1    2    0  501 -0.19728428847E+02  0.68111658519E+01  0.13193780076E+03  0.13357838955E+03  0.00000000000E+00 0. -1.
</event>
<event>
 4    1  0.6629728E+001  0.2646317E+02  0.7546771E-02  0.1453076E+00
          2   -1    0    0  502    0  0.00000000000E+00  0.00000000000E+00  0.24098806307E+03  0.24098806307E+03  0.00000000000E+00 0. -1.
         -2   -1    0    0    0  501 -0.00000000000E+00 -0.00000000000E+00 -0.47150684469E+01  0.47150684469E+01  0.00000000000E+00 0.  1.
          1    1    1    2  502    0 -0.23770257969E+02 -0.11630736669E+02  0.19423396893E+03  0.19602840071E+03  0.00000000000E+00 0. -1.
         -1    1    1    2    0  501  0.23770257969E+02  0.11630736669E+02  0.42039025697E+02  0.49674730809E+02  0.00000000000E+00 0.  1.
</event>
<event>
 4    1  0.6629728E+001  0.2270701E+02  0.7546771E-02  0.1496210E+00
          2   -1    0    0  502    0  0.00000000000E+00  0.00000000000E+00  0.15785583670E+03  0.15785583670E+03  0.00000000000E+00 0. -1.
         -2   -1    0    0    0  501 -0.00000000000E+00 -0.00000000000E+00 -0.32663234242E+01  0.32663234242E+01  0.00000000000E+00 0.  1.
          1    1    1    2  502    0  0.22693496860E+02  0.78312584192E+00  0.77254113911E+02  0.80522085182E+02  0.00000000000E+00 0.  1.
         -1    1    1    2    0  501 -0.22693496860E+02 -0.78312584192E+00  0.77335399365E+02  0.80600074942E+02  0.00000000000E+00 0. -1.
</event>
<event>
 4    1  0.6629728E+001  0.2151965E+02  0.7546771E-02  0.1511973E+00
          2   -1    0    0  502    0  0.00000000000E+00  0.00000000000E+00  0.52372620297E+03  0.52372620297E+03  0.00000000000E+00 0.  1.
         -2   -1    0    0    0  501 -0.00000000000E+00 -0.00000000000E+00 -0.90965140208E+00  0.90965140208E+00  0.00000000000E+00 0. -1.
          1    1    1    2  502    0  0.20574072845E+02  0.63089628982E+01  0.30525860328E+03  0.30601619297E+03  0.00000000000E+00 0. -1.
         -1    1    1    2    0  501 -0.20574072845E+02 -0.63089628982E+01  0.21755794829E+03  0.21861966140E+03  0.00000000000E+00 0.  1.
</event>
<event>
 4    1  0.6629728E+001  0.3272561E+02  0.7546771E-02  0.1397299E+00
          2   -1    0    0  502    0  0.00000000000E+00  0.00000000000E+00  0.29535461513E+02  0.29535461513E+02  0.00000000000E+00 0.  1.
         -2   -1    0    0    0  501 -0.00000000000E+00 -0.00000000000E+00 -0.62700711187E+02  0.62700711187E+02  0.00000000000E+00 0. -1.
          1    1    1    2  502    0  0.13111992202E+02  0.29984020382E+02 -0.46530694516E+02  0.56886477742E+02  0.00000000000E+00 0. -1.
         -1    1    1    2    0  501 -0.13111992202E+02 -0.29984020382E+02  0.13365444842E+02  0.35349694958E+02  0.00000000000E+00 0.  1.
</event>
<event>
 4    1  0.6629728E+001  0.2247054E+02  0.7546771E-02  0.1499256E+00
          2   -1    0    0  502    0  0.00000000000E+00  0.00000000000E+00  0.64647525051E+03  0.64647525051E+03  0.00000000000E+00 0. -1.
         -2   -1    0    0    0  501 -0.00000000000E+00 -0.00000000000E+00 -0.38647968486E+01  0.38647968486E+01  0.00000000000E+00 0.  1.
          1    1    1    2  502    0 -0.15871177537E+02  0.15906948556E+02  0.30844790857E+02  0.38161844974E+02  0.00000000000E+00 0.  1.
         -1    1    1    2    0  501  0.15871177537E+02 -0.15906948556E+02  0.61176566280E+03  0.61217820238E+03  0.00000000000E+00 0. -1.
</event>
<event>
 4    1  0.6629728E+001  0.2425318E+02  0.7546771E-02  0.1477334E+00
          2   -1    0    0  502    0  0.00000000000E+00  0.00000000000E+00  0.17122615308E+02  0.17122615308E+02  0.00000000000E+00 0. -1.
         -2   -1    0    0    0  501 -0.00000000000E+00 -0.00000000000E+00 -0.48134436460E+02  0.48134436460E+02  0.00000000000E+00 0.  1.
          1    1    1    2  502    0  0.15998156249E+02  0.18228426281E+02 -0.32964682517E+02  0.40925381140E+02  0.00000000000E+00 0.  1.
         -1    1    1    2    0  501 -0.15998156249E+02 -0.18228426281E+02  0.19528613643E+01  0.24331670628E+02  0.00000000000E+00 0. -1.
</event>
<event>
 4    1  0.6629728E+001  0.2419144E+02  0.7546771E-02  0.1478056E+00
          2   -1    0    0  502    0  0.00000000000E+00  0.00000000000E+00  0.76505299552E+02  0.76505299552E+02  0.00000000000E+00 0. -1.
         -2   -1    0    0    0  501 -0.00000000000E+00 -0.00000000000E+00 -0.99289378394E+01  0.99289378394E+01  0.00000000000E+00 0.  1.
          1    1    1    2  502    0  0.14051494919E+02  0.19692167936E+02  0.53995310869E+02  0.59166879107E+02  0.00000000000E+00 0. -1.
         -1    1    1    2    0  501 -0.14051494919E+02 -0.19692167936E+02  0.12581050844E+02  0.27267358284E+02  0.00000000000E+00 0.  1.
</event>
<event>
 4    1  0.6629728E+001  0.2776394E+02  0.7546771E-02  0.1440082E+00
          2   -1    0    0  502    0  0.00000000000E+00  0.00000000000E+00  0.74273166572E+03  0.74273166572E+03  0.00000000000E+00 0.  1.
         -2   -1    0    0    0  501 -0.00000000000E+00 -0.00000000000E+00 -0.11655039037E+01  0.11655039037E+01  0.00000000000E+00 0. -1.
          1    1    1    2  502    0 -0.16156989901E+02  0.22578485792E+02  0.24768231206E+03  0.24923355322E+03  0.00000000000E+00 0. -1.
         -1    1    1    2    0  501  0.16156989901E+02 -0.22578485792E+02  0.49388384976E+03  0.49466361641E+03  0.00000000000E+00 0.  1.
</event>
<event>
 4    1  0.6629728E+001  0.2158151E+02  0.7546771E-02  0.1511122E+00
          2   -1    0    0  502    0  0.00000000000E+00  0.00000000000E+00  0.13780075533E+04  0.13780075533E+04  0.00000000000E+00 0. -1.
         -2   -1    0    0    0  501 -0.00000000000E+00 -0.00000000000E+00 -0.73329840718E+00  0.73329840718E+00  0.00000000000E+00 0.  1.
          1    1    1    2  502    0  0.10436927281E+02  0.18889999259E+02  0.11947842994E+04  0.11949791980E+04  0.00000000000E+00 0. -1.
         -1    1    1    2    0  501 -0.10436927281E+02 -0.18889999259E+02  0.18248995547E+03  0.18376165370E+03  0.00000000000E+00 0.  1.
</event>
<event>
 4    1  0.6629728E+001  0.3040416E+02  0.7546771E-02  0.1416116E+00
          2   -1    0    0  502    0  0.00000000000E+00  0.00000000000E+00  0.14127119995E+04  0.14127119995E+04  0.00000000000E+00 0. -1.
         -2   -1    0    0    0  501 -0.00000000000E+00 -0.00000000000E+00 -0.15155721509E+01  0.15155721509E+01  0.00000000000E+00 0.  1.
          1    1    1    2  502    0  0.53594330331E+01  0.29928065932E+02  0.12386357325E+04  0.12390088339E+04  0.00000000000E+00 0. -1.
         -1    1    1    2    0  501 -0.53594330331E+01 -0.29928065932E+02  0.17256069488E+03  0.17521873778E+03  0.00000000000E+00 0.  1.
</event>
<event>
 4    1  0.6629728E+001  0.5905609E+02  0.7546771E-02  0.1263074E+00
          2   -1    0    0  502    0  0.00000000000E+00  0.00000000000E+00  0.61111887097E+02  0.61111887097E+02  0.00000000000E+00 0. -1.
         -2   -1    0    0    0  501 -0.00000000000E+00 -0.00000000000E+00 -0.86913728466E+02  0.86913728466E+02  0.00000000000E+00 0.  1.
          1    1    1    2  502    0  0.53392836962E+02  0.25235422697E+02  0.30469461955E+02  0.66453063958E+02  0.00000000000E+00 0. -1.
         -1    1    1    2    0  501 -0.53392836962E+02 -0.25235422697E+02 -0.56271303324E+02  0.81572551605E+02  0.00000000000E+00 0.  1.
</event>
<event>
 4    1  0.6629728E+001  0.5148112E+02  0.7546771E-02  0.1291875E+00
          2   -1    0    0  502    0  0.00000000000E+00  0.00000000000E+00  0.76907420980E+02  0.76907420980E+02  0.00000000000E+00 0. -1.
         -2   -1    0    0    0  501 -0.00000000000E+00 -0.00000000000E+00 -0.47842030613E+02  0.47842030613E+02  0.00000000000E+00 0.  1.
          1    1    1    2  502    0  0.49398553627E+02  0.14494446649E+02  0.47520145216E+02  0.70060475915E+02  0.00000000000E+00 0.  1.
         -1    1    1    2    0  501 -0.49398553627E+02 -0.14494446649E+02 -0.18454754848E+02  0.54688975677E+02  0.00000000000E+00 0. -1.
</event>
<event>
 4    1  0.6629728E+001  0.2749793E+02  0.7546771E-02  0.1442669E+00
          2   -1    0    0  502    0  0.00000000000E+00  0.00000000000E+00  0.19112492653E+04  0.19112492653E+04  0.00000000000E+00 0.  1.
         -2   -1    0    0    0  501 -0.00000000000E+00 -0.00000000000E+00 -0.41619527619E+00  0.41619527619E+00  0.00000000000E+00 0. -1.
          1    1    1    2  502    0  0.16121755452E+02  0.22276106479E+02  0.11679194193E+04  0.11682430851E+04  0.00000000000E+00 0. -1.
         -1    1    1    2    0  501 -0.16121755452E+02 -0.22276106479E+02  0.74291365073E+03  0.74342237548E+03  0.00000000000E+00 0.  1.
</event>
<event>
 4    1  0.6629728E+001  0.2532102E+02  0.7546771E-02  0.1465244E+00
          2   -1    0    0  502    0  0.00000000000E+00  0.00000000000E+00  0.16213428089E+04  0.16213428089E+04  0.00000000000E+00 0. -1.
         -2   -1    0    0    0  501 -0.00000000000E+00 -0.00000000000E+00 -0.46045715812E+00  0.46045715812E+00  0.00000000000E+00 0.  1.
          1    1    1    2  502    0  0.14704439157E+02 -0.20613910517E+02  0.11151372613E+04  0.11154247018E+04  0.00000000000E+00 0. -1.
         -1    1    1    2    0  501 -0.14704439157E+02  0.20613910517E+02  0.50574509042E+03  0.50637856424E+03  0.00000000000E+00 0.  1.
</event>
<event>
 4    1  0.6629728E+001  0.2255093E+02  0.7546771E-02  0.1498215E+00
          2   -1    0    0  502    0  0.00000000000E+00  0.00000000000E+00  0.23037315077E+02  0.23037315077E+02  0.00000000000E+00 0.  1.
         -2   -1    0    0    0  501 -0.00000000000E+00 -0.00000000000E+00 -0.62121188376E+02  0.62121188376E+02  0.00000000000E+00 0. -1.
          1    1    1    2  502    0 -0.17286000666E+02  0.14482363267E+02 -0.53728834737E+02  0.58269480408E+02  0.00000000000E+00 0. -1.
         -1    1    1    2    0  501  0.17286000666E+02 -0.14482363267E+02  0.14644961437E+02  0.26889023045E+02  0.00000000000E+00 0.  1.
</event>
<event>
 4    1  0.6629728E+001  0.2854085E+02  0.7546771E-02  0.1432715E+00
          2   -1    0    0  502    0  0.00000000000E+00  0.00000000000E+00  0.37757574839E+01  0.37757574839E+01  0.00000000000E+00 0. -1.
         -2   -1    0    0    0  501 -0.00000000000E+00 -0.00000000000E+00 -0.41789657258E+03  0.41789657258E+03  0.00000000000E+00 0.  1.
          1    1    1    2  502    0 -0.27074223032E+02  0.90314140300E+01 -0.35370133026E+03  0.35485097016E+03  0.00000000000E+00 0.  1.
         -1    1    1    2    0  501  0.27074223032E+02 -0.90314140300E+01 -0.60419484831E+02  0.66821359904E+02  0.00000000000E+00 0. -1.
</event>
<event>
 4    1  0.6629728E+001  0.2325155E+02  0.7546771E-02  0.1489363E+00
          2   -1    0    0  502    0  0.00000000000E+00  0.00000000000E+00  0.94094754296E+00  0.94094754296E+00  0.00000000000E+00 0.  1.
         -2   -1    0    0    0  501 -0.00000000000E+00 -0.00000000000E+00 -0.57799777977E+03  0.57799777977E+03  0.00000000000E+00 0. -1.
          1    1    1    2  502    0  0.12660081733E+02  0.19502736214E+02 -0.31084043297E+03  0.31170885320E+03  0.00000000000E+00 0. -1.
         -1    1    1    2    0  501 -0.12660081733E+02 -0.19502736214E+02 -0.26621639925E+03  0.26722987411E+03  0.00000000000E+00 0.  1.
</event>
<event>
 4    1  0.6629728E+001  0.3165097E+02  0.7546771E-02  0.1405772E+00
          2   -1    0    0  502    0  0.00000000000E+00  0.00000000000E+00  0.64598039039E+02  0.64598039039E+02  0.00000000000E+00 0.  1.
         -2   -1    0    0    0  501 -0.00000000000E+00 -0.00000000000E+00 -0.16313558705E+02  0.16313558705E+02  0.00000000000E+00 0. -1.
          1    1    1    2  502    0  0.24982417994E+02 -0.19433552225E+02  0.15152144294E+02  0.35090905341E+02  0.00000000000E+00 0. -1.
         -1    1    1    2    0  501 -0.24982417994E+02  0.19433552225E+02  0.33132336039E+02  0.45820692404E+02  0.00000000000E+00 0.  1.
</event>
<event>
 4    1  0.6629728E+001  0.2799756E+02  0.7546771E-02  0.1437837E+00
          2   -1    0    0  502    0  0.00000000000E+00  0.00000000000E+00  0.51042837265E+03  0.51042837265E+03  0.00000000000E+00 0.  1.
         -2   -1    0    0    0  501 -0.00000000000E+00 -0.00000000000E+00 -0.25292409993E+01  0.25292409993E+01  0.00000000000E+00 0. -1.
          1    1    1    2  502    0 -0.19050325895E+02 -0.20517023495E+02  0.41469920064E+03  0.41564322463E+03  0.00000000000E+00 0.  1.
         -1    1    1    2    0  501  0.19050325895E+02  0.20517023495E+02  0.93199931018E+02  0.97314389026E+02  0.00000000000E+00 0. -1.
</event>
<event>
 4    1  0.6629728E+001  0.2567413E+02  0.7546771E-02  0.1461401E+00
          2   -1    0    0  502    0  0.00000000000E+00  0.00000000000E+00  0.17959959780E+04  0.17959959780E+04  0.00000000000E+00 0. -1.
         -2   -1    0    0    0  501 -0.00000000000E+00 -0.00000000000E+00 -0.63691349924E+00  0.63691349924E+00  0.00000000000E+00 0.  1.
          1    1    1    2  502    0  0.11318524776E+02  0.23044567442E+02  0.14824530992E+04  0.14826754036E+04  0.00000000000E+00 0. -1.
         -1    1    1    2    0  501 -0.11318524776E+02 -0.23044567442E+02  0.31290596532E+03  0.31395748792E+03  0.00000000000E+00 0.  1.
</event>
<event>
 4    1  0.6629728E+001  0.2260510E+02  0.7546771E-02  0.1497517E+00
          2   -1    0    0  502    0  0.00000000000E+00  0.00000000000E+00  0.10694352530E+04  0.10694352530E+04  0.00000000000E+00 0.  1.
         -2   -1    0    0    0  501 -0.00000000000E+00 -0.00000000000E+00 -0.77117952688E+00  0.77117952688E+00  0.00000000000E+00 0. -1.
          1    1    1    2  502    0  0.22362283859E+02  0.33043503170E+01  0.20429337630E+03  0.20554020062E+03  0.00000000000E+00 0. -1.
         -1    1    1    2    0  501 -0.22362283859E+02 -0.33043503170E+01  0.86437069721E+03  0.86466623195E+03  0.00000000000E+00 0.  1.
</event>
<event>
 4    1  0.6629728E+001  0.2570337E+02  0.7546771E-02  0.1461086E+00
          2   -1    0    0  502    0  0.00000000000E+00  0.00000000000E+00  0.60796284723E+03  0.60796284723E+03  0.00000000000E+00 0.  1.
         -2   -1    0    0    0  501 -0.00000000000E+00 -0.00000000000E+00 -0.12948291070E+01  0.12948291070E+01  0.00000000000E+00 0. -1.
          1    1    1    2  502    0  0.19283438039E+02 -0.16994481693E+02  0.42547124178E+03  0.42624692488E+03  0.00000000000E+00 0.  1.
         -1    1    1    2    0  501 -0.19283438039E+02  0.16994481693E+02  0.18119677635E+03  0.18301075146E+03  0.00000000000E+00 0. -1.
</event>
<event>
 4    1  0.6629728E+001  0.2844906E+02  0.7546771E-02  0.1433571E+00
          2   -1    0    0  502    0  0.00000000000E+00  0.00000000000E+00  0.11093699553E+04  0.11093699553E+04  0.00000000000E+00 0. -1.
         -2   -1    0    0    0  501 -0.00000000000E+00 -0.00000000000E+00 -0.72995207779E+00  0.72995207779E+00  0.00000000000E+00 0.  1.
          1    1    1    2  502    0 -0.80579599525E+01  0.27284028063E+02  0.56722870876E+03  0.56794168446E+03  0.00000000000E+00 0.  1.
         -1    1    1    2    0  501  0.80579599525E+01 -0.27284028063E+02  0.54141129448E+03  0.54215822294E+03  0.00000000000E+00 0. -1.
</event>
<event>
 4    1  0.6629728E+001  0.2447795E+02  0.7546771E-02  0.1474729E+00
          2   -1    0    0  502    0  0.00000000000E+00  0.00000000000E+00  0.29903233970E+03  0.29903233970E+03  0.00000000000E+00 0.  1.
         -2   -1    0    0    0  501 -0.00000000000E+00 -0.00000000000E+00 -0.20650385502E+01  0.20650385502E+01  0.00000000000E+00 0. -1.
          1    1    1    2  502    0 -0.88819665946E+01  0.22809659380E+02  0.12253624478E+03  0.12495719738E+03  0.00000000000E+00 0. -1.
         -1    1    1    2    0  501  0.88819665946E+01 -0.22809659380E+02  0.17443105637E+03  0.17614018087E+03  0.00000000000E+00 0.  1.
</event>
<event>
 4    1  0.6629728E+001  0.2107061E+02  0.7546771E-02  0.1518259E+00
          2   -1    0    0  502    0  0.00000000000E+00  0.00000000000E+00  0.12489335035E+03  0.12489335035E+03  0.00000000000E+00 0.  1.
         -2   -1    0    0    0  501 -0.00000000000E+00 -0.00000000000E+00 -0.35997104154E+01  0.35997104154E+01  0.00000000000E+00 0. -1.
          1    1    1    2  502    0 -0.43175585993E+01 -0.20623515561E+02  0.67823047924E+02  0.71020676820E+02  0.00000000000E+00 0.  1.
         -1    1    1    2    0  501  0.43175585993E+01  0.20623515561E+02  0.53470592014E+02  0.57472383948E+02  0.00000000000E+00 0. -1.
</event>
<event>
 4    1  0.6629728E+001  0.3473816E+02  0.7546771E-02  0.1382413E+00
          2   -1    0    0  502    0  0.00000000000E+00  0.00000000000E+00  0.32534216203E+02  0.32534216203E+02  0.00000000000E+00 0. -1.
         -2   -1    0    0    0  501 -0.00000000000E+00 -0.00000000000E+00 -0.53635549579E+02  0.53635549579E+02  0.00000000000E+00 0.  1.
          1    1    1    2  502    0  0.34287392873E+02 -0.55780540931E+01  0.13378117002E+02  0.37225179812E+02  0.00000000000E+00 0. -1.
         -1    1    1    2    0  501 -0.34287392873E+02  0.55780540931E+01 -0.34479450378E+02  0.48944585971E+02  0.00000000000E+00 0.  1.
</event>
<event>
 4    1  0.6629728E+001  0.2403304E+02  0.7546771E-02  0.1479918E+00
          2   -1    0    0  502    0  0.00000000000E+00  0.00000000000E+00  0.17181078878E+03  0.17181078878E+03  0.00000000000E+00 0.  1.
         -2   -1    0    0    0  501 -0.00000000000E+00 -0.00000000000E+00 -0.38491278458E+01  0.38491278458E+01  0.00000000000E+00 0. -1.
          1    1    1    2  502    0  0.61450820786E+01  0.23234132728E+02  0.11523364359E+03  0.11771312405E+03  0.00000000000E+00 0.  1.
         -1    1    1    2    0  501 -0.61450820786E+01 -0.23234132728E+02  0.52728017346E+02  0.57946792583E+02  0.00000000000E+00 0. -1.
</event>
<event>
 4    1  0.6629728E+001  0.3254839E+02  0.7546771E-02  0.1398670E+00
          2   -1    0    0  502    0  0.00000000000E+00  0.00000000000E+00  0.65635835391E+02  0.65635835391E+02  0.00000000000E+00 0.  1.
         -2   -1    0    0    0  501 -0.00000000000E+00 -0.00000000000E+00 -0.22888353510E+02  0.22888353510E+02  0.00000000000E+00 0. -1.
          1    1    1    2  502    0  0.20564356696E+02  0.25229052231E+02 -0.26591608690E+01  0.32656836640E+02  0.00000000000E+00 0. -1.
         -1    1    1    2    0  501 -0.20564356696E+02 -0.25229052231E+02  0.45406642750E+02  0.55867352261E+02  0.00000000000E+00 0.  1.
</event>
<event>
 4    1  0.6629728E+001  0.4778331E+02  0.7546771E-02  0.1308080E+00
          2   -1    0    0  502    0  0.00000000000E+00  0.00000000000E+00  0.93458544642E+03  0.93458544642E+03  0.00000000000E+00 0.  1.
         -2   -1    0    0    0  501 -0.00000000000E+00 -0.00000000000E+00 -0.23392208735E+02  0.23392208735E+02  0.00000000000E+00 0. -1.
          1    1    1    2  502    0  0.23754726737E+02 -0.41460309569E+02  0.90888334634E+03  0.91013855075E+03  0.00000000000E+00 0.  1.
         -1    1    1    2    0  501 -0.23754726737E+02  0.41460309569E+02  0.23098913436E+01  0.47839104401E+02  0.00000000000E+00 0. -1.
</event>
<event>
 4    1  0.6629728E+001  0.4268836E+02  0.7546771E-02  0.1333413E+00
          2   -1    0    0  502    0  0.00000000000E+00  0.00000000000E+00  0.78960267867E+01  0.78960267867E+01  0.00000000000E+00 0.  1.
         -2   -1    0    0    0  501 -0.00000000000E+00 -0.00000000000E+00 -0.23551108051E+03  0.23551108051E+03  0.00000000000E+00 0. -1.
          1    1    1    2  502    0  0.66181414138E+00 -0.42683232743E+02 -0.13104522981E+03  0.13782288856E+03  0.00000000000E+00 0. -1.
         -1    1    1    2    0  501 -0.66181414138E+00  0.42683232743E+02 -0.96569823913E+02  0.10558421874E+03  0.00000000000E+00 0.  1.
</event>
<event>
 4    1  0.6629728E+001  0.2010339E+02  0.7546771E-02  0.1532461E+00
          2   -1    0    0  502    0  0.00000000000E+00  0.00000000000E+00  0.59699635284E+03  0.59699635284E+03  0.00000000000E+00 0.  1.
         -2   -1    0    0    0  501 -0.00000000000E+00 -0.00000000000E+00 -0.10756292386E+01  0.10756292386E+01  0.00000000000E+00 0. -1.
          1    1    1    2  502    0 -0.14398166454E+02  0.14029938491E+02  0.11590849723E+03  0.11763896506E+03  0.00000000000E+00 0. -1.
         -1    1    1    2    0  501  0.14398166454E+02 -0.14029938491E+02  0.48001222637E+03  0.48043301701E+03  0.00000000000E+00 0.  1.
</event>
<event>
 4    1  0.6629728E+001  0.7611728E+02  0.7546771E-02  0.1213160E+00
          2   -1    0    0  502    0  0.00000000000E+00  0.00000000000E+00  0.83528556739E+03  0.83528556739E+03  0.00000000000E+00 0. -1.
         -2   -1    0    0    0  501 -0.00000000000E+00 -0.00000000000E+00 -0.79349119858E+01  0.79349119858E+01  0.00000000000E+00 0.  1.
          1    1    1    2  502    0  0.75720678933E+02  0.77600632644E+01  0.26411174871E+03  0.27486152078E+03  0.00000000000E+00 0.  1.
         -1    1    1    2    0  501 -0.75720678933E+02 -0.77600632644E+01  0.56323890670E+03  0.56835895860E+03  0.00000000000E+00 0. -1.
</event>
<event>
 4    1  0.6629728E+001  0.4397475E+02  0.7546771E-02  0.1326646E+00
          2   -1    0    0  502    0  0.00000000000E+00  0.00000000000E+00  0.50674465686E+02  0.50674465686E+02  0.00000000000E+00 0.  1.
         -2   -1    0    0    0  501 -0.00000000000E+00 -0.00000000000E+00 -0.44692287158E+02  0.44692287158E+02  0.00000000000E+00 0. -1.
          1    1    1    2  502    0  0.42945133448E+02  0.94601157227E+01 -0.15237651361E+02  0.46539921523E+02  0.00000000000E+00 0.  1.
         -1    1    1    2    0  501 -0.42945133448E+02 -0.94601157227E+01  0.21219829889E+02  0.48826831321E+02  0.00000000000E+00 0. -1.
</event>
<event>
 4    1  0.6629728E+001  0.2667860E+02  0.7546771E-02  0.1450864E+00
          2   -1    0    0  502    0  0.00000000000E+00  0.00000000000E+00  0.16851763412E+03  0.16851763412E+03  0.00000000000E+00 0.  1.
         -2   -1    0    0    0  501 -0.00000000000E+00 -0.00000000000E+00 -0.10048579372E+02  0.10048579372E+02  0.00000000000E+00 0. -1.
          1    1    1    2  502    0 -0.45942409575E+01 -0.26280047625E+02  0.14721197401E+03  0.14960987015E+03  0.00000000000E+00 0.  1.
         -1    1    1    2    0  501  0.45942409575E+01  0.26280047625E+02  0.11257080735E+02  0.28956343344E+02  0.00000000000E+00 0. -1.
</event>
<event>
 4    1  0.6629728E+001  0.4031645E+02  0.7546771E-02  0.1346641E+00
          2   -1    0    0  502    0  0.00000000000E+00  0.00000000000E+00  0.18398529181E+04  0.18398529181E+04  0.00000000000E+00 0. -1.
         -2   -1    0    0    0  501 -0.00000000000E+00 -0.00000000000E+00 -0.94698723465E+00  0.94698723465E+00  0.00000000000E+00 0.  1.
          1    1    1    2  502    0 -0.11282402679E+02 -0.38705598427E+02  0.11578619302E+04  0.11585636216E+04  0.00000000000E+00 0. -1.
         -1    1    1    2    0  501  0.11282402679E+02  0.38705598427E+02  0.68104400067E+03  0.68223628371E+03  0.00000000000E+00 0.  1.
</event>
<event>
 4    1  0.6629728E+001  0.2145273E+02  0.7546771E-02  0.1512898E+00
          2   -1    0    0  502    0  0.00000000000E+00  0.00000000000E+00  0.39697510223E+03  0.39697510223E+03  0.00000000000E+00 0. -1.
         -2   -1    0    0    0  501 -0.00000000000E+00 -0.00000000000E+00 -0.11816018204E+01  0.11816018204E+01  0.00000000000E+00 0.  1.
          1    1    1    2  502    0 -0.21387711830E+02 -0.16689032255E+01  0.22523722312E+03  0.22625654937E+03  0.00000000000E+00 0. -1.
         -1    1    1    2    0  501  0.21387711830E+02  0.16689032255E+01  0.17055627728E+03  0.17190015467E+03  0.00000000000E+00 0.  1.
</event>
<event>
 4    1  0.6629728E+001  0.2561598E+02  0.7546771E-02  0.1462029E+00
          2   -1    0    0  502    0  0.00000000000E+00  0.00000000000E+00  0.45014238082E+03  0.45014238082E+03  0.00000000000E+00 0. -1.
         -2   -1    0    0    0  501 -0.00000000000E+00 -0.00000000000E+00 -0.28166569417E+01  0.28166569417E+01  0.00000000000E+00 0.  1.
          1    1    1    2  502    0  0.17299364522E+02 -0.18892066580E+02  0.66350518347E+02  0.71123621094E+02  0.00000000000E+00 0.  1.
         -1    1    1    2    0  501 -0.17299364522E+02  0.18892066580E+02  0.38097520554E+03  0.38183541667E+03  0.00000000000E+00 0. -1.
</event>
<event>
 4    1  0.6629728E+001  0.2171885E+02  0.7546771E-02  0.1509244E+00
          2   -1    0    0  502    0  0.00000000000E+00  0.00000000000E+00  0.15598703596E+01  0.15598703596E+01  0.00000000000E+00 0. -1.
         -2   -1    0    0    0  501 -0.00000000000E+00 -0.00000000000E+00 -0.53963980726E+03  0.53963980726E+03  0.00000000000E+00 0.  1.
          1    1    1    2  502    0  0.98874071576E+01 -0.19337723074E+02 -0.44845847536E+03  0.44898408933E+03  0.00000000000E+00 0.  1.
         -1    1    1    2    0  501 -0.98874071576E+01  0.19337723074E+02 -0.89621461537E+02  0.92215588281E+02  0.00000000000E+00 0. -1.
</event>
<event>
 4    1  0.6629728E+001  0.2799941E+02  0.7546771E-02  0.1437819E+00
          2   -1    0    0  502    0  0.00000000000E+00  0.00000000000E+00  0.56222794116E+03  0.56222794116E+03  0.00000000000E+00 0.  1.
         -2   -1    0    0    0  501 -0.00000000000E+00 -0.00000000000E+00 -0.18712376101E+01  0.18712376101E+01  0.00000000000E+00 0. -1.
          1    1    1    2  502    0  0.13725980963E+02 -0.24404193276E+02  0.42255836834E+03  0.42348499602E+03  0.00000000000E+00 0.  1.
         -1    1    1    2    0  501 -0.13725980963E+02  0.24404193276E+02  0.13779833521E+03  0.14061418275E+03  0.00000000000E+00 0. -1.
</event>
<event>
 4    1  0.6629728E+001  0.2008752E+02  0.7546771E-02  0.1532702E+00
          2   -1    0    0  502    0  0.00000000000E+00  0.00000000000E+00  0.28107280054E+01  0.28107280054E+01  0.00000000000E+00 0.  1.
         -2   -1    0    0    0  501 -0.00000000000E+00 -0.00000000000E+00 -0.20327049007E+03  0.20327049007E+03  0.00000000000E+00 0. -1.
          1    1    1    2  502    0 -0.12648402011E+02 -0.15605325905E+02 -0.15607643292E+03  0.15736378612E+03  0.00000000000E+00 0. -1.
         -1    1    1    2    0  501  0.12648402011E+02  0.15605325905E+02 -0.44383329143E+02  0.48717431951E+02  0.00000000000E+00 0.  1.
</event>
<event>
 4    1  0.6629728E+001  0.2704398E+02  0.7546771E-02  0.1447167E+00
          2   -1    0    0  502    0  0.00000000000E+00  0.00000000000E+00  0.50426351544E+03  0.50426351544E+03  0.00000000000E+00 0.  1.
         -2   -1    0    0    0  501 -0.00000000000E+00 -0.00000000000E+00 -0.14980302295E+01  0.14980302295E+01  0.00000000000E+00 0. -1.
          1    1    1    2  502    0  0.16067746387E+02 -0.21753259940E+02  0.20628443610E+03  0.20804962237E+03  0.00000000000E+00 0. -1.
         -1    1    1    2    0  501 -0.16067746387E+02  0.21753259940E+02  0.29648104911E+03  0.29771192330E+03  0.00000000000E+00 0.  1.
</event>
<event>
 4    1  0.6629728E+001  0.2548470E+02  0.7546771E-02  0.1463453E+00
          2   -1    0    0  502    0  0.00000000000E+00  0.00000000000E+00  0.31693689451E+03  0.31693689451E+03  0.00000000000E+00 0. -1.
         -2   -1    0    0    0  501 -0.00000000000E+00 -0.00000000000E+00 -0.27665669256E+01  0.27665669256E+01  0.00000000000E+00 0.  1.
          1    1    1    2  502    0  0.33745974658E+01  0.25260284246E+02  0.75686969981E+02  0.79862302078E+02  0.00000000000E+00 0.  1.
         -1    1    1    2    0  501 -0.33745974658E+01 -0.25260284246E+02  0.23848335760E+03  0.23984115936E+03  0.00000000000E+00 0. -1.
</event>
<event>
 4    1  0.6629728E+001  0.2433406E+02  0.7546771E-02  0.1476393E+00
          2   -1    0    0  502    0  0.00000000000E+00  0.00000000000E+00  0.16069004095E+04  0.16069004095E+04  0.00000000000E+00 0.  1.
         -2   -1    0    0    0  501 -0.00000000000E+00 -0.00000000000E+00 -0.85669076835E+00  0.85669076835E+00  0.00000000000E+00 0. -1.
          1    1    1    2  502    0 -0.22251326897E+02  0.98501217136E+01  0.14098590223E+04  0.14100690086E+04  0.00000000000E+00 0.  1.
         -1    1    1    2    0  501  0.22251326897E+02 -0.98501217136E+01  0.19618469644E+03  0.19768809161E+03  0.00000000000E+00 0. -1.
</event>
<event>
 4    1  0.6629728E+001  0.2134766E+02  0.7546771E-02  0.1514359E+00
          2   -1    0    0  502    0  0.00000000000E+00  0.00000000000E+00  0.50154799747E+02  0.50154799747E+02  0.00000000000E+00 0. -1.
         -2   -1    0    0    0  501 -0.00000000000E+00 -0.00000000000E+00 -0.91587824383E+01  0.91587824383E+01  0.00000000000E+00 0.  1.
          1    1    1    2  502    0 -0.20783663226E+02 -0.48746302649E+01  0.23135886932E+02  0.31480024483E+02  0.00000000000E+00 0. -1.
         -1    1    1    2    0  501  0.20783663226E+02  0.48746302649E+01  0.17860130377E+02  0.27833557703E+02  0.00000000000E+00 0.  1.
</event>
<event>
 4    1  0.6629728E+001  0.4493102E+02  0.7546771E-02  0.1321785E+00
          2   -1    0    0  502    0  0.00000000000E+00  0.00000000000E+00  0.16589706724E+03  0.16589706724E+03  0.00000000000E+00 0.  1.
         -2   -1    0    0    0  501 -0.00000000000E+00 -0.00000000000E+00 -0.12274626697E+02  0.12274626697E+02  0.00000000000E+00 0. -1.
          1    1    1    2  502    0  0.32404834803E+02 -0.31124317905E+02  0.85076403194E+02  0.96212217852E+02  0.00000000000E+00 0.  1.
         -1    1    1    2    0  501 -0.32404834803E+02  0.31124317905E+02  0.68546037347E+02  0.81959476082E+02  0.00000000000E+00 0. -1.
</event>
<event>
 4    1  0.6629728E+001  0.2586710E+02  0.7546771E-02  0.1459333E+00
          2   -1    0    0  502    0  0.00000000000E+00  0.00000000000E+00  0.11281490860E+04  0.11281490860E+04  0.00000000000E+00 0.  1.
         -2   -1    0    0    0  501 -0.00000000000E+00 -0.00000000000E+00 -0.11213348269E+01  0.11213348269E+01  0.00000000000E+00 0. -1.
          1    1    1    2  502    0 -0.25703442255E+02 -0.29051585068E+01  0.95105090852E+03  0.95140261587E+03  0.00000000000E+00 0.  1.
         -1    1    1    2    0  501  0.25703442255E+02  0.29051585068E+01  0.17597684266E+03  0.17786780497E+03  0.00000000000E+00 0. -1.
</event>
<event>
 4    1  0.6629728E+001  0.2530975E+02  0.7546771E-02  0.1465368E+00
          2   -1    0    0  502    0  0.00000000000E+00  0.00000000000E+00  0.19042284805E+03  0.19042284805E+03  0.00000000000E+00 0. -1.
         -2   -1    0    0    0  501 -0.00000000000E+00 -0.00000000000E+00 -0.38337213927E+01  0.38337213927E+01  0.00000000000E+00 0.  1.
          1    1    1    2  502    0  0.20005759065E+02 -0.15503318936E+02  0.12729258080E+03  0.12978437665E+03  0.00000000000E+00 0. -1.
         -1    1    1    2    0  501 -0.20005759065E+02  0.15503318936E+02  0.59296545855E+02  0.64472192798E+02  0.00000000000E+00 0.  1.
</event>
<event>
 4    1  0.6629728E+001  0.3928787E+02  0.7546771E-02  0.1352710E+00
          2   -1    0    0  502    0  0.00000000000E+00  0.00000000000E+00  0.23675520691E+04  0.23675520691E+04  0.00000000000E+00 0. -1.
         -2   -1    0    0    0  501 -0.00000000000E+00 -0.00000000000E+00 -0.11477743447E+01  0.11477743447E+01  0.00000000000E+00 0.  1.
          1    1    1    2  502    0 -0.33357677508E+02 -0.20755763095E+02  0.19616216504E+04  0.19620150448E+04  0.00000000000E+00 0. -1.
         -1    1    1    2    0  501  0.33357677508E+02  0.20755763095E+02  0.40478264431E+03  0.40668479869E+03  0.00000000000E+00 0.  1.
</event>
<event>
 4    1  0.6629728E+001  0.3178680E+02  0.7546771E-02  0.1404679E+00
          2   -1    0    0  502    0  0.00000000000E+00  0.00000000000E+00  0.79427764610E+00  0.79427764610E+00  0.00000000000E+00 0.  1.
         -2   -1    0    0    0  501 -0.00000000000E+00 -0.00000000000E+00 -0.13573111662E+04  0.13573111662E+04  0.00000000000E+00 0. -1.
          1    1    1    2  502    0  0.72859584073E+01  0.30940513604E+02 -0.84840066910E+03  0.84899593397E+03  0.00000000000E+00 0. -1.
         -1    1    1    2    0  501 -0.72859584073E+01 -0.30940513604E+02 -0.50811621949E+03  0.50910950991E+03  0.00000000000E+00 0.  1.
</event>
<event>
 4    1  0.6629728E+001  0.3571558E+02  0.7546771E-02  0.1375601E+00
          2   -1    0    0  502    0  0.00000000000E+00  0.00000000000E+00  0.58076326184E+03  0.58076326184E+03  0.00000000000E+00 0.  1.
         -2   -1    0    0    0  501 -0.00000000000E+00 -0.00000000000E+00 -0.27266322436E+01  0.27266322436E+01  0.00000000000E+00 0. -1.
          1    1    1    2  502    0  0.24503202911E+02 -0.25984534722E+02  0.41766922192E+03  0.41919348986E+03  0.00000000000E+00 0.  1.
         -1    1    1    2    0  501 -0.24503202911E+02  0.25984534722E+02  0.16036740767E+03  0.16429640423E+03  0.00000000000E+00 0. -1.
</event>
<event>
 4    1  0.6629728E+001  0.3826324E+02  0.7546771E-02  0.1358975E+00
          2   -1    0    0  502    0  0.00000000000E+00  0.00000000000E+00  0.15829042090E+04  0.15829042090E+04  0.00000000000E+00 0. -1.
         -2   -1    0    0    0  501 -0.00000000000E+00 -0.00000000000E+00 -0.14276515083E+01  0.14276515083E+01  0.00000000000E+00 0.  1.
          1    1    1    2  502    0 -0.34157040759E+02 -0.17244489630E+02  0.32066158826E+03  0.32293641796E+03  0.00000000000E+00 0.  1.
         -1    1    1    2    0  501  0.34157040759E+02  0.17244489630E+02  0.12608149693E+04  0.12613954426E+04  0.00000000000E+00 0. -1.
</event>
<event>
 4    1  0.6629728E+001  0.2989662E+02  0.7546771E-02  0.1420497E+00
          2   -1    0    0  502    0  0.00000000000E+00  0.00000000000E+00  0.36256160255E+01  0.36256160255E+01  0.00000000000E+00 0. -1.
         -2   -1    0    0    0  501 -0.00000000000E+00 -0.00000000000E+00 -0.69334741490E+03  0.69334741490E+03  0.00000000000E+00 0.  1.
          1    1    1    2  502    0  0.22770160201E+02  0.19373375978E+02 -0.65106055943E+02  0.71642211111E+02  0.00000000000E+00 0. -1.
         -1    1    1    2    0  501 -0.22770160201E+02 -0.19373375978E+02 -0.62461574293E+03  0.62533081982E+03  0.00000000000E+00 0.  1.
</event>
<event>
 4    1  0.6629728E+001  0.2332506E+02  0.7546771E-02  0.1488456E+00
          2   -1    0    0  502    0  0.00000000000E+00  0.00000000000E+00  0.10808215665E+03  0.10808215665E+03  0.00000000000E+00 0. -1.
         -2   -1    0    0    0  501 -0.00000000000E+00 -0.00000000000E+00 -0.54121240007E+01  0.54121240007E+01  0.00000000000E+00 0.  1.
          1    1    1    2  502    0  0.15513509635E+02  0.17418078882E+02  0.36330524144E+02  0.43173666022E+02  0.00000000000E+00 0.  1.
         -1    1    1    2    0  501 -0.15513509635E+02 -0.17418078882E+02  0.66339508504E+02  0.70320614628E+02  0.00000000000E+00 0. -1.
</event>
<event>
 4    1  0.6629728E+001  0.2235755E+02  0.7546771E-02  0.1500727E+00
          2   -1    0    0  502    0  0.00000000000E+00  0.00000000000E+00  0.46455667039E+03  0.46455667039E+03  0.00000000000E+00 0.  1.
         -2   -1    0    0    0  501 -0.00000000000E+00 -0.00000000000E+00 -0.16478286194E+01  0.16478286194E+01  0.00000000000E+00 0. -1.
          1    1    1    2  502    0  0.24680294215E+01  0.22220913490E+02  0.94136984747E+02  0.96755527299E+02  0.00000000000E+00 0. -1.
         -1    1    1    2    0  501 -0.24680294215E+01 -0.22220913490E+02  0.36877185703E+03  0.36944897171E+03  0.00000000000E+00 0.  1.
</event>
<event>
 4    1  0.6629728E+001  0.3245136E+02  0.7546771E-02  0.1399424E+00
          2   -1    0    0  502    0  0.00000000000E+00  0.00000000000E+00  0.30660096946E+02  0.30660096946E+02  0.00000000000E+00 0. -1.
         -2   -1    0    0    0  501 -0.00000000000E+00 -0.00000000000E+00 -0.34476615950E+02  0.34476615950E+02  0.00000000000E+00 0.  1.
          1    1    1    2  502    0  0.43276101048E+01  0.32161506812E+02 -0.39030825713E+01  0.32685238001E+02  0.00000000000E+00 0.  1.
         -1    1    1    2    0  501 -0.43276101048E+01 -0.32161506812E+02  0.86563566684E-01  0.32451474895E+02  0.00000000000E+00 0. -1.
</event>
<event>
 4    1  0.6629728E+001  0.2381604E+02  0.7546771E-02  0.1482498E+00
          2   -1    0    0  502    0  0.00000000000E+00  0.00000000000E+00  0.68398772148E+03  0.68398772148E+03  0.00000000000E+00 0. -1.
         -2   -1    0    0    0  501 -0.00000000000E+00 -0.00000000000E+00 -0.94420465841E+00  0.94420465841E+00  0.00000000000E+00 0.  1.
          1    1    1    2  502    0  0.19399467393E+02  0.13815373277E+02  0.22203269820E+03  0.22330634327E+03  0.00000000000E+00 0. -1.
         -1    1    1    2    0  501 -0.19399467393E+02 -0.13815373277E+02  0.46101081862E+03  0.46162558287E+03  0.00000000000E+00 0.  1.
</event>
<event>
 4    1  0.6629728E+001  0.2238625E+02  0.7546771E-02  0.1500352E+00
          2   -1    0    0  502    0  0.00000000000E+00  0.00000000000E+00  0.29303135799E+02  0.29303135799E+02  0.00000000000E+00 0. -1.
         -2   -1    0    0    0  501 -0.00000000000E+00 -0.00000000000E+00 -0.23406174092E+02  0.23406174092E+02  0.00000000000E+00 0.  1.
          1    1    1    2  502    0  0.76786143260E+01 -0.21028146472E+02  0.16625897056E+02  0.27884843821E+02  0.00000000000E+00 0. -1.
         -1    1    1    2    0  501 -0.76786143260E+01  0.21028146472E+02 -0.10728935349E+02  0.24824466071E+02  0.00000000000E+00 0.  1.
</event>
<event>
 4    1  0.6629728E+001  0.2028266E+02  0.7546771E-02  0.1529758E+00
          2   -1    0    0  502    0  0.00000000000E+00  0.00000000000E+00  0.24602437513E+01  0.24602437513E+01  0.00000000000E+00 0.  1.
         -2   -1    0    0    0  501 -0.00000000000E+00 -0.00000000000E+00 -0.16778884241E+03  0.16778884241E+03  0.00000000000E+00 0. -1.
          1    1    1    2  502    0 -0.59584662247E+01 -0.19387696523E+02 -0.87648744888E+02  0.89964929704E+02  0.00000000000E+00 0.  1.
         -1    1    1    2    0  501  0.59584662247E+01  0.19387696523E+02 -0.77679853769E+02  0.80284156456E+02  0.00000000000E+00 0. -1.
</event>
<event>
 4    1  0.6629728E+001  0.2530238E+02  0.7546771E-02  0.1465449E+00
          2   -1    0    0  502    0  0.00000000000E+00  0.00000000000E+00  0.48431800476E+03  0.48431800476E+03  0.00000000000E+00 0. -1.
         -2   -1    0    0    0  501 -0.00000000000E+00 -0.00000000000E+00 -0.69658261102E+01  0.69658261102E+01  0.00000000000E+00 0.  1.
          1    1    1    2  502    0 -0.23314123276E+02 -0.98316780470E+01  0.45978568666E+03  0.46048136542E+03  0.00000000000E+00 0. -1.
         -1    1    1    2    0  501  0.23314123276E+02  0.98316780470E+01  0.17566491993E+02  0.30802465458E+02  0.00000000000E+00 0.  1.
</event>
<event>
 4    1  0.6629728E+001  0.2527750E+02  0.7546771E-02  0.1465723E+00
          2   -1    0    0  502    0  0.00000000000E+00  0.00000000000E+00  0.97605142029E+02  0.97605142029E+02  0.00000000000E+00 0. -1.
         -2   -1    0    0    0  501 -0.00000000000E+00 -0.00000000000E+00 -0.66681913598E+01  0.66681913598E+01  0.00000000000E+00 0.  1.
          1    1    1    2  502    0 -0.23159627704E+02  0.10128348921E+02  0.52517663307E+02  0.58284275465E+02  0.00000000000E+00 0.  1.
         -1    1    1    2    0  501  0.23159627704E+02 -0.10128348921E+02  0.38419287362E+02  0.45989057923E+02  0.00000000000E+00 0. -1.
</event>
<event>
 4    1  0.6629728E+001  0.2233865E+02  0.7546771E-02  0.1500974E+00
          2   -1    0    0  502    0  0.00000000000E+00  0.00000000000E+00  0.86794491697E+00  0.86794491697E+00  0.00000000000E+00 0. -1.
         -2   -1    0    0    0  501 -0.00000000000E+00 -0.00000000000E+00 -0.77070786531E+03  0.77070786531E+03  0.00000000000E+00 0.  1.
          1    1    1    2  502    0  0.12222008411E+02  0.18698598981E+02 -0.57935560904E+03  0.57978611300E+03  0.00000000000E+00 0.  1.
         -1    1    1    2    0  501 -0.12222008411E+02 -0.18698598981E+02 -0.19048431135E+03  0.19178969723E+03  0.00000000000E+00 0. -1.
</event>
<event>
 4    1  0.6629728E+001  0.2035566E+02  0.7546771E-02  0.1528666E+00
          2   -1    0    0  502    0  0.00000000000E+00  0.00000000000E+00  0.42252595331E+03  0.42252595331E+03  0.00000000000E+00 0.  1.
         -2   -1    0    0    0  501 -0.00000000000E+00 -0.00000000000E+00 -0.98065654511E+00  0.98065654511E+00  0.00000000000E+00 0. -1.
          1    1    1    2  502    0  0.22512157292E+01 -0.20230789632E+02  0.21072589679E+03  0.21170676985E+03  0.00000000000E+00 0.  1.
         -1    1    1    2    0  501 -0.22512157292E+01  0.20230789632E+02  0.21081939997E+03  0.21179984000E+03  0.00000000000E+00 0. -1.
</event>
<event>
 4    1  0.6629728E+001  0.4257480E+02  0.7546771E-02  0.1334024E+00
          2   -1    0    0  502    0  0.00000000000E+00  0.00000000000E+00  0.29833718163E+04  0.29833718163E+04  0.00000000000E+00 0. -1.
         -2   -1    0    0    0  501 -0.00000000000E+00 -0.00000000000E+00 -0.10550875448E+01  0.10550875448E+01  0.00000000000E+00 0.  1.
          1    1    1    2  502    0  0.41232516964E+02 -0.10606290323E+02  0.51932756956E+03  0.52106980180E+03  0.00000000000E+00 0.  1.
         -1    1    1    2    0  501 -0.41232516964E+02  0.10606290323E+02  0.24629891592E+04  0.24633571020E+04  0.00000000000E+00 0. -1.
</event>
<event>
 4    1  0.6629728E+001  0.2004862E+02  0.7546771E-02  0.1533294E+00
          2   -1    0    0  502    0  0.00000000000E+00  0.00000000000E+00  0.31919518390E+03  0.31919518390E+03  0.00000000000E+00 0.  1.
         -2   -1    0    0    0  501 -0.00000000000E+00 -0.00000000000E+00 -0.12843178678E+01  0.12843178678E+01  0.00000000000E+00 0. -1.
          1    1    1    2  502    0 -0.14215196442E+02 -0.14137733925E+02  0.18134115562E+03  0.18244605244E+03  0.00000000000E+00 0.  1.
         -1    1    1    2    0  501  0.14215196442E+02  0.14137733925E+02  0.13656971041E+03  0.13803344933E+03  0.00000000000E+00 0. -1.
</event>
<event>
 4    1  0.6629728E+001  0.5289741E+02  0.7546771E-02  0.1286076E+00
          2   -1    0    0  502    0  0.00000000000E+00  0.00000000000E+00  0.28729611204E+03  0.28729611204E+03  0.00000000000E+00 0. -1.
         -2   -1    0    0    0  501 -0.00000000000E+00 -0.00000000000E+00 -0.10570015485E+02  0.10570015485E+02  0.00000000000E+00 0.  1.
          1    1    1    2  502    0  0.41483014332E+02 -0.32822174549E+02  0.18010890736E+03  0.18771615309E+03  0.00000000000E+00 0. -1.
         -1    1    1    2    0  501 -0.41483014332E+02  0.32822174549E+02  0.96617189202E+02  0.11014997444E+03  0.00000000000E+00 0.  1.
</event>
<event>
 4    1  0.6629728E+001  0.2278186E+02  0.7546771E-02  0.1495256E+00
          2   -1    0    0  502    0  0.00000000000E+00  0.00000000000E+00  0.11259967924E+02  0.11259967924E+02  0.00000000000E+00 0. -1.
         -2   -1    0    0    0  501 -0.00000000000E+00 -0.00000000000E+00 -0.46192845311E+02  0.46192845311E+02  0.00000000000E+00 0.  1.
          1    1    1    2  502    0  0.22658611526E+02  0.23665390077E+01 -0.18797530144E+02  0.29535746523E+02  0.00000000000E+00 0.  1.
         -1    1    1    2    0  501 -0.22658611526E+02 -0.23665390077E+01 -0.16135347242E+02  0.27917066712E+02  0.00000000000E+00 0. -1.
</event>
<event>
 4    1  0.6629728E+001  0.2172041E+02  0.7546771E-02  0.1509223E+00
          2   -1    0    0  502    0  0.00000000000E+00  0.00000000000E+00  0.63448014221E+02  0.63448014221E+02  0.00000000000E+00 0.  1.
         -2   -1    0    0    0  501 -0.00000000000E+00 -0.00000000000E+00 -0.76999023180E+01  0.76999023180E+01  0.00000000000E+00 0. -1.
          1    1    1    2  502    0 -0.21260276012E+02  0.44471173287E+01  0.34464465951E+02  0.40737889021E+02  0.00000000000E+00 0.  1.
         -1    1    1    2    0  501  0.21260276012E+02 -0.44471173287E+01  0.21283645952E+02  0.30410027518E+02  0.00000000000E+00 0. -1.
</event>
<event>
 4    1  0.6629728E+001  0.2372432E+02  0.7546771E-02  0.1483598E+00
          2   -1    0    0  502    0  0.00000000000E+00  0.00000000000E+00  0.22046694690E+03  0.22046694690E+03  0.00000000000E+00 0.  1.
         -2   -1    0    0    0  501 -0.00000000000E+00 -0.00000000000E+00 -0.34861802963E+01  0.34861802963E+01  0.00000000000E+00 0. -1.
          1    1    1    2  502    0 -0.13854291716E+02  0.19258817962E+02  0.50554968560E+02  0.55844859337E+02  0.00000000000E+00 0. -1.
         -1    1    1    2    0  501  0.13854291716E+02 -0.19258817962E+02  0.16642579805E+03  0.16810826786E+03  0.00000000000E+00 0.  1.
</event>
<event>
 4    1  0.6629728E+001  0.4875390E+02  0.7546771E-02  0.1303667E+00
          2   -1    0    0  502    0  0.00000000000E+00  0.00000000000E+00  0.71883071268E+02  0.71883071268E+02  0.00000000000E+00 0. -1.
         -2   -1    0    0    0  501 -0.00000000000E+00 -0.00000000000E+00 -0.34411212667E+02  0.34411212667E+02  0.00000000000E+00 0.  1.
          1    1    1    2  502    0  0.47152590307E+02 -0.12392595412E+02  0.82309281148E+01  0.49443820355E+02  0.00000000000E+00 0. -1.
         -1    1    1    2    0  501 -0.47152590307E+02  0.12392595412E+02  0.29240930486E+02  0.56850463581E+02  0.00000000000E+00 0.  1.
</event>
<event>
 4    1  0.6629728E+001  0.2423752E+02  0.7546771E-02  0.1477517E+00
          2   -1    0    0  502    0  0.00000000000E+00  0.00000000000E+00  0.21296828070E+01  0.21296828070E+01  0.00000000000E+00 0. -1.
         -2   -1    0    0    0  501 -0.00000000000E+00 -0.00000000000E+00 -0.27690413395E+03  0.27690413395E+03  0.00000000000E+00 0.  1.
          1    1    1    2  502    0  0.10867593096E+02 -0.21664556535E+02 -0.12874957271E+03  0.13101110664E+03  0.00000000000E+00 0.  1.
         -1    1    1    2    0  501 -0.10867593096E+02  0.21664556535E+02 -0.14602487843E+03  0.14802271011E+03  0.00000000000E+00 0. -1.
</event>
<event>
 4    1  0.6629728E+001  0.2108771E+02  0.7546771E-02  0.1518016E+00
          2   -1    0    0  502    0  0.00000000000E+00  0.00000000000E+00  0.26501404296E+01  0.26501404296E+01  0.00000000000E+00 0. -1.
         -2   -1    0    0    0  501 -0.00000000000E+00 -0.00000000000E+00 -0.19801144998E+03  0.19801144998E+03  0.00000000000E+00 0.  1.
          1    1    1    2  502    0 -0.19296653164E+02 -0.85047329998E+01 -0.13687117328E+03  0.13848613426E+03  0.00000000000E+00 0.  1.
         -1    1    1    2    0  501  0.19296653164E+02  0.85047329998E+01 -0.58490136272E+02  0.62175456153E+02  0.00000000000E+00 0. -1.
</event>
<event>
 4    1  0.6629728E+001  0.2827479E+02  0.7546771E-02  0.1435206E+00
          2   -1    0    0  502    0  0.00000000000E+00  0.00000000000E+00  0.32825176854E+02  0.32825176854E+02  0.00000000000E+00 0.  1.
         -2   -1    0    0    0  501 -0.00000000000E+00 -0.00000000000E+00 -0.40084162961E+02  0.40084162961E+02  0.00000000000E+00 0. -1.
          1    1    1    2  502    0  0.19386962494E+02  0.20581772425E+02 -0.26465324964E+02  0.38728246750E+02  0.00000000000E+00 0. -1.
         -1    1    1    2    0  501 -0.19386962494E+02 -0.20581772425E+02  0.19206338856E+02  0.34181093065E+02  0.00000000000E+00 0.  1.
</event>
<event>
 4    1  0.6629728E+001  0.4269171E+02  0.7546771E-02  0.1333395E+00
          2   -1    0    0  502    0  0.00000000000E+00  0.00000000000E+00  0.33361034685E+03  0.33361034685E+03  0.00000000000E+00 0.  1.
         -2   -1    0    0    0  501 -0.00000000000E+00 -0.00000000000E+00 -0.73290293471E+01  0.73290293471E+01  0.00000000000E+00 0. -1.
          1    1    1    2  502    0  0.34732362591E+02 -0.24824289863E+02  0.24915266597E+03  0.25278376795E+03  0.00000000000E+00 0.  1.
         -1    1    1    2    0  501 -0.34732362591E+02  0.24824289863E+02  0.77128651528E+02  0.88155608244E+02  0.00000000000E+00 0. -1.
</event>
<event>
 4    1  0.6629728E+001  0.2318879E+02  0.7546771E-02  0.1490141E+00
          2   -1    0    0  502    0  0.00000000000E+00  0.00000000000E+00  0.41011549589E+01  0.41011549589E+01  0.00000000000E+00 0. -1.
         -2   -1    0    0    0  501 -0.00000000000E+00 -0.00000000000E+00 -0.14821585523E+03  0.14821585523E+03  0.00000000000E+00 0.  1.
          1    1    1    2  502    0 -0.19681115299E+02 -0.12262692213E+02 -0.46187773490E+02  0.51682011761E+02  0.00000000000E+00 0. -1.
         -1    1    1    2    0  501  0.19681115299E+02  0.12262692213E+02 -0.97926926777E+02  0.10063499842E+03  0.00000000000E+00 0.  1.
</event>
<event>
 4    1  0.6629728E+001  0.3359620E+02  0.7546771E-02  0.1390710E+00
          2   -1    0    0  502    0  0.00000000000E+00  0.00000000000E+00  0.54099863414E+03  0.54099863414E+03  0.00000000000E+00 0. -1.
         -2   -1    0    0    0  501 -0.00000000000E+00 -0.00000000000E+00 -0.21035631100E+01  0.21035631100E+01  0.00000000000E+00 0.  1.
          1    1    1    2  502    0 -0.29569418724E+02 -0.15948474028E+02  0.24487253750E+03  0.24716647015E+03  0.00000000000E+00 0.  1.
         -1    1    1    2    0  501  0.29569418724E+02  0.15948474028E+02  0.29402253354E+03  0.29593572710E+03  0.00000000000E+00 0. -1.
</event>
<event>
 4    1  0.6629728E+001  0.5042877E+02  0.7546771E-02  0.1296324E+00
          2   -1    0    0  502    0  0.00000000000E+00  0.00000000000E+00  0.10506932323E+03  0.10506932323E+03  0.00000000000E+00 0. -1.
         -2   -1    0    0    0  501 -0.00000000000E+00 -0.00000000000E+00 -0.24650995918E+02  0.24650995918E+02  0.00000000000E+00 0.  1.
          1    1    1    2  502    0 -0.50079112112E+02 -0.59281840105E+01  0.48946596575E+02  0.70276810912E+02  0.00000000000E+00 0. -1.
         -1    1    1    2    0  501  0.50079112112E+02  0.59281840105E+01  0.31471730732E+02  0.59443508232E+02  0.00000000000E+00 0.  1.
</event>
<event>
 4    1  0.6629728E+001  0.2294071E+02  0.7546771E-02  0.1493244E+00
          2   -1    0    0  502    0  0.00000000000E+00  0.00000000000E+00  0.25154516143E+03  0.25154516143E+03  0.00000000000E+00 0. -1.
         -2   -1    0    0    0  501 -0.00000000000E+00 -0.00000000000E+00 -0.22526174284E+01  0.22526174284E+01  0.00000000000E+00 0.  1.
          1    1    1    2  502    0 -0.33314428274E+01 -0.22697529336E+02  0.15851309951E+03  0.16016453747E+03  0.00000000000E+00 0. -1.
         -1    1    1    2    0  501  0.33314428274E+01  0.22697529336E+02  0.90779444498E+02  0.93633241387E+02  0.00000000000E+00 0.  1.
</event>
<event>
 4    1  0.6629728E+001  0.9396212E+02  0.7546771E-02  0.1174703E+00
          2   -1    0    0  502    0  0.00000000000E+00  0.00000000000E+00  0.78421612967E+03  0.78421612967E+03  0.00000000000E+00 0. -1.
         -2   -1    0    0    0  501 -0.00000000000E+00 -0.00000000000E+00 -0.13144986370E+02  0.13144986370E+02  0.00000000000E+00 0.  1.
          1    1    1    2  502    0 -0.83576570557E+02 -0.42939914703E+02  0.23449145958E+03  0.25261655535E+03  0.00000000000E+00 0.  1.
         -1    1    1    2    0  501  0.83576570557E+02  0.42939914703E+02  0.53657968372E+03  0.54474456069E+03  0.00000000000E+00 0. -1.
</event>
<event>
 4    1  0.6629728E+001  0.5424867E+02  0.7546771E-02  0.1280733E+00
          2   -1    0    0  502    0  0.00000000000E+00  0.00000000000E+00  0.66153898898E+02  0.66153898898E+02  0.00000000000E+00 0.  1.
         -2   -1    0    0    0  501 -0.00000000000E+00 -0.00000000000E+00 -0.11099596974E+03  0.11099596974E+03  0.00000000000E+00 0. -1.
          1    1    1    2  502    0 -0.21099559359E+02 -0.49977263268E+02 -0.90985771934E+02  0.10593077430E+03  0.00000000000E+00 0. -1.
         -1    1    1    2    0  501  0.21099559359E+02  0.49977263268E+02  0.46143701089E+02  0.71219094343E+02  0.00000000000E+00 0.  1.
</event>
<event>
 4    1  0.6629728E+001  0.3605408E+02  0.7546771E-02  0.1373300E+00
          2   -1    0    0  502    0  0.00000000000E+00  0.00000000000E+00  0.12021465318E+02  0.12021465318E+02  0.00000000000E+00 0.  1.
         -2   -1    0    0    0  501 -0.00000000000E+00 -0.00000000000E+00 -0.26057296564E+03  0.26057296564E+03  0.00000000000E+00 0. -1.
          1    1    1    2  502    0 -0.28602432277E+02  0.21949882604E+02 -0.20026204430E+02  0.41242518623E+02  0.00000000000E+00 0.  1.
         -1    1    1    2    0  501  0.28602432277E+02 -0.21949882604E+02 -0.22852529590E+03  0.23135191234E+03  0.00000000000E+00 0. -1.
</event>
<event>
 4    1  0.6629728E+001  0.2893502E+02  0.7546771E-02  0.1429082E+00
          2   -1    0    0  502    0  0.00000000000E+00  0.00000000000E+00  0.36791991319E+03  0.36791991319E+03  0.00000000000E+00 0.  1.
         -2   -1    0    0    0  501 -0.00000000000E+00 -0.00000000000E+00 -0.33906997731E+01  0.33906997731E+01  0.00000000000E+00 0. -1.
          1    1    1    2  502    0  0.28928456532E+02 -0.61614453270E+00  0.28873315217E+03  0.29017937279E+03  0.00000000000E+00 0.  1.
         -1    1    1    2    0  501 -0.28928456532E+02  0.61614453270E+00  0.75796061256E+02  0.81131240181E+02  0.00000000000E+00 0. -1.
</event>
<event>
 4    1  0.6629728E+001  0.4121188E+02  0.7546771E-02  0.1341527E+00
          2   -1    0    0  502    0  0.00000000000E+00  0.00000000000E+00  0.20607819294E+03  0.20607819294E+03  0.00000000000E+00 0. -1.
         -2   -1    0    0    0  501 -0.00000000000E+00 -0.00000000000E+00 -0.85480298213E+01  0.85480298213E+01  0.00000000000E+00 0.  1.
          1    1    1    2  502    0  0.58841325922E+01  0.40789660816E+02  0.11908241365E+03  0.12601206564E+03  0.00000000000E+00 0. -1.
         -1    1    1    2    0  501 -0.58841325922E+01 -0.40789660816E+02  0.78447749473E+02  0.88614157127E+02  0.00000000000E+00 0.  1.
</event>
<event>
 4    1  0.6629728E+001  0.2435395E+02  0.7546771E-02  0.1476162E+00
          2   -1    0    0  502    0  0.00000000000E+00  0.00000000000E+00  0.11060138463E+01  0.11060138463E+01  0.00000000000E+00 0. -1.
         -2   -1    0    0    0  501 -0.00000000000E+00 -0.00000000000E+00 -0.69619623592E+03  0.69619623592E+03  0.00000000000E+00 0.  1.
          1    1    1    2  502    0 -0.22664748271E+02 -0.89120107797E+01 -0.51465188252E+03  0.51522778937E+03  0.00000000000E+00 0. -1.
         -1    1    1    2    0  501  0.22664748271E+02  0.89120107797E+01 -0.18043833955E+03  0.18207446040E+03  0.00000000000E+00 0.  1.
</event>
<event>
 4    1  0.6629728E+001  0.2904058E+02  0.7546771E-02  0.1428121E+00
          2   -1    0    0  502    0  0.00000000000E+00  0.00000000000E+00  0.13661960877E+03  0.13661960877E+03  0.00000000000E+00 0. -1.
         -2   -1    0    0    0  501 -0.00000000000E+00 -0.00000000000E+00 -0.79764479017E+01  0.79764479017E+01  0.00000000000E+00 0.  1.
          1    1    1    2  502    0 -0.27513393117E+02 -0.92934574427E+01  0.98698855909E+02  0.10288255105E+03  0.00000000000E+00 0.  1.
         -1    1    1    2    0  501  0.27513393117E+02  0.92934574427E+01  0.29944304960E+02  0.41713505626E+02  0.00000000000E+00 0. -1.
</event>
<event>
 4    1  0.6629728E+001  0.2133403E+02  0.7546771E-02  0.1514549E+00
          2   -1    0    0  502    0  0.00000000000E+00  0.00000000000E+00  0.49950329384E+02  0.49950329384E+02  0.00000000000E+00 0.  1.
         -2   -1    0    0    0  501 -0.00000000000E+00 -0.00000000000E+00 -0.96308953732E+01  0.96308953732E+01  0.00000000000E+00 0. -1.
          1    1    1    2  502    0  0.13780769188E+02  0.16285919695E+02  0.13243932286E+02  0.25110605770E+02  0.00000000000E+00 0. -1.
         -1    1    1    2    0  501 -0.13780769188E+02 -0.16285919695E+02  0.27075501725E+02  0.34470618988E+02  0.00000000000E+00 0.  1.
</event>
<event>
 4    1  0.6629728E+001  0.2899870E+02  0.7546771E-02  0.1428502E+00
          2   -1    0    0  502    0  0.00000000000E+00  0.00000000000E+00  0.29199463728E+03  0.29199463728E+03  0.00000000000E+00 0. -1.
         -2   -1    0    0    0  501 -0.00000000000E+00 -0.00000000000E+00 -0.44738238991E+01  0.44738238991E+01  0.00000000000E+00 0.  1.
          1    1    1    2  502    0  0.13890273143E+02  0.25455552858E+02  0.23223904255E+03  0.23404251268E+03  0.00000000000E+00 0. -1.
         -1    1    1    2    0  501 -0.13890273143E+02 -0.25455552858E+02  0.55281770837E+02  0.62425948500E+02  0.00000000000E+00 0.  1.
</event>
<event>
 4    1  0.6629728E+001  0.2049131E+02  0.7546771E-02  0.1526653E+00
          2   -1    0    0  502    0  0.00000000000E+00  0.00000000000E+00  0.87017854164E+03  0.87017854164E+03  0.00000000000E+00 0.  1.
         -2   -1    0    0    0  501 -0.00000000000E+00 -0.00000000000E+00 -0.55584240244E+00  0.55584240244E+00  0.00000000000E+00 0. -1.
          1    1    1    2  502    0 -0.15451729119E+02 -0.13458739962E+02  0.59291683214E+03  0.59327081796E+03  0.00000000000E+00 0.  1.
         -1    1    1    2    0  501  0.15451729119E+02  0.13458739962E+02  0.27670586710E+03  0.27746356608E+03  0.00000000000E+00 0. -1.
</event>
<event>
 4    1  0.6629728E+001  0.2036409E+02  0.7546771E-02  0.1528541E+00
          2   -1    0    0  502    0  0.00000000000E+00  0.00000000000E+00  0.11328476089E+03  0.11328476089E+03  0.00000000000E+00 0. -1.
         -2   -1    0    0    0  501 -0.00000000000E+00 -0.00000000000E+00 -0.39296631363E+01  0.39296631363E+01  0.00000000000E+00 0.  1.
          1    1    1    2  502    0  0.28889656367E+01 -0.20158125002E+02  0.39343450380E+02  0.44301277791E+02  0.00000000000E+00 0.  1.
         -1    1    1    2    0  501 -0.28889656367E+01  0.20158125002E+02  0.70011647371E+02  0.72913146233E+02  0.00000000000E+00 0. -1.
</event>
<event>
 4    1  0.6629728E+001  0.3173395E+02  0.7546771E-02  0.1405104E+00
          2   -1    0    0  502    0  0.00000000000E+00  0.00000000000E+00  0.13941696315E+02  0.13941696315E+02  0.00000000000E+00 0. -1.
         -2   -1    0    0    0  501 -0.00000000000E+00 -0.00000000000E+00 -0.78857431490E+02  0.78857431490E+02  0.00000000000E+00 0.  1.
          1    1    1    2  502    0 -0.11852327388E+02 -0.29437493991E+02 -0.19009085506E+02  0.36991742980E+02  0.00000000000E+00 0. -1.
         -1    1    1    2    0  501  0.11852327388E+02  0.29437493991E+02 -0.45906649670E+02  0.55807384824E+02  0.00000000000E+00 0.  1.
</event>
<event>
 4    1  0.6629728E+001  0.2278733E+02  0.7546771E-02  0.1495186E+00
          2   -1    0    0  502    0  0.00000000000E+00  0.00000000000E+00  0.22187577604E+03  0.22187577604E+03  0.00000000000E+00 0.  1.
         -2   -1    0    0    0  501 -0.00000000000E+00 -0.00000000000E+00 -0.25309757995E+01  0.25309757995E+01  0.00000000000E+00 0. -1.
          1    1    1    2  502    0  0.17090844779E+02  0.15072010859E+02  0.78877712975E+02  0.82103325699E+02  0.00000000000E+00 0. -1.
         -1    1    1    2    0  501 -0.17090844779E+02 -0.15072010859E+02  0.14046708727E+03  0.14230342614E+03  0.00000000000E+00 0.  1.
</event>
<event>
 4    1  0.6629728E+001  0.2089007E+02  0.7546771E-02  0.1520840E+00
          2   -1    0    0  502    0  0.00000000000E+00  0.00000000000E+00  0.24585359990E+01  0.24585359990E+01  0.00000000000E+00 0.  1.
         -2   -1    0    0    0  501 -0.00000000000E+00 -0.00000000000E+00 -0.17759076282E+03  0.17759076282E+03  0.00000000000E+00 0. -1.
          1    1    1    2  502    0 -0.20401783455E+02 -0.44902263904E+01 -0.85552752161E+02  0.88066272225E+02  0.00000000000E+00 0.  1.
         -1    1    1    2    0  501  0.20401783455E+02  0.44902263904E+01 -0.89579474661E+02  0.91983026596E+02  0.00000000000E+00 0. -1.
</event>
<event>
 4    1  0.6629728E+001  0.2965923E+02  0.7546771E-02  0.1422581E+00
          2   -1    0    0  502    0  0.00000000000E+00  0.00000000000E+00  0.89525151546E+02  0.89525151546E+02  0.00000000000E+00 0.  1.
         -2   -1    0    0    0  501 -0.00000000000E+00 -0.00000000000E+00 -0.10481014272E+02  0.10481014272E+02  0.00000000000E+00 0. -1.
          1    1    1    2  502    0 -0.29595370988E+02 -0.19451619707E+01  0.27021286972E+02  0.40122557105E+02  0.00000000000E+00 0. -1.
         -1    1    1    2    0  501  0.29595370988E+02  0.19451619707E+01  0.52022850301E+02  0.59883608713E+02  0.00000000000E+00 0.  1.
</event>
<event>
 4    1  0.6629728E+001  0.2134505E+02  0.7546771E-02  0.1514395E+00
          2   -1    0    0  502    0  0.00000000000E+00  0.00000000000E+00  0.25092419502E+01  0.25092419502E+01  0.00000000000E+00 0. -1.
         -2   -1    0    0    0  501 -0.00000000000E+00 -0.00000000000E+00 -0.18659277097E+03  0.18659277097E+03  0.00000000000E+00 0.  1.
          1    1    1    2  502    0 -0.10659549983E+02  0.18492842506E+02 -0.10754954504E+03  0.10964723374E+03  0.00000000000E+00 0.  1.
         -1    1    1    2    0  501  0.10659549983E+02 -0.18492842506E+02 -0.76533983980E+02  0.79454779174E+02  0.00000000000E+00 0. -1.
</event>
<event>
 4    1  0.6629728E+001  0.2196530E+02  0.7546771E-02  0.1505916E+00
          2   -1    0    0  502    0  0.00000000000E+00  0.00000000000E+00  0.29636851832E+03  0.29636851832E+03  0.00000000000E+00 0.  1.
         -2   -1    0    0    0  501 -0.00000000000E+00 -0.00000000000E+00 -0.16559933833E+01  0.16559933833E+01  0.00000000000E+00 0. -1.
          1    1    1    2  502    0  0.16067639280E+02 -0.14976821682E+02  0.16674633378E+03  0.16818684267E+03  0.00000000000E+00 0. -1.
         -1    1    1    2    0  501 -0.16067639280E+02  0.14976821682E+02  0.12796619117E+03  0.12983766904E+03  0.00000000000E+00 0.  1.
</event>
<event>
 4    1  0.6629728E+001  0.6097076E+02  0.7546771E-02  0.1256569E+00
          2   -1    0    0  502    0  0.00000000000E+00  0.00000000000E+00  0.56233290731E+03  0.56233290731E+03  0.00000000000E+00 0.  1.
         -2   -1    0    0    0  501 -0.00000000000E+00 -0.00000000000E+00 -0.14199282921E+02  0.14199282921E+02  0.00000000000E+00 0. -1.
          1    1    1    2  502    0  0.19764188195E+02 -0.57678510388E+02  0.63330339634E+02  0.87909985859E+02  0.00000000000E+00 0. -1.
         -1    1    1    2    0  501 -0.19764188195E+02  0.57678510388E+02  0.48480328476E+03  0.48862220437E+03  0.00000000000E+00 0.  1.
</event>
<event>
 4    1  0.6629728E+001  0.3353980E+02  0.7546771E-02  0.1391130E+00
          2   -1    0    0  502    0  0.00000000000E+00  0.00000000000E+00  0.11663163533E+04  0.11663163533E+04  0.00000000000E+00 0. -1.
         -2   -1    0    0    0  501 -0.00000000000E+00 -0.00000000000E+00 -0.96687487269E+00  0.96687487269E+00  0.00000000000E+00 0.  1.
          1    1    1    2  502    0  0.40569751698E+00  0.33537350923E+02  0.55378251645E+03  0.55479725488E+03  0.00000000000E+00 0. -1.
         -1    1    1    2    0  501 -0.40569751698E+00 -0.33537350923E+02  0.61156696200E+03  0.61248597331E+03  0.00000000000E+00 0.  1.
</event>
<event>
 4    1  0.6629728E+001  0.3623527E+02  0.7546771E-02  0.1372081E+00
          2   -1    0    0  502    0  0.00000000000E+00  0.00000000000E+00  0.20117132138E+04  0.20117132138E+04  0.00000000000E+00 0. -1.
         -2   -1    0    0    0  501 -0.00000000000E+00 -0.00000000000E+00 -0.67673821370E+00  0.67673821370E+00  0.00000000000E+00 0.  1.
          1    1    1    2  502    0  0.47066316837E+01  0.35928295698E+02  0.81578252042E+03  0.81658686950E+03  0.00000000000E+00 0. -1.
         -1    1    1    2    0  501 -0.47066316837E+01 -0.35928295698E+02  0.11952539552E+04  0.11958030825E+04  0.00000000000E+00 0.  1.
</event>
<event>
 4    1  0.6629728E+001  0.2265043E+02  0.7546771E-02  0.1496935E+00
          2   -1    0    0  502    0  0.00000000000E+00  0.00000000000E+00  0.14600067057E+01  0.14600067057E+01  0.00000000000E+00 0. -1.
         -2   -1    0    0    0  501 -0.00000000000E+00 -0.00000000000E+00 -0.35729885682E+03  0.35729885682E+03  0.00000000000E+00 0.  1.
          1    1    1    2  502    0  0.22534622681E+02 -0.22875428495E+01 -0.20097355641E+03  0.20224592072E+03  0.00000000000E+00 0. -1.
         -1    1    1    2    0  501 -0.22534622681E+02  0.22875428495E+01 -0.15486529370E+03  0.15651294281E+03  0.00000000000E+00 0.  1.
</event>
<event>
 4    1  0.6629728E+001  0.5446150E+02  0.7546771E-02  0.1279907E+00
          2   -1    0    0  502    0  0.00000000000E+00  0.00000000000E+00  0.35221808855E+03  0.35221808855E+03  0.00000000000E+00 0.  1.
         -2   -1    0    0    0  501 -0.00000000000E+00 -0.00000000000E+00 -0.97446571458E+01  0.97446571458E+01  0.00000000000E+00 0. -1.
          1    1    1    2  502    0  0.20601341793E+01 -0.54422522612E+02  0.10453669594E+03  0.11787271066E+03  0.00000000000E+00 0. -1.
         -1    1    1    2    0  501 -0.20601341793E+01  0.54422522612E+02  0.23793673546E+03  0.24409003503E+03  0.00000000000E+00 0.  1.
</event>
<event>
 4    1  0.6629728E+001  0.2015611E+02  0.7546771E-02  0.1531663E+00
          2   -1    0    0  502    0  0.00000000000E+00  0.00000000000E+00  0.14629457448E+02  0.14629457448E+02  0.00000000000E+00 0. -1.
         -2   -1    0    0    0  501 -0.00000000000E+00 -0.00000000000E+00 -0.53940263609E+02  0.53940263609E+02  0.00000000000E+00 0.  1.
          1    1    1    2  502    0  0.44561702637E+01  0.19657347353E+02  0.42251815500E+01  0.20594196209E+02  0.00000000000E+00 0. -1.
         -1    1    1    2    0  501 -0.44561702637E+01 -0.19657347353E+02 -0.43535987711E+02  0.47975524847E+02  0.00000000000E+00 0.  1.
</event>
<event>
 4    1  0.6629728E+001  0.2151627E+02  0.7546771E-02  0.1512020E+00
          2   -1    0    0  502    0  0.00000000000E+00  0.00000000000E+00  0.45923144544E+03  0.45923144544E+03  0.00000000000E+00 0. -1.
         -2   -1    0    0    0  501 -0.00000000000E+00 -0.00000000000E+00 -0.11030339211E+01  0.11030339211E+01  0.00000000000E+00 0.  1.
          1    1    1    2  502    0  0.18289744995E+02  0.11332927809E+02  0.16153902757E+03  0.16296566342E+03  0.00000000000E+00 0.  1.
         -1    1    1    2    0  501 -0.18289744995E+02 -0.11332927809E+02  0.29658938395E+03  0.29736881595E+03  0.00000000000E+00 0. -1.
</event>
<event>
 4    1  0.6629728E+001  0.3236343E+02  0.7546771E-02  0.1400111E+00
          2   -1    0    0  502    0  0.00000000000E+00  0.00000000000E+00  0.87906587884E+02  0.87906587884E+02  0.00000000000E+00 0.  1.
         -2   -1    0    0    0  501 -0.00000000000E+00 -0.00000000000E+00 -0.13683563595E+02  0.13683563595E+02  0.00000000000E+00 0. -1.
          1    1    1    2  502    0  0.29586106936E+02  0.13116928990E+02  0.55373746701E+02  0.64137690740E+02  0.00000000000E+00 0.  1.
         -1    1    1    2    0  501 -0.29586106936E+02 -0.13116928990E+02  0.18849277589E+02  0.37452460739E+02  0.00000000000E+00 0. -1.
</event>
<event>
 4    1  0.6629728E+001  0.2799294E+02  0.7546771E-02  0.1437881E+00
          2   -1    0    0  502    0  0.00000000000E+00  0.00000000000E+00  0.21434585288E+04  0.21434585288E+04  0.00000000000E+00 0.  1.
         -2   -1    0    0    0  501 -0.00000000000E+00 -0.00000000000E+00 -0.38482933092E+00  0.38482933092E+00  0.00000000000E+00 0. -1.
          1    1    1    2  502    0  0.83284099161E+01 -0.26725312558E+02  0.83179649843E+03  0.83226739666E+03  0.00000000000E+00 0. -1.
         -1    1    1    2    0  501 -0.83284099161E+01  0.26725312558E+02  0.13112772011E+04  0.13115759615E+04  0.00000000000E+00 0.  1.
</event>
<event>
 4    1  0.6629728E+001  0.2510654E+02  0.7546771E-02  0.1467615E+00
          2   -1    0    0  502    0  0.00000000000E+00  0.00000000000E+00  0.27117473881E+03  0.27117473881E+03  0.00000000000E+00 0. -1.
         -2   -1    0    0    0  501 -0.00000000000E+00 -0.00000000000E+00 -0.43910459619E+01  0.43910459619E+01  0.00000000000E+00 0.  1.
          1    1    1    2  502    0  0.19940419980E+01 -0.25027228850E+02  0.22791466562E+03  0.22929333438E+03  0.00000000000E+00 0. -1.
         -1    1    1    2    0  501 -0.19940419980E+01  0.25027228850E+02  0.38869027227E+02  0.46272450388E+02  0.00000000000E+00 0.  1.
</event>
<event>
 4    1  0.6629728E+001  0.3267733E+02  0.7546771E-02  0.1397671E+00
          2   -1    0    0  502    0  0.00000000000E+00  0.00000000000E+00  0.21725417184E+03  0.21725417184E+03  0.00000000000E+00 0.  1.
         -2   -1    0    0    0  501 -0.00000000000E+00 -0.00000000000E+00 -0.90730662315E+01  0.90730662315E+01  0.00000000000E+00 0. -1.
          1    1    1    2  502    0  0.15872772772E+02  0.28563317085E+02  0.27482470878E+02  0.42697707245E+02  0.00000000000E+00 0. -1.
         -1    1    1    2    0  501 -0.15872772772E+02 -0.28563317085E+02  0.18069863473E+03  0.18362953083E+03  0.00000000000E+00 0.  1.
</event>
<event>
 4    1  0.6629728E+001  0.2138535E+02  0.7546771E-02  0.1513834E+00
          2   -1    0    0  502    0  0.00000000000E+00  0.00000000000E+00  0.79544751508E+01  0.79544751508E+01  0.00000000000E+00 0.  1.
         -2   -1    0    0    0  501 -0.00000000000E+00 -0.00000000000E+00 -0.17171441911E+03  0.17171441911E+03  0.00000000000E+00 0. -1.
          1    1    1    2  502    0 -0.19694134137E+02 -0.83351344298E+01 -0.15514752385E+03  0.15661445509E+03  0.00000000000E+00 0. -1.
         -1    1    1    2    0  501  0.19694134137E+02  0.83351344298E+01 -0.86124201047E+01  0.23054439169E+02  0.00000000000E+00 0.  1.
</event>
<event>
 4    1  0.6629728E+001  0.2495698E+02  0.7546771E-02  0.1469285E+00
          2   -1    0    0  502    0  0.00000000000E+00  0.00000000000E+00  0.66862040185E+02  0.66862040185E+02  0.00000000000E+00 0. -1.
         -2   -1    0    0    0  501 -0.00000000000E+00 -0.00000000000E+00 -0.10505684629E+02  0.10505684629E+02  0.00000000000E+00 0.  1.
          1    1    1    2  502    0  0.11760374773E+02  0.22012365645E+02  0.15157543833E+02  0.29199345731E+02  0.00000000000E+00 0. -1.
         -1    1    1    2    0  501 -0.11760374773E+02 -0.22012365645E+02  0.41198811722E+02  0.48168379082E+02  0.00000000000E+00 0.  1.
</event>
<event>
 4    1  0.6629728E+001  0.2331305E+02  0.7546771E-02  0.1488604E+00
          2   -1    0    0  502    0  0.00000000000E+00  0.00000000000E+00  0.93732984020E+03  0.93732984020E+03  0.00000000000E+00 0. -1.
         -2   -1    0    0    0  501 -0.00000000000E+00 -0.00000000000E+00 -0.59122279243E+00  0.59122279243E+00  0.00000000000E+00 0.  1.
          1    1    1    2  502    0  0.13547452275E+02  0.18972743107E+02  0.40328984942E+03  0.40396311847E+03  0.00000000000E+00 0.  1.
         -1    1    1    2    0  501 -0.13547452275E+02 -0.18972743107E+02  0.53344876799E+03  0.53395794452E+03  0.00000000000E+00 0. -1.
</event>
<event>
 4    1  0.6629728E+001  0.2238575E+02  0.7546771E-02  0.1500359E+00
          2   -1    0    0  502    0  0.00000000000E+00  0.00000000000E+00  0.34643086946E+02  0.34643086946E+02  0.00000000000E+00 0.  1.
         -2   -1    0    0    0  501 -0.00000000000E+00 -0.00000000000E+00 -0.16398932567E+02  0.16398932567E+02  0.00000000000E+00 0. -1.
          1    1    1    2  502    0 -0.14945663072E+02 -0.16665802628E+02  0.35853443671E+00  0.22388621414E+02  0.00000000000E+00 0. -1.
         -1    1    1    2    0  501  0.14945663072E+02  0.16665802628E+02  0.17885619943E+02  0.28653398099E+02  0.00000000000E+00 0.  1.
</event>
<event>
 4    1  0.6629728E+001  0.3232293E+02  0.7546771E-02  0.1400428E+00
          2   -1    0    0  502    0  0.00000000000E+00  0.00000000000E+00  0.22262318509E+03  0.22262318509E+03  0.00000000000E+00 0. -1.
         -2   -1    0    0    0  501 -0.00000000000E+00 -0.00000000000E+00 -0.49766069814E+01  0.49766069814E+01  0.00000000000E+00 0.  1.
          1    1    1    2  502    0  0.14694471352E+02 -0.28789659808E+02  0.13598948709E+03  0.13977808340E+03  0.00000000000E+00 0.  1.
         -1    1    1    2    0  501 -0.14694471352E+02  0.28789659808E+02  0.81657091014E+02  0.87821708666E+02  0.00000000000E+00 0. -1.
</event>
<event>
 4    1  0.6629728E+001  0.2104451E+02  0.7546771E-02  0.1518630E+00
          2   -1    0    0  502    0  0.00000000000E+00  0.00000000000E+00  0.84195650092E+02  0.84195650092E+02  0.00000000000E+00 0.  1.
         -2   -1    0    0    0  501 -0.00000000000E+00 -0.00000000000E+00 -0.99018124061E+01  0.99018124061E+01  0.00000000000E+00 0. -1.
          1    1    1    2  502    0  0.11661396264E+02  0.17518087005E+02  0.69360055841E+02  0.72482334961E+02  0.00000000000E+00 0.  1.
         -1    1    1    2    0  501 -0.11661396264E+02 -0.17518087005E+02  0.49337818450E+01  0.21615127537E+02  0.00000000000E+00 0. -1.
</event>
<event>
 4    1  0.6629728E+001  0.2067158E+02  0.7546771E-02  0.1524006E+00
          2   -1    0    0  502    0  0.00000000000E+00  0.00000000000E+00  0.10087810665E+03  0.10087810665E+03  0.00000000000E+00 0.  1.
         -2   -1    0    0    0  501 -0.00000000000E+00 -0.00000000000E+00 -0.65910721255E+01  0.65910721255E+01  0.00000000000E+00 0. -1.
          1    1    1    2  502    0 -0.18168594600E+02  0.98598289493E+01  0.79264078852E+02  0.81915250430E+02  0.00000000000E+00 0.  1.
         -1    1    1    2    0  501  0.18168594600E+02 -0.98598289493E+01  0.15022955667E+02  0.25553928341E+02  0.00000000000E+00 0. -1.
</event>
<event>
 4    1  0.6629728E+001  0.4091073E+02  0.7546771E-02  0.1343230E+00
          2   -1    0    0  502    0  0.00000000000E+00  0.00000000000E+00  0.32262432398E+02  0.32262432398E+02  0.00000000000E+00 0.  1.
         -2   -1    0    0    0  501 -0.00000000000E+00 -0.00000000000E+00 -0.56158009492E+02  0.56158009492E+02  0.00000000000E+00 0. -1.
          1    1    1    2  502    0  0.71018140287E+01  0.40289603433E+02 -0.24153825319E+02  0.47508895849E+02  0.00000000000E+00 0. -1.
         -1    1    1    2    0  501 -0.71018140287E+01 -0.40289603433E+02  0.25824822479E+00  0.40911546041E+02  0.00000000000E+00 0.  1.
</event>
<event>
 4    1  0.6629728E+001  0.2272266E+02  0.7546771E-02  0.1496010E+00
          2   -1    0    0  502    0  0.00000000000E+00  0.00000000000E+00  0.48276227948E+02  0.48276227948E+02  0.00000000000E+00 0.  1.
         -2   -1    0    0    0  501 -0.00000000000E+00 -0.00000000000E+00 -0.13602817422E+02  0.13602817422E+02  0.00000000000E+00 0. -1.
          1    1    1    2  502    0 -0.30915376799E+01  0.22511371040E+02  0.30321375021E+01  0.22924076626E+02  0.00000000000E+00 0. -1.
         -1    1    1    2    0  501  0.30915376799E+01 -0.22511371040E+02  0.31641273024E+02  0.38954968744E+02  0.00000000000E+00 0.  1.
</event>
<event>
 4    1  0.6629728E+001  0.2533395E+02  0.7546771E-02  0.1465102E+00
          2   -1    0    0  502    0  0.00000000000E+00  0.00000000000E+00  0.62007768065E+01  0.62007768065E+01  0.00000000000E+00 0.  1.
         -2   -1    0    0    0  501 -0.00000000000E+00 -0.00000000000E+00 -0.11111889880E+03  0.11111889880E+03  0.00000000000E+00 0. -1.
          1    1    1    2  502    0  0.22962844109E+02 -0.10701241493E+02 -0.37103612235E+02  0.44927573048E+02  0.00000000000E+00 0.  1.
         -1    1    1    2    0  501 -0.22962844109E+02  0.10701241493E+02 -0.67814509756E+02  0.72392102556E+02  0.00000000000E+00 0. -1.
</event>
<event>
 4    1  0.6629728E+001  0.3360430E+02  0.7546771E-02  0.1390650E+00
          2   -1    0    0  502    0  0.00000000000E+00  0.00000000000E+00  0.10534274719E+04  0.10534274719E+04  0.00000000000E+00 0. -1.
         -2   -1    0    0    0  501 -0.00000000000E+00 -0.00000000000E+00 -0.11378395233E+01  0.11378395233E+01  0.00000000000E+00 0.  1.
          1    1    1    2  502    0 -0.12687724537E+02  0.31117049224E+02  0.65300490871E+03  0.65386899292E+03  0.00000000000E+00 0.  1.
         -1    1    1    2    0  501  0.12687724537E+02 -0.31117049224E+02  0.39928472368E+03  0.40069631851E+03  0.00000000000E+00 0. -1.
</event>
<event>
 4    1  0.6629728E+001  0.3059164E+02  0.7546771E-02  0.1414523E+00
          2   -1    0    0  502    0  0.00000000000E+00  0.00000000000E+00  0.99988637838E+01  0.99988637838E+01  0.00000000000E+00 0.  1.
         -2   -1    0    0    0  501 -0.00000000000E+00 -0.00000000000E+00 -0.12966290087E+03  0.12966290087E+03  0.00000000000E+00 0. -1.
          1    1    1    2  502    0  0.27799800206E+02  0.12767900891E+02 -0.23002387387E+02  0.38274769890E+02  0.00000000000E+00 0.  1.
         -1    1    1    2    0  501 -0.27799800206E+02 -0.12767900891E+02 -0.96661649703E+02  0.10138699477E+03  0.00000000000E+00 0. -1.
</event>
<event>
 4    1  0.6629728E+001  0.7905076E+02  0.7546771E-02  0.1206069E+00
          2   -1    0    0  502    0  0.00000000000E+00  0.00000000000E+00  0.22234822683E+04  0.22234822683E+04  0.00000000000E+00 0. -1.
         -2   -1    0    0    0  501 -0.00000000000E+00 -0.00000000000E+00 -0.41734897241E+01  0.41734897241E+01  0.00000000000E+00 0.  1.
          1    1    1    2  502    0 -0.48812829383E+02  0.62179827869E+02  0.17461859982E+04  0.17479744173E+04  0.00000000000E+00 0.  1.
         -1    1    1    2    0  501  0.48812829383E+02 -0.62179827869E+02  0.47312278039E+03  0.47968134072E+03  0.00000000000E+00 0. -1.
</event>
<event>
 4    1  0.6629728E+001  0.2471504E+02  0.7546771E-02  0.1472017E+00
          2   -1    0    0  502    0  0.00000000000E+00  0.00000000000E+00  0.11956688595E+02  0.11956688595E+02  0.00000000000E+00 0. -1.
         -2   -1    0    0    0  501 -0.00000000000E+00 -0.00000000000E+00 -0.64299387229E+02  0.64299387229E+02  0.00000000000E+00 0.  1.
          1    1    1    2  502    0 -0.22686417304E+02  0.98060970882E+01 -0.88879436989E+01  0.26264588582E+02  0.00000000000E+00 0. -1.
         -1    1    1    2    0  501  0.22686417304E+02 -0.98060970882E+01 -0.43454754935E+02  0.49991487242E+02  0.00000000000E+00 0.  1.
</event>
<event>
 4    1  0.6629728E+001  0.3656588E+02  0.7546771E-02  0.1369877E+00
          2   -1    0    0  502    0  0.00000000000E+00  0.00000000000E+00  0.72859660198E+01  0.72859660198E+01  0.00000000000E+00 0. -1.
         -2   -1    0    0    0  501 -0.00000000000E+00 -0.00000000000E+00 -0.40256986497E+03  0.40256986497E+03  0.00000000000E+00 0.  1.
          1    1    1    2  502    0 -0.12658543339E+02  0.34304876997E+02 -0.46473984760E+02  0.59134546289E+02  0.00000000000E+00 0. -1.
         -1    1    1    2    0  501  0.12658543339E+02 -0.34304876997E+02 -0.34880991419E+03  0.35072128470E+03  0.00000000000E+00 0.  1.
</event>
<event>
 4    1  0.6629728E+001  0.3114631E+02  0.7546771E-02  0.1409890E+00
          2   -1    0    0  502    0  0.00000000000E+00  0.00000000000E+00  0.65980843725E+02  0.65980843725E+02  0.00000000000E+00 0.  1.
         -2   -1    0    0    0  501 -0.00000000000E+00 -0.00000000000E+00 -0.15437625729E+02  0.15437625729E+02  0.00000000000E+00 0. -1.
          1    1    1    2  502    0 -0.28978793749E+02  0.11415884386E+02  0.34154222055E+02  0.46223411683E+02  0.00000000000E+00 0.  1.
         -1    1    1    2    0  501  0.28978793749E+02 -0.11415884386E+02  0.16388995942E+02  0.35195057771E+02  0.00000000000E+00 0. -1.
</event>
<event>
 4    1  0.6629728E+001  0.2752823E+02  0.7546771E-02  0.1442373E+00
          2   -1    0    0  502    0  0.00000000000E+00  0.00000000000E+00  0.37445876966E+03  0.37445876966E+03  0.00000000000E+00 0. -1.
         -2   -1    0    0    0  501 -0.00000000000E+00 -0.00000000000E+00 -0.23075167700E+01  0.23075167700E+01  0.00000000000E+00 0.  1.
          1    1    1    2  502    0  0.96284721374E+01  0.25789458694E+02  0.25213968497E+03  0.25363797900E+03  0.00000000000E+00 0.  1.
         -1    1    1    2    0  501 -0.96284721374E+01 -0.25789458694E+02  0.12001156791E+03  0.12312830742E+03  0.00000000000E+00 0. -1.
</event>
<event>
 4    1  0.6629728E+001  0.2307993E+02  0.7546771E-02  0.1491497E+00
          2   -1    0    0  502    0  0.00000000000E+00  0.00000000000E+00  0.85027951705E+03  0.85027951705E+03  0.00000000000E+00 0. -1.
         -2   -1    0    0    0  501 -0.00000000000E+00 -0.00000000000E+00 -0.64776537325E+00  0.64776537325E+00  0.00000000000E+00 0.  1.
          1    1    1    2  502    0 -0.22662656994E+02 -0.43688826651E+01  0.34769114311E+03  0.34845633034E+03  0.00000000000E+00 0.  1.
         -1    1    1    2    0  501  0.22662656994E+02  0.43688826651E+01  0.50194060856E+03  0.50247095208E+03  0.00000000000E+00 0. -1.
</event>
<event>
 4    1  0.6629728E+001  0.2690733E+02  0.7546771E-02  0.1448541E+00
          2   -1    0    0  502    0  0.00000000000E+00  0.00000000000E+00  0.23677829101E+02  0.23677829101E+02  0.00000000000E+00 0. -1.
         -2   -1    0    0    0  501 -0.00000000000E+00 -0.00000000000E+00 -0.49218952883E+02  0.49218952883E+02  0.00000000000E+00 0.  1.
          1    1    1    2  502    0  0.17034629453E+02 -0.20828489797E+02  0.96607222520E+01  0.28589056337E+02  0.00000000000E+00 0. -1.
         -1    1    1    2    0  501 -0.17034629453E+02  0.20828489797E+02 -0.35201846033E+02  0.44307725647E+02  0.00000000000E+00 0.  1.
</event>
<event>
 4    1  0.6629728E+001  0.2083186E+02  0.7546771E-02  0.1521679E+00
          2   -1    0    0  502    0  0.00000000000E+00  0.00000000000E+00  0.61699671071E+03  0.61699671071E+03  0.00000000000E+00 0. -1.
         -2   -1    0    0    0  501 -0.00000000000E+00 -0.00000000000E+00 -0.71663310880E+00  0.71663310880E+00  0.00000000000E+00 0.  1.
          1    1    1    2  502    0  0.17949786188E+02  0.10572214461E+02  0.35018441400E+03  0.35080349250E+03  0.00000000000E+00 0. -1.
         -1    1    1    2    0  501 -0.17949786188E+02 -0.10572214461E+02  0.26609566361E+03  0.26690985132E+03  0.00000000000E+00 0.  1.
</event>
<event>
 4    1  0.6629728E+001  0.2488259E+02  0.7546771E-02  0.1470121E+00
          2   -1    0    0  502    0  0.00000000000E+00  0.00000000000E+00  0.15739967043E+04  0.15739967043E+04  0.00000000000E+00 0. -1.
         -2   -1    0    0    0  501 -0.00000000000E+00 -0.00000000000E+00 -0.50852339998E+00  0.50852339998E+00  0.00000000000E+00 0.  1.
          1    1    1    2  502    0  0.18962481858E+02 -0.16111095706E+02  0.41209823267E+03  0.41284875741E+03  0.00000000000E+00 0. -1.
         -1    1    1    2    0  501 -0.18962481858E+02  0.16111095706E+02  0.11613899482E+04  0.11616564703E+04  0.00000000000E+00 0.  1.
</event>
<event>
 4    1  0.6629728E+001  0.2011986E+02  0.7546771E-02  0.1532211E+00
          2   -1    0    0  502    0  0.00000000000E+00  0.00000000000E+00  0.10174430863E+04  0.10174430863E+04  0.00000000000E+00 0. -1.
         -2   -1    0    0    0  501 -0.00000000000E+00 -0.00000000000E+00 -0.61296510468E+00  0.61296510468E+00  0.00000000000E+00 0.  1.
          1    1    1    2  502    0 -0.18030497811E+02 -0.89280471202E+01  0.80995182915E+03  0.81020168750E+03  0.00000000000E+00 0. -1.
         -1    1    1    2    0  501  0.18030497811E+02  0.89280471202E+01  0.20687829208E+03  0.20785436394E+03  0.00000000000E+00 0.  1.
</event>
<event>
 4    1  0.6629728E+001  0.2288673E+02  0.7546771E-02  0.1493925E+00
          2   -1    0    0  502    0  0.00000000000E+00  0.00000000000E+00  0.39468737762E+03  0.39468737762E+03  0.00000000000E+00 0.  1.
         -2   -1    0    0    0  501 -0.00000000000E+00 -0.00000000000E+00 -0.13684915186E+01  0.13684915186E+01  0.00000000000E+00 0. -1.
          1    1    1    2  502    0  0.22511934006E+02 -0.41249547555E+01  0.23108577915E+03  0.23221636408E+03  0.00000000000E+00 0.  1.
         -1    1    1    2    0  501 -0.22511934006E+02  0.41249547555E+01  0.16223310695E+03  0.16383950505E+03  0.00000000000E+00 0. -1.
</event>
<event>
 4    1  0.6629728E+001  0.2146333E+02  0.7546771E-02  0.1512751E+00
          2   -1    0    0  502    0  0.00000000000E+00  0.00000000000E+00  0.84894871305E+02  0.84894871305E+02  0.00000000000E+00 0.  1.
         -2   -1    0    0    0  501 -0.00000000000E+00 -0.00000000000E+00 -0.55094155080E+01  0.55094155080E+01  0.00000000000E+00 0. -1.
          1    1    1    2  502    0 -0.12100997337E+02  0.17726831378E+02  0.34144552160E+02  0.40330201208E+02  0.00000000000E+00 0.  1.
         -1    1    1    2    0  501  0.12100997337E+02 -0.17726831378E+02  0.45240903637E+02  0.50074085605E+02  0.00000000000E+00 0. -1.
</event>
<event>
 4    1  0.6629728E+001  0.2319162E+02  0.7546771E-02  0.1490106E+00
          2   -1    0    0  502    0  0.00000000000E+00  0.00000000000E+00  0.82264216612E+02  0.82264216612E+02  0.00000000000E+00 0.  1.
         -2   -1    0    0    0  501 -0.00000000000E+00 -0.00000000000E+00 -0.10280713408E+02  0.10280713408E+02  0.00000000000E+00 0. -1.
          1    1    1    2  502    0 -0.21990270788E+02  0.73674466738E+01  0.63910681767E+02  0.67988429337E+02  0.00000000000E+00 0.  1.
         -1    1    1    2    0  501  0.21990270788E+02 -0.73674466738E+01  0.80728214382E+01  0.24556500683E+02  0.00000000000E+00 0. -1.
</event>
<event>
 4    1  0.6629728E+001  0.2234724E+02  0.7546771E-02  0.1500862E+00
          2   -1    0    0  502    0  0.00000000000E+00  0.00000000000E+00  0.22966594136E+03  0.22966594136E+03  0.00000000000E+00 0. -1.
         -2   -1    0    0    0  501 -0.00000000000E+00 -0.00000000000E+00 -0.43403906042E+01  0.43403906042E+01  0.00000000000E+00 0.  1.
          1    1    1    2  502    0 -0.16931187531E+02 -0.14585410959E+02  0.19531518310E+03  0.19658947092E+03  0.00000000000E+00 0. -1.
         -1    1    1    2    0  501  0.16931187531E+02  0.14585410959E+02  0.30010367649E+02  0.37416861045E+02  0.00000000000E+00 0.  1.
</event>
<event>
 4    1  0.6629728E+001  0.2499435E+02  0.7546771E-02  0.1468867E+00
          2   -1    0    0  502    0  0.00000000000E+00  0.00000000000E+00  0.50247850327E+01  0.50247850327E+01  0.00000000000E+00 0.  1.
         -2   -1    0    0    0  501 -0.00000000000E+00 -0.00000000000E+00 -0.20760951365E+03  0.20760951365E+03  0.00000000000E+00 0. -1.
          1    1    1    2  502    0 -0.99391327759E+01 -0.22933193341E+02 -0.33955025015E+02  0.42162322528E+02  0.00000000000E+00 0.  1.
         -1    1    1    2    0  501  0.99391327759E+01  0.22933193341E+02 -0.16862970360E+03  0.17047197615E+03  0.00000000000E+00 0. -1.
</event>
<event>
 4    1  0.6629728E+001  0.4177236E+02  0.7546771E-02  0.1338402E+00
          2   -1    0    0  502    0  0.00000000000E+00  0.00000000000E+00  0.38119399158E+04  0.38119399158E+04  0.00000000000E+00 0.  1.
         -2   -1    0    0    0  501 -0.00000000000E+00 -0.00000000000E+00 -0.68595730989E+00  0.68595730989E+00  0.00000000000E+00 0. -1.
          1    1    1    2  502    0 -0.22484414428E+02 -0.35204843296E+02  0.80609760733E+03  0.80717921333E+03  0.00000000000E+00 0. -1.
         -1    1    1    2    0  501  0.22484414428E+02  0.35204843296E+02  0.30051563512E+04  0.30054466598E+04  0.00000000000E+00 0.  1.
</event>
<event>
 4    1  0.6629728E+001  0.2142044E+02  0.7546771E-02  0.1513346E+00
          2   -1    0    0  502    0  0.00000000000E+00  0.00000000000E+00  0.38636915224E+02  0.38636915224E+02  0.00000000000E+00 0.  1.
         -2   -1    0    0    0  501 -0.00000000000E+00 -0.00000000000E+00 -0.16610713149E+02  0.16610713149E+02  0.00000000000E+00 0. -1.
          1    1    1    2  502    0  0.46512080916E+01  0.20909364488E+02 -0.37356830233E+01  0.21743748243E+02  0.00000000000E+00 0. -1.
         -1    1    1    2    0  501 -0.46512080916E+01 -0.20909364488E+02  0.25761885098E+02  0.33503880130E+02  0.00000000000E+00 0.  1.
</event>
<event>
 4    1  0.6629728E+001  0.3528783E+02  0.7546771E-02  0.1378551E+00
          2   -1    0    0  502    0  0.00000000000E+00  0.00000000000E+00  0.25834945147E+04  0.25834945147E+04  0.00000000000E+00 0. -1.
         -2   -1    0    0    0  501 -0.00000000000E+00 -0.00000000000E+00 -0.50498987503E+00  0.50498987503E+00  0.00000000000E+00 0.  1.
          1    1    1    2  502    0  0.10972508820E+02  0.33538561210E+02  0.15671956007E+04  0.15675928304E+04  0.00000000000E+00 0. -1.
         -1    1    1    2    0  501 -0.10972508820E+02 -0.33538561210E+02  0.10157939241E+04  0.10164066741E+04  0.00000000000E+00 0.  1.
</event>
<event>
 4    1  0.6629728E+001  0.2680005E+02  0.7546771E-02  0.1449627E+00
          2   -1    0    0  502    0  0.00000000000E+00  0.00000000000E+00  0.55338750157E+02  0.55338750157E+02  0.00000000000E+00 0.  1.
         -2   -1    0    0    0  501 -0.00000000000E+00 -0.00000000000E+00 -0.13710640523E+02  0.13710640523E+02  0.00000000000E+00 0. -1.
          1    1    1    2  502    0 -0.57791437842E+01  0.26169527184E+02  0.28789306560E+02  0.39332770410E+02  0.00000000000E+00 0.  1.
         -1    1    1    2    0  501  0.57791437842E+01 -0.26169527184E+02  0.12838803073E+02  0.29716620270E+02  0.00000000000E+00 0. -1.
</event>
<event>
 4    1  0.6629728E+001  0.3090716E+02  0.7546771E-02  0.1411873E+00
          2   -1    0    0  502    0  0.00000000000E+00  0.00000000000E+00  0.94240757207E+01  0.94240757207E+01  0.00000000000E+00 0.  1.
         -2   -1    0    0    0  501 -0.00000000000E+00 -0.00000000000E+00 -0.10589695195E+03  0.10589695195E+03  0.00000000000E+00 0. -1.
          1    1    1    2  502    0  0.20525466732E+02  0.23107532323E+02 -0.36305516897E+02  0.47679590935E+02  0.00000000000E+00 0.  1.
         -1    1    1    2    0  501 -0.20525466732E+02 -0.23107532323E+02 -0.60167359335E+02  0.67641436738E+02  0.00000000000E+00 0. -1.
</event>
<event>
 4    1  0.6629728E+001  0.2382107E+02  0.7546771E-02  0.1482438E+00
          2   -1    0    0  502    0  0.00000000000E+00  0.00000000000E+00  0.58317632308E+03  0.58317632308E+03  0.00000000000E+00 0. -1.
         -2   -1    0    0    0  501 -0.00000000000E+00 -0.00000000000E+00 -0.10447494533E+01  0.10447494533E+01  0.00000000000E+00 0.  1.
          1    1    1    2  502    0 -0.22990522691E+02 -0.62353183884E+01  0.21452654080E+03  0.21584503709E+03  0.00000000000E+00 0.  1.
         -1    1    1    2    0  501  0.22990522691E+02  0.62353183884E+01  0.36760503283E+03  0.36837603545E+03  0.00000000000E+00 0. -1.
</event>
<event>
 4    1  0.6629728E+001  0.2746066E+02  0.7546771E-02  0.1443035E+00
          2   -1    0    0  502    0  0.00000000000E+00  0.00000000000E+00  0.20363846122E+04  0.20363846122E+04  0.00000000000E+00 0.  1.
         -2   -1    0    0    0  501 -0.00000000000E+00 -0.00000000000E+00 -0.38854220212E+00  0.38854220212E+00  0.00000000000E+00 0. -1.
          1    1    1    2  502    0 -0.27193366044E+02 -0.38221272612E+01  0.12386190548E+04  0.12389234241E+04  0.00000000000E+00 0.  1.
         -1    1    1    2    0  501  0.27193366044E+02  0.38221272612E+01  0.79737701522E+03  0.79784973034E+03  0.00000000000E+00 0. -1.
</event>
<event>
 4    1  0.6629728E+001  0.5840057E+02  0.7546771E-02  0.1265366E+00
          2   -1    0    0  502    0  0.00000000000E+00  0.00000000000E+00  0.18349960785E+04  0.18349960785E+04  0.00000000000E+00 0.  1.
         -2   -1    0    0    0  501 -0.00000000000E+00 -0.00000000000E+00 -0.34291748406E+01  0.34291748406E+01  0.00000000000E+00 0. -1.
          1    1    1    2  502    0  0.17997850216E+02  0.55558110630E+02  0.15378584652E+04  0.15389669539E+04  0.00000000000E+00 0.  1.
         -1    1    1    2    0  501 -0.17997850216E+02 -0.55558110630E+02  0.29370843840E+03  0.29945829936E+03  0.00000000000E+00 0. -1.
</event>
<event>
 4    1  0.6629728E+001  0.2199381E+02  0.7546771E-02  0.1505535E+00
          2   -1    0    0  502    0  0.00000000000E+00  0.00000000000E+00  0.17910919287E+03  0.17910919287E+03  0.00000000000E+00 0.  1.
         -2   -1    0    0    0  501 -0.00000000000E+00 -0.00000000000E+00 -0.34633859541E+01  0.34633859541E+01  0.00000000000E+00 0. -1.
          1    1    1    2  502    0 -0.21745979921E+02 -0.32924275384E+01  0.44986202035E+02  0.50074804996E+02  0.00000000000E+00 0. -1.
         -1    1    1    2    0  501  0.21745979921E+02  0.32924275384E+01  0.13065960488E+03  0.13249777383E+03  0.00000000000E+00 0.  1.
</event>
<event>
 4    1  0.6629728E+001  0.2071184E+02  0.7546771E-02  0.1523419E+00
          2   -1    0    0  502    0  0.00000000000E+00  0.00000000000E+00  0.93350373245E+02  0.93350373245E+02  0.00000000000E+00 0.  1.
         -2   -1    0    0    0  501 -0.00000000000E+00 -0.00000000000E+00 -0.51529806022E+01  0.51529806022E+01  0.00000000000E+00 0. -1.
          1    1    1    2  502    0 -0.20243408305E+02  0.43800260767E+01  0.60300163472E+02  0.63758057711E+02  0.00000000000E+00 0. -1.
         -1    1    1    2    0  501  0.20243408305E+02 -0.43800260767E+01  0.27897229171E+02  0.34745296137E+02  0.00000000000E+00 0.  1.
</event>
<event>
 4    1  0.6629728E+001  0.2755117E+02  0.7546771E-02  0.1442149E+00
          2   -1    0    0  502    0  0.00000000000E+00  0.00000000000E+00  0.21793093768E+04  0.21793093768E+04  0.00000000000E+00 0.  1.
         -2   -1    0    0    0  501 -0.00000000000E+00 -0.00000000000E+00 -0.36586754062E+00  0.36586754062E+00  0.00000000000E+00 0. -1.
          1    1    1    2  502    0  0.22167134191E+02  0.16361077667E+02  0.85070151032E+03  0.85114753501E+03  0.00000000000E+00 0. -1.
         -1    1    1    2    0  501 -0.22167134191E+02 -0.16361077667E+02  0.13282419990E+04  0.13285277093E+04  0.00000000000E+00 0.  1.
</event>
<event>
 4    1  0.6629728E+001  0.2596548E+02  0.7546771E-02  0.1458286E+00
          2   -1    0    0  502    0  0.00000000000E+00  0.00000000000E+00  0.41440143537E+02  0.41440143537E+02  0.00000000000E+00 0.  1.
         -2   -1    0    0    0  501 -0.00000000000E+00 -0.00000000000E+00 -0.64605755420E+02  0.64605755420E+02  0.00000000000E+00 0. -1.
          1    1    1    2  502    0  0.21020502506E+02  0.15242860069E+02 -0.57446097934E+02  0.63041735989E+02  0.00000000000E+00 0. -1.
         -1    1    1    2    0  501 -0.21020502506E+02 -0.15242860069E+02  0.34280486051E+02  0.43004162968E+02  0.00000000000E+00 0.  1.
</event>
<event>
 4    1  0.6629728E+001  0.2459552E+02  0.7546771E-02  0.1473380E+00
          2   -1    0    0  502    0  0.00000000000E+00  0.00000000000E+00  0.23060436680E+02  0.23060436680E+02  0.00000000000E+00 0. -1.
         -2   -1    0    0    0  501 -0.00000000000E+00 -0.00000000000E+00 -0.29184555119E+02  0.29184555119E+02  0.00000000000E+00 0.  1.
          1    1    1    2  502    0  0.40364592487E+01  0.24262035855E+02  0.52456193530E+01  0.25148676098E+02  0.00000000000E+00 0.  1.
         -1    1    1    2    0  501 -0.40364592487E+01 -0.24262035855E+02 -0.11369737792E+02  0.27096315701E+02  0.00000000000E+00 0. -1.
</event>
<event>
 4    1  0.6629728E+001  0.2249700E+02  0.7546771E-02  0.1498913E+00
          2   -1    0    0  502    0  0.00000000000E+00  0.00000000000E+00  0.29213761612E+03  0.29213761612E+03  0.00000000000E+00 0. -1.
         -2   -1    0    0    0  501 -0.00000000000E+00 -0.00000000000E+00 -0.25994981129E+01  0.25994981129E+01  0.00000000000E+00 0.  1.
          1    1    1    2  502    0 -0.11738585144E+02 -0.19191678614E+02  0.59659030280E+02  0.63759821229E+02  0.00000000000E+00 0.  1.
         -1    1    1    2    0  501  0.11738585144E+02  0.19191678614E+02  0.22987908773E+03  0.23097729301E+03  0.00000000000E+00 0. -1.
</event>
<event>
 4    1  0.6629728E+001  0.2296052E+02  0.7546771E-02  0.1492994E+00
          2   -1    0    0  502    0  0.00000000000E+00  0.00000000000E+00  0.23232869525E+02  0.23232869525E+02  0.00000000000E+00 0. -1.
         -2   -1    0    0    0  501 -0.00000000000E+00 -0.00000000000E+00 -0.23545918156E+02  0.23545918156E+02  0.00000000000E+00 0.  1.
          1    1    1    2  502    0  0.21968067148E+02  0.66775388493E+01 -0.46123782453E+01  0.23419212890E+02  0.00000000000E+00 0.  1.
         -1    1    1    2    0  501 -0.21968067148E+02 -0.66775388493E+01  0.42993296138E+01  0.23359574791E+02  0.00000000000E+00 0. -1.
</event>
<event>
 4    1  0.6629728E+001  0.2085809E+02  0.7546771E-02  0.1521301E+00
          2   -1    0    0  502    0  0.00000000000E+00  0.00000000000E+00  0.67838175516E+02  0.67838175516E+02  0.00000000000E+00 0.  1.
         -2   -1    0    0    0  501 -0.00000000000E+00 -0.00000000000E+00 -0.67286218185E+01  0.67286218185E+01  0.00000000000E+00 0. -1.
          1    1    1    2  502    0 -0.87704894484E+01 -0.18924547932E+02  0.22482498191E+02  0.30667942945E+02  0.00000000000E+00 0. -1.
         -1    1    1    2    0  501  0.87704894484E+01  0.18924547932E+02  0.38627055507E+02  0.43898854389E+02  0.00000000000E+00 0.  1.
</event>
<event>
 4    1  0.6629728E+001  0.3106671E+02  0.7546771E-02  0.1410548E+00
          2   -1    0    0  502    0  0.00000000000E+00  0.00000000000E+00  0.34306475597E+03  0.34306475597E+03  0.00000000000E+00 0. -1.
         -2   -1    0    0    0  501 -0.00000000000E+00 -0.00000000000E+00 -0.28482861047E+01  0.28482861047E+01  0.00000000000E+00 0.  1.
          1    1    1    2  502    0 -0.25393656895E+02 -0.17896994445E+02  0.15093644306E+03  0.15410045446E+03  0.00000000000E+00 0.  1.
         -1    1    1    2    0  501  0.25393656895E+02  0.17896994445E+02  0.18928002680E+03  0.19181258761E+03  0.00000000000E+00 0. -1.
</event>
<event>
 4    1  0.6629728E+001  0.2810305E+02  0.7546771E-02  0.1436832E+00
          2   -1    0    0  502    0  0.00000000000E+00  0.00000000000E+00  0.64350068207E+03  0.64350068207E+03  0.00000000000E+00 0.  1.
         -2   -1    0    0    0  501 -0.00000000000E+00 -0.00000000000E+00 -0.14687278467E+01  0.14687278467E+01  0.00000000000E+00 0. -1.
          1    1    1    2  502    0 -0.69833194073E+01 -0.27221584089E+02  0.19027432703E+03  0.19233850607E+03  0.00000000000E+00 0. -1.
         -1    1    1    2    0  501  0.69833194073E+01  0.27221584089E+02  0.45175762719E+03  0.45263090385E+03  0.00000000000E+00 0.  1.
</event>
<event>
 4    1  0.6629728E+001  0.2360931E+02  0.7546771E-02  0.1484986E+00
          2   -1    0    0  502    0  0.00000000000E+00  0.00000000000E+00  0.17220599336E+02  0.17220599336E+02  0.00000000000E+00 0.  1.
         -2   -1    0    0    0  501 -0.00000000000E+00 -0.00000000000E+00 -0.33511234304E+02  0.33511234304E+02  0.00000000000E+00 0. -1.
          1    1    1    2  502    0  0.34505392450E+01  0.23355793614E+02 -0.12830109952E+02  0.26870263076E+02  0.00000000000E+00 0. -1.
         -1    1    1    2    0  501 -0.34505392450E+01 -0.23355793614E+02 -0.34605250155E+01  0.23861570564E+02  0.00000000000E+00 0.  1.
</event>
<event>
 4    1  0.6629728E+001  0.2216356E+02  0.7546771E-02  0.1503277E+00
          2   -1    0    0  502    0  0.00000000000E+00  0.00000000000E+00  0.52515001596E+01  0.52515001596E+01  0.00000000000E+00 0.  1.
         -2   -1    0    0    0  501 -0.00000000000E+00 -0.00000000000E+00 -0.20346507626E+03  0.20346507626E+03  0.00000000000E+00 0. -1.
          1    1    1    2  502    0 -0.20964491943E+02  0.71911968912E+01 -0.17581311423E+03  0.17720461160E+03  0.00000000000E+00 0. -1.
         -1    1    1    2    0  501  0.20964491943E+02 -0.71911968912E+01 -0.22400461871E+02  0.31511964826E+02  0.00000000000E+00 0.  1.
</event>
<event>
 4    1  0.6629728E+001  0.6369248E+02  0.7546771E-02  0.1247778E+00
          2   -1    0    0  502    0  0.00000000000E+00  0.00000000000E+00  0.99082244122E+03  0.99082244122E+03  0.00000000000E+00 0. -1.
         -2   -1    0    0    0  501 -0.00000000000E+00 -0.00000000000E+00 -0.56922160703E+01  0.56922160703E+01  0.00000000000E+00 0.  1.
          1    1    1    2  502    0 -0.52818376024E+02  0.35594255170E+02  0.22857421248E+03  0.23728232647E+03  0.00000000000E+00 0.  1.
         -1    1    1    2    0  501  0.52818376024E+02 -0.35594255170E+02  0.75655601267E+03  0.75923233081E+03  0.00000000000E+00 0. -1.
</event>
<event>
 4    1  0.6629728E+001  0.2767504E+02  0.7546771E-02  0.1440943E+00
          2   -1    0    0  502    0  0.00000000000E+00  0.00000000000E+00  0.71556743709E+03  0.71556743709E+03  0.00000000000E+00 0. -1.
         -2   -1    0    0    0  501 -0.00000000000E+00 -0.00000000000E+00 -0.44708617153E+01  0.44708617153E+01  0.00000000000E+00 0.  1.
          1    1    1    2  502    0 -0.23085896698E+02 -0.15262669561E+02  0.66952837900E+03  0.67010011043E+03  0.00000000000E+00 0. -1.
         -1    1    1    2    0  501  0.23085896698E+02  0.15262669561E+02  0.41568196368E+02  0.49938188371E+02  0.00000000000E+00 0.  1.
</event>
<event>
 4    1  0.6629728E+001  0.2469735E+02  0.7546771E-02  0.1472218E+00
          2   -1    0    0  502    0  0.00000000000E+00  0.00000000000E+00  0.32368319771E+03  0.32368319771E+03  0.00000000000E+00 0. -1.
         -2   -1    0    0    0  501 -0.00000000000E+00 -0.00000000000E+00 -0.18944562086E+01  0.18944562086E+01  0.00000000000E+00 0.  1.
          1    1    1    2  502    0  0.57248523998E+01  0.24024676977E+02  0.14905296877E+03  0.15108522938E+03  0.00000000000E+00 0.  1.
         -1    1    1    2    0  501 -0.57248523998E+01 -0.24024676977E+02  0.17273577273E+03  0.17449242454E+03  0.00000000000E+00 0. -1.
</event>
<event>
 4    1  0.6629728E+001  0.2473949E+02  0.7546771E-02  0.1471739E+00
          2   -1    0    0  502    0  0.00000000000E+00  0.00000000000E+00  0.11523699406E+04  0.11523699406E+04  0.00000000000E+00 0. -1.
         -2   -1    0    0    0  501 -0.00000000000E+00 -0.00000000000E+00 -0.56794792051E+00  0.56794792051E+00  0.00000000000E+00 0.  1.
          1    1    1    2  502    0 -0.14799194792E+02  0.19824890281E+02  0.42909893149E+03  0.42981151153E+03  0.00000000000E+00 0.  1.
         -1    1    1    2    0  501  0.14799194792E+02 -0.19824890281E+02  0.72270306122E+03  0.72312637702E+03  0.00000000000E+00 0. -1.
</event>
<event>
 4    1  0.6629728E+001  0.2171583E+02  0.7546771E-02  0.1509285E+00
          2   -1    0    0  502    0  0.00000000000E+00  0.00000000000E+00  0.19891549498E+03  0.19891549498E+03  0.00000000000E+00 0. -1.
         -2   -1    0    0    0  501 -0.00000000000E+00 -0.00000000000E+00 -0.23739899351E+01  0.23739899351E+01  0.00000000000E+00 0.  1.
          1    1    1    2  502    0 -0.11580870035E+01 -0.21684931504E+02  0.10199313705E+03  0.10427932406E+03  0.00000000000E+00 0.  1.
         -1    1    1    2    0  501  0.11580870035E+01  0.21684931504E+02  0.94548367993E+02  0.97010160860E+02  0.00000000000E+00 0. -1.
</event>
<event>
 4    1  0.6629728E+001  0.2058885E+02  0.7546771E-02  0.1525217E+00
          2   -1    0    0  502    0  0.00000000000E+00  0.00000000000E+00  0.87609069916E+03  0.87609069916E+03  0.00000000000E+00 0. -1.
         -2   -1    0    0    0  501 -0.00000000000E+00 -0.00000000000E+00 -0.52840492182E+00  0.52840492182E+00  0.00000000000E+00 0.  1.
          1    1    1    2  502    0 -0.92546875834E+01  0.18391616811E+02  0.31051254263E+03  0.31119437646E+03  0.00000000000E+00 0.  1.
         -1    1    1    2    0  501  0.92546875834E+01 -0.18391616811E+02  0.56504975161E+03  0.56542472762E+03  0.00000000000E+00 0. -1.
</event>
<event>
 4    1  0.6629728E+001  0.2324596E+02  0.7546771E-02  0.1489433E+00
          2   -1    0    0  502    0  0.00000000000E+00  0.00000000000E+00  0.21420057855E+01  0.21420057855E+01  0.00000000000E+00 0. -1.
         -2   -1    0    0    0  501 -0.00000000000E+00 -0.00000000000E+00 -0.25227830503E+03  0.25227830503E+03  0.00000000000E+00 0.  1.
          1    1    1    2  502    0  0.90943100515E+01 -0.21393176836E+02 -0.12552920659E+03  0.12766344895E+03  0.00000000000E+00 0.  1.
         -1    1    1    2    0  501 -0.90943100515E+01  0.21393176836E+02 -0.12460709265E+03  0.12675686187E+03  0.00000000000E+00 0. -1.
</event>
<event>
 4    1  0.6629728E+001  0.2188202E+02  0.7546771E-02  0.1507035E+00
          2   -1    0    0  502    0  0.00000000000E+00  0.00000000000E+00  0.22676810602E+03  0.22676810602E+03  0.00000000000E+00 0. -1.
         -2   -1    0    0    0  501 -0.00000000000E+00 -0.00000000000E+00 -0.10259774190E+02  0.10259774190E+02  0.00000000000E+00 0.  1.
          1    1    1    2  502    0  0.14394255284E+02  0.16481151602E+02  0.26373409447E+01  0.22040383630E+02  0.00000000000E+00 0.  1.
         -1    1    1    2    0  501 -0.14394255284E+02 -0.16481151602E+02  0.21387099088E+03  0.21498749658E+03  0.00000000000E+00 0. -1.
</event>
<event>
 4    1  0.6629728E+001  0.3707156E+02  0.7546771E-02  0.1366557E+00
          2   -1    0    0  502    0  0.00000000000E+00  0.00000000000E+00  0.88916330622E+03  0.88916330622E+03  0.00000000000E+00 0. -1.
         -2   -1    0    0    0  501 -0.00000000000E+00 -0.00000000000E+00 -0.17743539501E+01  0.17743539501E+01  0.00000000000E+00 0.  1.
          1    1    1    2  502    0  0.35857042340E+02 -0.94113388766E+01  0.60363953946E+03  0.60477681370E+03  0.00000000000E+00 0.  1.
         -1    1    1    2    0  501 -0.35857042340E+02  0.94113388766E+01  0.28374941281E+03  0.28616084647E+03  0.00000000000E+00 0. -1.
</event>
<event>
 4    1  0.6629728E+001  0.3249905E+02  0.7546771E-02  0.1399053E+00
          2   -1    0    0  502    0  0.00000000000E+00  0.00000000000E+00  0.27473917919E+01  0.27473917919E+01  0.00000000000E+00 0.  1.
         -2   -1    0    0    0  501 -0.00000000000E+00 -0.00000000000E+00 -0.43946169419E+03  0.43946169419E+03  0.00000000000E+00 0. -1.
          1    1    1    2  502    0 -0.91235505573E+01 -0.31192136734E+02 -0.14011675543E+03  0.14383634353E+03  0.00000000000E+00 0.  1.
         -1    1    1    2    0  501  0.91235505573E+01  0.31192136734E+02 -0.29659754697E+03  0.29837274245E+03  0.00000000000E+00 0. -1.
</event>
<event>
 4    1  0.6629728E+001  0.2902260E+02  0.7546771E-02  0.1428284E+00
          2   -1    0    0  502    0  0.00000000000E+00  0.00000000000E+00  0.30087669851E+02  0.30087669851E+02  0.00000000000E+00 0.  1.
         -2   -1    0    0    0  501 -0.00000000000E+00 -0.00000000000E+00 -0.35399596766E+02  0.35399596766E+02  0.00000000000E+00 0. -1.
          1    1    1    2  502    0  0.22951802853E+02  0.17763047775E+02  0.12319207401E+02  0.31528938952E+02  0.00000000000E+00 0.  1.
         -1    1    1    2    0  501 -0.22951802853E+02 -0.17763047775E+02 -0.17631134316E+02  0.33958327664E+02  0.00000000000E+00 0. -1.
</event>
<event>
 4    1  0.6629728E+001  0.2547736E+02  0.7546771E-02  0.1463533E+00
          2   -1    0    0  502    0  0.00000000000E+00  0.00000000000E+00  0.28730183585E+03  0.28730183585E+03  0.00000000000E+00 0. -1.
         -2   -1    0    0    0  501 -0.00000000000E+00 -0.00000000000E+00 -0.23099045776E+01  0.23099045776E+01  0.00000000000E+00 0.  1.
          1    1    1    2  502    0  0.15115395092E+02 -0.20509036238E+02  0.12105900463E+03  0.12371086589E+03  0.00000000000E+00 0.  1.
         -1    1    1    2    0  501 -0.15115395092E+02  0.20509036238E+02  0.16393292664E+03  0.16590087454E+03  0.00000000000E+00 0. -1.
</event>
<event>
 4    1  0.6629728E+001  0.3434107E+02  0.7546771E-02  0.1385256E+00
          2   -1    0    0  502    0  0.00000000000E+00  0.00000000000E+00  0.10712968993E+04  0.10712968993E+04  0.00000000000E+00 0. -1.
         -2   -1    0    0    0  501 -0.00000000000E+00 -0.00000000000E+00 -0.11011720506E+01  0.11011720506E+01  0.00000000000E+00 0.  1.
          1    1    1    2  502    0  0.22997877478E+02 -0.25503077642E+02  0.52556507914E+03  0.52668582832E+03  0.00000000000E+00 0. -1.
         -1    1    1    2    0  501 -0.22997877478E+02  0.25503077642E+02  0.54463064813E+03  0.54571224305E+03  0.00000000000E+00 0.  1.
</event>
<event>
 4    1  0.6629728E+001  0.4827910E+02  0.7546771E-02  0.1305811E+00
          2   -1    0    0  502    0  0.00000000000E+00  0.00000000000E+00  0.11923581871E+04  0.11923581871E+04  0.00000000000E+00 0.  1.
         -2   -1    0    0    0  501 -0.00000000000E+00 -0.00000000000E+00 -0.19648212956E+01  0.19648212956E+01  0.00000000000E+00 0. -1.
          1    1    1    2  502    0  0.18951037315E+02 -0.44404158894E+02  0.63775587478E+03  0.63958066494E+03  0.00000000000E+00 0.  1.
         -1    1    1    2    0  501 -0.18951037315E+02  0.44404158894E+02  0.55263749102E+03  0.55474234346E+03  0.00000000000E+00 0. -1.
</event>
<event>
 4    1  0.6629728E+001  0.4554004E+02  0.7546771E-02  0.1318761E+00
          2   -1    0    0  502    0  0.00000000000E+00  0.00000000000E+00  0.63701262740E+02  0.63701262740E+02  0.00000000000E+00 0.  1.
         -2   -1    0    0    0  501 -0.00000000000E+00 -0.00000000000E+00 -0.45125408048E+02  0.45125408048E+02  0.00000000000E+00 0. -1.
          1    1    1    2  502    0  0.45188881596E+02 -0.56445210702E+01  0.38005125554E+02  0.59315134716E+02  0.00000000000E+00 0.  1.
         -1    1    1    2    0  501 -0.45188881596E+02  0.56445210702E+01 -0.19429270862E+02  0.49511536072E+02  0.00000000000E+00 0. -1.
</event>
<event>
 4    1  0.6629728E+001  0.2333391E+02  0.7546771E-02  0.1488347E+00
          2   -1    0    0  502    0  0.00000000000E+00  0.00000000000E+00  0.14147852634E+04  0.14147852634E+04  0.00000000000E+00 0.  1.
         -2   -1    0    0    0  501 -0.00000000000E+00 -0.00000000000E+00 -0.42831892893E+00  0.42831892893E+00  0.00000000000E+00 0. -1.
          1    1    1    2  502    0 -0.39802335834E+01  0.22991935468E+02  0.48173963763E+03  0.48230441613E+03  0.00000000000E+00 0. -1.
         -1    1    1    2    0  501  0.39802335834E+01 -0.22991935468E+02  0.93261730688E+03  0.93290916623E+03  0.00000000000E+00 0.  1.
</event>
<event>
 4    1  0.6629728E+001  0.2188360E+02  0.7546771E-02  0.1507014E+00
          2   -1    0    0  502    0  0.00000000000E+00  0.00000000000E+00  0.42154608328E+01  0.42154608328E+01  0.00000000000E+00 0.  1.
         -2   -1    0    0    0  501 -0.00000000000E+00 -0.00000000000E+00 -0.19962272583E+03  0.19962272583E+03  0.00000000000E+00 0. -1.
          1    1    1    2  502    0  0.32042239485E+00 -0.21881250556E+02 -0.30800275265E+02  0.37782916150E+02  0.00000000000E+00 0.  1.
         -1    1    1    2    0  501 -0.32042239485E+00  0.21881250556E+02 -0.16460698974E+03  0.16605527052E+03  0.00000000000E+00 0. -1.
</event>
<event>
 4    1  0.6629728E+001  0.3251483E+02  0.7546771E-02  0.1398930E+00
          2   -1    0    0  502    0  0.00000000000E+00  0.00000000000E+00  0.94748276873E+01  0.94748276873E+01  0.00000000000E+00 0. -1.
         -2   -1    0    0    0  501 -0.00000000000E+00 -0.00000000000E+00 -0.14754129203E+03  0.14754129203E+03  0.00000000000E+00 0.  1.
          1    1    1    2  502    0  0.28269783897E+02  0.16063417377E+02 -0.30274733293E+02  0.44427171138E+02  0.00000000000E+00 0. -1.
         -1    1    1    2    0  501 -0.28269783897E+02 -0.16063417377E+02 -0.10779173105E+03  0.11258894858E+03  0.00000000000E+00 0.  1.
</event>
<event>
 4    1  0.6629728E+001  0.5879893E+02  0.7546771E-02  0.1263969E+00
          2   -1    0    0  502    0  0.00000000000E+00  0.00000000000E+00  0.11978381668E+02  0.11978381668E+02  0.00000000000E+00 0. -1.
         -2   -1    0    0    0  501 -0.00000000000E+00 -0.00000000000E+00 -0.29918273928E+03  0.29918273928E+03  0.00000000000E+00 0.  1.
          1    1    1    2  502    0 -0.55308429146E+02 -0.19957257790E+02 -0.17282214304E+03  0.18255083565E+03  0.00000000000E+00 0.  1.
         -1    1    1    2    0  501  0.55308429146E+02  0.19957257790E+02 -0.11438221458E+03  0.12861028530E+03  0.00000000000E+00 0. -1.
</event>
<event>
 4    1  0.6629728E+001  0.2805574E+02  0.7546771E-02  0.1437282E+00
          2   -1    0    0  502    0  0.00000000000E+00  0.00000000000E+00  0.23959223493E+02  0.23959223493E+02  0.00000000000E+00 0.  1.
         -2   -1    0    0    0  501 -0.00000000000E+00 -0.00000000000E+00 -0.36595510732E+02  0.36595510732E+02  0.00000000000E+00 0. -1.
          1    1    1    2  502    0 -0.26296071767E+02  0.97796234135E+01  0.33647456834E+01  0.28256785698E+02  0.00000000000E+00 0. -1.
         -1    1    1    2    0  501  0.26296071767E+02 -0.97796234135E+01 -0.16001032922E+02  0.32297948527E+02  0.00000000000E+00 0.  1.
</event>
<event>
 4    1  0.6629728E+001  0.2025531E+02  0.7546771E-02  0.1530168E+00
          2   -1    0    0  502    0  0.00000000000E+00  0.00000000000E+00  0.57067692966E+01  0.57067692966E+01  0.00000000000E+00 0.  1.
         -2   -1    0    0    0  501 -0.00000000000E+00 -0.00000000000E+00 -0.82055488816E+02  0.82055488816E+02  0.00000000000E+00 0. -1.
          1    1    1    2  502    0 -0.71609582010E+01 -0.18947247049E+02 -0.53616990587E+02  0.57315435727E+02  0.00000000000E+00 0. -1.
         -1    1    1    2    0  501  0.71609582010E+01  0.18947247049E+02 -0.22731728933E+02  0.30446822385E+02  0.00000000000E+00 0.  1.
</event>
<event>
 4    1  0.6629728E+001  0.2903272E+02  0.7546771E-02  0.1428192E+00
          2   -1    0    0  502    0  0.00000000000E+00  0.00000000000E+00  0.11037958430E+02  0.11037958430E+02  0.00000000000E+00 0.  1.
         -2   -1    0    0    0  501 -0.00000000000E+00 -0.00000000000E+00 -0.84747458175E+02  0.84747458175E+02  0.00000000000E+00 0. -1.
          1    1    1    2  502    0  0.22494853724E+02  0.18354303421E+02 -0.51918270235E+02  0.59484499513E+02  0.00000000000E+00 0.  1.
         -1    1    1    2    0  501 -0.22494853724E+02 -0.18354303421E+02 -0.21791229511E+02  0.36300917092E+02  0.00000000000E+00 0. -1.
</event>
<event>
 4    1  0.6629728E+001  0.2319059E+02  0.7546771E-02  0.1490119E+00
          2   -1    0    0  502    0  0.00000000000E+00  0.00000000000E+00  0.72670240359E+03  0.72670240359E+03  0.00000000000E+00 0.  1.
         -2   -1    0    0    0  501 -0.00000000000E+00 -0.00000000000E+00 -0.10651902364E+01  0.10651902364E+01  0.00000000000E+00 0. -1.
          1    1    1    2  502    0  0.13311776650E+02  0.18989477441E+02  0.56385633153E+03  0.56433302780E+03  0.00000000000E+00 0.  1.
         -1    1    1    2    0  501 -0.13311776650E+02 -0.18989477441E+02  0.16178088182E+03  0.16343456603E+03  0.00000000000E+00 0. -1.
</event>
<event>
 4    1  0.6629728E+001  0.2332275E+02  0.7546771E-02  0.1488485E+00
          2   -1    0    0  502    0  0.00000000000E+00  0.00000000000E+00  0.11118515092E+03  0.11118515092E+03  0.00000000000E+00 0.  1.
         -2   -1    0    0    0  501 -0.00000000000E+00 -0.00000000000E+00 -0.49186330671E+01  0.49186330671E+01  0.00000000000E+00 0. -1.
          1    1    1    2  502    0  0.14922561625E+02 -0.17923939858E+02  0.48885176166E+02  0.54163741694E+02  0.00000000000E+00 0.  1.
         -1    1    1    2    0  501 -0.14922561625E+02  0.17923939858E+02  0.57381341686E+02  0.61940042292E+02  0.00000000000E+00 0. -1.
</event>
<event>
 4    1  0.6629728E+001  0.2217948E+02  0.7546771E-02  0.1503067E+00
          2   -1    0    0  502    0  0.00000000000E+00  0.00000000000E+00  0.66502458331E+01  0.66502458331E+01  0.00000000000E+00 0.  1.
         -2   -1    0    0    0  501 -0.00000000000E+00 -0.00000000000E+00 -0.13309630007E+03  0.13309630007E+03  0.00000000000E+00 0. -1.
          1    1    1    2  502    0 -0.18070643143E+02  0.12860054223E+02 -0.10979371723E+03  0.11201155959E+03  0.00000000000E+00 0. -1.
         -1    1    1    2    0  501  0.18070643143E+02 -0.12860054223E+02 -0.16652337013E+02  0.27734986321E+02  0.00000000000E+00 0.  1.
</event>
<event>
 4    1  0.6629728E+001  0.3179367E+02  0.7546771E-02  0.1404624E+00
          2   -1    0    0  502    0  0.00000000000E+00  0.00000000000E+00  0.39275125017E+01  0.39275125017E+01  0.00000000000E+00 0. -1.
         -2   -1    0    0    0  501 -0.00000000000E+00 -0.00000000000E+00 -0.26916731346E+03  0.26916731346E+03  0.00000000000E+00 0.  1.
          1    1    1    2  502    0 -0.19252671542E+02  0.25301622005E+02 -0.16120241201E+03  0.16430780589E+03  0.00000000000E+00 0.  1.
         -1    1    1    2    0  501  0.19252671542E+02 -0.25301622005E+02 -0.10403738895E+03  0.10878702008E+03  0.00000000000E+00 0. -1.
</event>
<event>
 4    1  0.6629728E+001  0.2305097E+02  0.7546771E-02  0.1491859E+00
          2   -1    0    0  502    0  0.00000000000E+00  0.00000000000E+00  0.53935923493E+01  0.53935923493E+01  0.00000000000E+00 0. -1.
         -2   -1    0    0    0  501 -0.00000000000E+00 -0.00000000000E+00 -0.12354385569E+03  0.12354385569E+03  0.00000000000E+00 0.  1.
          1    1    1    2  502    0  0.19994606625E+02  0.11470096131E+02 -0.30057445612E+02  0.37878720095E+02  0.00000000000E+00 0. -1.
         -1    1    1    2    0  501 -0.19994606625E+02 -0.11470096131E+02 -0.88092817728E+02  0.91058727943E+02  0.00000000000E+00 0.  1.
</event>
<event>
 4    1  0.6629728E+001  0.3290206E+02  0.7546771E-02  0.1395944E+00
          2   -1    0    0  502    0  0.00000000000E+00  0.00000000000E+00  0.12390675515E+04  0.12390675515E+04  0.00000000000E+00 0.  1.
         -2   -1    0    0    0  501 -0.00000000000E+00 -0.00000000000E+00 -0.10689729981E+01  0.10689729981E+01  0.00000000000E+00 0. -1.
          1    1    1    2  502    0  0.32901582929E+02  0.17633827894E+00  0.88403379419E+03  0.88464585825E+03  0.00000000000E+00 0.  1.
         -1    1    1    2    0  501 -0.32901582929E+02 -0.17633827894E+00  0.35396478432E+03  0.35549066625E+03  0.00000000000E+00 0. -1.
</event>
<event>
 4    1  0.6629728E+001  0.2726829E+02  0.7546771E-02  0.1444932E+00
          2   -1    0    0  502    0  0.00000000000E+00  0.00000000000E+00  0.25650782194E+04  0.25650782194E+04  0.00000000000E+00 0.  1.
         -2   -1    0    0    0  501 -0.00000000000E+00 -0.00000000000E+00 -0.38229355814E+00  0.38229355814E+00  0.00000000000E+00 0. -1.
          1    1    1    2  502    0  0.22093205212E+02  0.15982807855E+02  0.65166763488E+03  0.65223789081E+03  0.00000000000E+00 0. -1.
         -1    1    1    2    0  501 -0.22093205212E+02 -0.15982807855E+02  0.19130282909E+04  0.19132226221E+04  0.00000000000E+00 0.  1.
</event>
<event>
 4    1  0.6629728E+001  0.2529669E+02  0.7546771E-02  0.1465511E+00
          2   -1    0    0  502    0  0.00000000000E+00  0.00000000000E+00  0.43089550244E+01  0.43089550244E+01  0.00000000000E+00 0.  1.
         -2   -1    0    0    0  501 -0.00000000000E+00 -0.00000000000E+00 -0.19189601334E+03  0.19189601334E+03  0.00000000000E+00 0. -1.
          1    1    1    2  502    0 -0.22092782980E+02 -0.12321995743E+02 -0.14044036793E+03  0.14270045404E+03  0.00000000000E+00 0. -1.
         -1    1    1    2    0  501  0.22092782980E+02  0.12321995743E+02 -0.47146690394E+02  0.53504514333E+02  0.00000000000E+00 0.  1.
</event>
<event>
 4    1  0.6629728E+001  0.2109634E+02  0.7546771E-02  0.1517894E+00
          2   -1    0    0  502    0  0.00000000000E+00  0.00000000000E+00  0.13278122372E+02  0.13278122372E+02  0.00000000000E+00 0.  1.
         -2   -1    0    0    0  501 -0.00000000000E+00 -0.00000000000E+00 -0.38778528644E+02  0.38778528644E+02  0.00000000000E+00 0. -1.
          1    1    1    2  502    0 -0.13814182816E+02  0.15944405140E+02 -0.22336845261E+02  0.30724426087E+02  0.00000000000E+00 0. -1.
         -1    1    1    2    0  501  0.13814182816E+02 -0.15944405140E+02 -0.31635610116E+01  0.21332224929E+02  0.00000000000E+00 0.  1.
</event>
<event>
 4    1  0.6629728E+001  0.2017275E+02  0.7546771E-02  0.1531411E+00
          2   -1    0    0  502    0  0.00000000000E+00  0.00000000000E+00  0.13228689271E+04  0.13228689271E+04  0.00000000000E+00 0.  1.
         -2   -1    0    0    0  501 -0.00000000000E+00 -0.00000000000E+00 -0.39186869041E+00  0.39186869041E+00  0.00000000000E+00 0. -1.
          1    1    1    2  502    0 -0.17921394085E+02  0.92608659339E+01  0.96801960749E+03  0.96822977670E+03  0.00000000000E+00 0.  1.
         -1    1    1    2    0  501  0.17921394085E+02 -0.92608659339E+01  0.35445745090E+03  0.35503101907E+03  0.00000000000E+00 0. -1.
</event>
<event>
 4    1  0.6629728E+001  0.2653068E+02  0.7546771E-02  0.1452380E+00
          2   -1    0    0  502    0  0.00000000000E+00  0.00000000000E+00  0.22073070274E+03  0.22073070274E+03  0.00000000000E+00 0.  1.
         -2   -1    0    0    0  501 -0.00000000000E+00 -0.00000000000E+00 -0.53948231381E+01  0.53948231381E+01  0.00000000000E+00 0. -1.
          1    1    1    2  502    0 -0.43304593369E+01  0.26174878572E+02  0.35369141585E+02  0.44213723241E+02  0.00000000000E+00 0. -1.
         -1    1    1    2    0  501  0.43304593369E+01 -0.26174878572E+02  0.17996673801E+03  0.18191180263E+03  0.00000000000E+00 0.  1.
</event>
<event>
 4    1  0.6629728E+001  0.2956831E+02  0.7546771E-02  0.1423385E+00
          2   -1    0    0  502    0  0.00000000000E+00  0.00000000000E+00  0.40011676684E+03  0.40011676684E+03  0.00000000000E+00 0.  1.
         -2   -1    0    0    0  501 -0.00000000000E+00 -0.00000000000E+00 -0.26361350956E+01  0.26361350956E+01  0.00000000000E+00 0. -1.
          1    1    1    2  502    0 -0.27981705772E+02  0.95555910941E+01  0.28203974271E+03  0.28358543976E+03  0.00000000000E+00 0.  1.
         -1    1    1    2    0  501  0.27981705772E+02 -0.95555910941E+01  0.11544088904E+03  0.11916746217E+03  0.00000000000E+00 0. -1.
</event>
<event>
 4    1  0.6629728E+001  0.2945666E+02  0.7546771E-02  0.1424378E+00
          2   -1    0    0  502    0  0.00000000000E+00  0.00000000000E+00  0.71440169477E+02  0.71440169477E+02  0.00000000000E+00 0. -1.
         -2   -1    0    0    0  501 -0.00000000000E+00 -0.00000000000E+00 -0.15785930277E+02  0.15785930277E+02  0.00000000000E+00 0.  1.
          1    1    1    2  502    0  0.26902066845E+02  0.11998906451E+02  0.48770287837E+02  0.56975748633E+02  0.00000000000E+00 0. -1.
         -1    1    1    2    0  501 -0.26902066845E+02 -0.11998906451E+02  0.68839513626E+01  0.30250351121E+02  0.00000000000E+00 0.  1.
</event>
<event>
 4    1  0.6629728E+001  0.3428562E+02  0.7546771E-02  0.1385656E+00
          2   -1    0    0  502    0  0.00000000000E+00  0.00000000000E+00  0.40072793149E+03  0.40072793149E+03  0.00000000000E+00 0.  1.
         -2   -1    0    0    0  501 -0.00000000000E+00 -0.00000000000E+00 -0.29423320711E+01  0.29423320711E+01  0.00000000000E+00 0. -1.
          1    1    1    2  502    0  0.28674561148E+02 -0.18795572191E+02  0.18778571791E+03  0.19088996789E+03  0.00000000000E+00 0. -1.
         -1    1    1    2    0  501 -0.28674561148E+02  0.18795572191E+02  0.20999988151E+03  0.21278029567E+03  0.00000000000E+00 0.  1.
</event>
<event>
 4    1  0.6629728E+001  0.2523853E+02  0.7546771E-02  0.1466152E+00
          2   -1    0    0  502    0  0.00000000000E+00  0.00000000000E+00  0.66526550897E+03  0.66526550897E+03  0.00000000000E+00 0.  1.
         -2   -1    0    0    0  501 -0.00000000000E+00 -0.00000000000E+00 -0.11257201180E+01  0.11257201180E+01  0.00000000000E+00 0. -1.
          1    1    1    2  502    0 -0.21501858732E+02 -0.13215661867E+02  0.46087666800E+03  0.46156720719E+03  0.00000000000E+00 0.  1.
         -1    1    1    2    0  501  0.21501858732E+02  0.13215661867E+02  0.20326312085E+03  0.20482402190E+03  0.00000000000E+00 0. -1.
</event>
<event>
 4    1  0.6629728E+001  0.2037634E+02  0.7546771E-02  0.1528358E+00
          2   -1    0    0  502    0  0.00000000000E+00  0.00000000000E+00  0.21995418871E+02  0.21995418871E+02  0.00000000000E+00 0.  1.
         -2   -1    0    0    0  501 -0.00000000000E+00 -0.00000000000E+00 -0.20951267803E+02  0.20951267803E+02  0.00000000000E+00 0. -1.
          1    1    1    2  502    0 -0.18130478541E+02  0.92995213807E+01 -0.62354057499E+01  0.21309050539E+02  0.00000000000E+00 0. -1.
         -1    1    1    2    0  501  0.18130478541E+02 -0.92995213807E+01  0.72795568176E+01  0.21637636134E+02  0.00000000000E+00 0.  1.
</event>
<event>
 4    1  0.6629728E+001  0.2349664E+02  0.7546771E-02  0.1486354E+00
          2   -1    0    0  502    0  0.00000000000E+00  0.00000000000E+00  0.13796551576E+03  0.13796551576E+03  0.00000000000E+00 0.  1.
         -2   -1    0    0    0  501 -0.00000000000E+00 -0.00000000000E+00 -0.68067460661E+01  0.68067460661E+01  0.00000000000E+00 0. -1.
          1    1    1    2  502    0 -0.22631891315E+02 -0.63158075164E+01  0.11204783755E+03  0.11448497643E+03  0.00000000000E+00 0.  1.
         -1    1    1    2    0  501  0.22631891315E+02  0.63158075164E+01  0.19110932142E+02  0.30287285392E+02  0.00000000000E+00 0. -1.
</event>
<event>
 4    1  0.6629728E+001  0.2017317E+02  0.7546771E-02  0.1531405E+00
          2   -1    0    0  502    0  0.00000000000E+00  0.00000000000E+00  0.40931456522E+03  0.40931456522E+03  0.00000000000E+00 0.  1.
         -2   -1    0    0    0  501 -0.00000000000E+00 -0.00000000000E+00 -0.10430709685E+01  0.10430709685E+01  0.00000000000E+00 0. -1.
          1    1    1    2  502    0  0.40405531304E+01 -0.19764379167E+02  0.15974167322E+03  0.16101043108E+03  0.00000000000E+00 0.  1.
         -1    1    1    2    0  501 -0.40405531304E+01  0.19764379167E+02  0.24852982104E+03  0.24934720511E+03  0.00000000000E+00 0. -1.
</event>
<event>
 4    1  0.6629728E+001  0.2705367E+02  0.7546771E-02  0.1447070E+00
          2   -1    0    0  502    0  0.00000000000E+00  0.00000000000E+00  0.54171643303E+02  0.54171643303E+02  0.00000000000E+00 0.  1.
         -2   -1    0    0    0  501 -0.00000000000E+00 -0.00000000000E+00 -0.13742678260E+02  0.13742678260E+02  0.00000000000E+00 0. -1.
          1    1    1    2  502    0  0.26890743423E+02  0.29646434037E+01  0.15803414256E+02  0.31331279810E+02  0.00000000000E+00 0. -1.
         -1    1    1    2    0  501 -0.26890743423E+02 -0.29646434037E+01  0.24625550787E+02  0.36583041753E+02  0.00000000000E+00 0.  1.
</event>
<event>
 4    1  0.6629728E+001  0.2257723E+02  0.7546771E-02  0.1497876E+00
          2   -1    0    0  502    0  0.00000000000E+00  0.00000000000E+00  0.64018598074E+01  0.64018598074E+01  0.00000000000E+00 0.  1.
         -2   -1    0    0    0  501 -0.00000000000E+00 -0.00000000000E+00 -0.35896498050E+03  0.35896498050E+03  0.00000000000E+00 0. -1.
          1    1    1    2  502    0  0.19357557349E+02  0.11619656053E+02 -0.33743577353E+03  0.33819023151E+03  0.00000000000E+00 0. -1.
         -1    1    1    2    0  501 -0.19357557349E+02 -0.11619656053E+02 -0.15127347161E+02  0.27176608792E+02  0.00000000000E+00 0.  1.
</event>
<event>
 4    1  0.6629728E+001  0.2041735E+02  0.7546771E-02  0.1527748E+00
          2   -1    0    0  502    0  0.00000000000E+00  0.00000000000E+00  0.88478071691E+03  0.88478071691E+03  0.00000000000E+00 0.  1.
         -2   -1    0    0    0  501 -0.00000000000E+00 -0.00000000000E+00 -0.47625004235E+00  0.47625004235E+00  0.00000000000E+00 0. -1.
          1    1    1    2  502    0 -0.11895509534E+02  0.16594126824E+02  0.48793772144E+03  0.48836470818E+03  0.00000000000E+00 0.  1.
         -1    1    1    2    0  501  0.11895509534E+02 -0.16594126824E+02  0.39636674543E+03  0.39689225877E+03  0.00000000000E+00 0. -1.
</event>
<event>
 4    1  0.6629728E+001  0.2071559E+02  0.7546771E-02  0.1523365E+00
          2   -1    0    0  502    0  0.00000000000E+00  0.00000000000E+00  0.13502757148E+02  0.13502757148E+02  0.00000000000E+00 0. -1.
         -2   -1    0    0    0  501 -0.00000000000E+00 -0.00000000000E+00 -0.33512091245E+02  0.33512091245E+02  0.00000000000E+00 0.  1.
          1    1    1    2  502    0  0.15335502469E+02  0.13926875057E+02 -0.15346911448E+02  0.25781062348E+02  0.00000000000E+00 0.  1.
         -1    1    1    2    0  501 -0.15335502469E+02 -0.13926875057E+02 -0.46624226495E+01  0.21233786045E+02  0.00000000000E+00 0. -1.
</event>
<event>
 4    1  0.6629728E+001  0.2966607E+02  0.7546771E-02  0.1422521E+00
          2   -1    0    0  502    0  0.00000000000E+00  0.00000000000E+00  0.38478674829E+04  0.38478674829E+04  0.00000000000E+00 0. -1.
         -2   -1    0    0    0  501 -0.00000000000E+00 -0.00000000000E+00 -0.23029279394E+00  0.23029279394E+00  0.00000000000E+00 0.  1.
          1    1    1    2  502    0  0.56454518015E+01  0.29123952784E+02  0.20829355921E+04  0.20831468399E+04  0.00000000000E+00 0.  1.
         -1    1    1    2    0  501 -0.56454518015E+01 -0.29123952784E+02  0.17647015980E+04  0.17649509358E+04  0.00000000000E+00 0. -1.
</event>
<event>
 4    1  0.6629728E+001  0.2665660E+02  0.7546771E-02  0.1451088E+00
          2   -1    0    0  502    0  0.00000000000E+00  0.00000000000E+00  0.14978450271E+03  0.14978450271E+03  0.00000000000E+00 0.  1.
         -2   -1    0    0    0  501 -0.00000000000E+00 -0.00000000000E+00 -0.50201884059E+01  0.50201884059E+01  0.00000000000E+00 0. -1.
          1    1    1    2  502    0  0.24822867707E+02 -0.97159408159E+01  0.90537930518E+02  0.94380565423E+02  0.00000000000E+00 0.  1.
         -1    1    1    2    0  501 -0.24822867707E+02  0.97159408159E+01  0.54226383785E+02  0.60424125691E+02  0.00000000000E+00 0. -1.
</event>
<event>
 4    1  0.6629728E+001  0.3520192E+02  0.7546771E-02  0.1379149E+00
          2   -1    0    0  502    0  0.00000000000E+00  0.00000000000E+00  0.36266684846E+01  0.36266684846E+01  0.00000000000E+00 0. -1.
         -2   -1    0    0    0  501 -0.00000000000E+00 -0.00000000000E+00 -0.35865688770E+03  0.35865688770E+03  0.00000000000E+00 0.  1.
          1    1    1    2  502    0  0.29586847286E+01 -0.35077361303E+02 -0.21692045649E+03  0.21975818423E+03  0.00000000000E+00 0. -1.
         -1    1    1    2    0  501 -0.29586847286E+01  0.35077361303E+02 -0.13810976272E+03  0.14252537195E+03  0.00000000000E+00 0.  1.
</event>
<event>
 4    1  0.6629728E+001  0.2878214E+02  0.7546771E-02  0.1430483E+00
          2   -1    0    0  502    0  0.00000000000E+00  0.00000000000E+00  0.32117289870E+03  0.32117289870E+03  0.00000000000E+00 0.  1.
         -2   -1    0    0    0  501 -0.00000000000E+00 -0.00000000000E+00 -0.30548105154E+01  0.30548105154E+01  0.00000000000E+00 0. -1.
          1    1    1    2  502    0  0.16996319726E+02 -0.23227925803E+02  0.22301685705E+03  0.22486647138E+03  0.00000000000E+00 0.  1.
         -1    1    1    2    0  501 -0.16996319726E+02  0.23227925803E+02  0.95101231136E+02  0.99361237839E+02  0.00000000000E+00 0. -1.
</event>
<event>
 4    1  0.6629728E+001  0.2040615E+02  0.7546771E-02  0.1527915E+00
          2   -1    0    0  502    0  0.00000000000E+00  0.00000000000E+00  0.35822238465E+01  0.35822238465E+01  0.00000000000E+00 0. -1.
         -2   -1    0    0    0  501 -0.00000000000E+00 -0.00000000000E+00 -0.12722518174E+03  0.12722518174E+03  0.00000000000E+00 0.  1.
          1    1    1    2  502    0  0.14016310578E+02 -0.14830846091E+02 -0.42606219757E+02  0.47240881872E+02  0.00000000000E+00 0. -1.
         -1    1    1    2    0  501 -0.14016310578E+02  0.14830846091E+02 -0.81036738136E+02  0.83566523714E+02  0.00000000000E+00 0.  1.
</event>
<event>
 4    1  0.6629728E+001  0.2340509E+02  0.7546771E-02  0.1487473E+00
          2   -1    0    0  502    0  0.00000000000E+00  0.00000000000E+00  0.39341634093E+03  0.39341634093E+03  0.00000000000E+00 0.  1.
         -2   -1    0    0    0  501 -0.00000000000E+00 -0.00000000000E+00 -0.42438051998E+01  0.42438051998E+01  0.00000000000E+00 0. -1.
          1    1    1    2  502    0 -0.15260206999E+02  0.17746112968E+02  0.31606854608E+02  0.39329272830E+02  0.00000000000E+00 0. -1.
         -1    1    1    2    0  501  0.15260206999E+02 -0.17746112968E+02  0.35756568112E+03  0.35833087330E+03  0.00000000000E+00 0.  1.
</event>
<event>
 4    1  0.6629728E+001  0.2261613E+02  0.7546771E-02  0.1497375E+00
          2   -1    0    0  502    0  0.00000000000E+00  0.00000000000E+00  0.76424772702E+02  0.76424772702E+02  0.00000000000E+00 0. -1.
         -2   -1    0    0    0  501 -0.00000000000E+00 -0.00000000000E+00 -0.10691968919E+02  0.10691968919E+02  0.00000000000E+00 0.  1.
          1    1    1    2  502    0  0.47681613005E+01  0.22107780883E+02  0.59506277440E+02  0.63659142254E+02  0.00000000000E+00 0. -1.
         -1    1    1    2    0  501 -0.47681613005E+01 -0.22107780883E+02  0.62265263423E+01  0.23457599366E+02  0.00000000000E+00 0.  1.
</event>
<event>
 4    1  0.6629728E+001  0.2365979E+02  0.7546771E-02  0.1484375E+00
          2   -1    0    0  502    0  0.00000000000E+00  0.00000000000E+00  0.44968206917E+03  0.44968206917E+03  0.00000000000E+00 0.  1.
         -2   -1    0    0    0  501 -0.00000000000E+00 -0.00000000000E+00 -0.12778204386E+01  0.12778204386E+01  0.00000000000E+00 0. -1.
          1    1    1    2  502    0  0.20616979303E+02 -0.11607136984E+02  0.18798167700E+03  0.18946476282E+03  0.00000000000E+00 0. -1.
         -1    1    1    2    0  501 -0.20616979303E+02  0.11607136984E+02  0.26042257174E+03  0.26149512679E+03  0.00000000000E+00 0.  1.
</event>
<event>
 4    1  0.6629728E+001  0.2067333E+02  0.7546771E-02  0.1523980E+00
          2   -1    0    0  502    0  0.00000000000E+00  0.00000000000E+00  0.78239594698E+03  0.78239594698E+03  0.00000000000E+00 0.  1.
         -2   -1    0    0    0  501 -0.00000000000E+00 -0.00000000000E+00 -0.56998908958E+00  0.56998908958E+00  0.00000000000E+00 0. -1.
          1    1    1    2  502    0  0.17681121160E+02  0.10712816787E+02  0.31102525885E+03  0.31171156240E+03  0.00000000000E+00 0. -1.
         -1    1    1    2    0  501 -0.17681121160E+02 -0.10712816787E+02  0.47080069904E+03  0.47125437367E+03  0.00000000000E+00 0.  1.
</event>
<event>
 4    1  0.6629728E+001  0.4647859E+02  0.7546771E-02  0.1314207E+00
          2   -1    0    0  502    0  0.00000000000E+00  0.00000000000E+00  0.11616245716E+03  0.11616245716E+03  0.00000000000E+00 0. -1.
         -2   -1    0    0    0  501 -0.00000000000E+00 -0.00000000000E+00 -0.20010331563E+02  0.20010331563E+02  0.00000000000E+00 0.  1.
          1    1    1    2  502    0  0.22823361736E+02 -0.40488933047E+02  0.29980449381E+02  0.55309012695E+02  0.00000000000E+00 0.  1.
         -1    1    1    2    0  501 -0.22823361736E+02  0.40488933047E+02  0.66171676221E+02  0.80863776032E+02  0.00000000000E+00 0. -1.
</event>
<event>
 4    1  0.6629728E+001  0.2187148E+02  0.7546771E-02  0.1507177E+00
          2   -1    0    0  502    0  0.00000000000E+00  0.00000000000E+00  0.10681418594E+03  0.10681418594E+03  0.00000000000E+00 0. -1.
         -2   -1    0    0    0  501 -0.00000000000E+00 -0.00000000000E+00 -0.16879867557E+02  0.16879867557E+02  0.00000000000E+00 0.  1.
          1    1    1    2  502    0  0.39186068725E+01  0.21517572986E+02 -0.80443375509E+01  0.23303922280E+02  0.00000000000E+00 0.  1.
         -1    1    1    2    0  501 -0.39186068725E+01 -0.21517572986E+02  0.97978655931E+02  0.10039013121E+03  0.00000000000E+00 0. -1.
</event>
<event>
 4    1  0.6629728E+001  0.2410140E+02  0.7546771E-02  0.1479112E+00
          2   -1    0    0  502    0  0.00000000000E+00  0.00000000000E+00  0.31653438754E+01  0.31653438754E+01  0.00000000000E+00 0. -1.
         -2   -1    0    0    0  501 -0.00000000000E+00 -0.00000000000E+00 -0.27155142047E+03  0.27155142047E+03  0.00000000000E+00 0.  1.
          1    1    1    2  502    0  0.81177929601E+01  0.22693144933E+02 -0.55981892773E+02  0.60949566922E+02  0.00000000000E+00 0. -1.
         -1    1    1    2    0  501 -0.81177929601E+01 -0.22693144933E+02 -0.21240418382E+03  0.21376719742E+03  0.00000000000E+00 0.  1.
</event>
<event>
 4    1  0.6629728E+001  0.2363593E+02  0.7546771E-02  0.1484663E+00
          2   -1    0    0  502    0  0.00000000000E+00  0.00000000000E+00  0.11745873863E+04  0.11745873863E+04  0.00000000000E+00 0.  1.
         -2   -1    0    0    0  501 -0.00000000000E+00 -0.00000000000E+00 -0.52789348663E+00  0.52789348663E+00  0.00000000000E+00 0. -1.
          1    1    1    2  502    0 -0.80068599973E+01 -0.22238421850E+02  0.77192177992E+03  0.77228355642E+03  0.00000000000E+00 0. -1.
         -1    1    1    2    0  501  0.80068599973E+01  0.22238421850E+02  0.40213771289E+03  0.40283172335E+03  0.00000000000E+00 0.  1.
</event>
<event>
 4    1  0.6629728E+001  0.2222462E+02  0.7546771E-02  0.1502471E+00
          2   -1    0    0  502    0  0.00000000000E+00  0.00000000000E+00  0.10369084180E+04  0.10369084180E+04  0.00000000000E+00 0.  1.
         -2   -1    0    0    0  501 -0.00000000000E+00 -0.00000000000E+00 -0.11257577897E+01  0.11257577897E+01  0.00000000000E+00 0. -1.
          1    1    1    2  502    0 -0.13487457903E+02  0.17664148817E+02  0.12369083489E+03  0.12567162094E+03  0.00000000000E+00 0. -1.
         -1    1    1    2    0  501  0.13487457903E+02 -0.17664148817E+02  0.91209182534E+03  0.91236255486E+03  0.00000000000E+00 0.  1.
</event>
<event>
 4    1  0.6629728E+001  0.2545202E+02  0.7546771E-02  0.1463810E+00
          2   -1    0    0  502    0  0.00000000000E+00  0.00000000000E+00  0.21750090503E+03  0.21750090503E+03  0.00000000000E+00 0.  1.
         -2   -1    0    0    0  501 -0.00000000000E+00 -0.00000000000E+00 -0.57750896137E+01  0.57750896137E+01  0.00000000000E+00 0. -1.
          1    1    1    2  502    0 -0.97922252114E+01 -0.23492928165E+02  0.28174794327E+02  0.37968729024E+02  0.00000000000E+00 0. -1.
         -1    1    1    2    0  501  0.97922252114E+01  0.23492928165E+02  0.18355102109E+03  0.18530726562E+03  0.00000000000E+00 0.  1.
</event>
<event>
 4    1  0.6629728E+001  0.3309575E+02  0.7546771E-02  0.1394469E+00
          2   -1    0    0  502    0  0.00000000000E+00  0.00000000000E+00  0.65234141292E+02  0.65234141292E+02  0.00000000000E+00 0.  1.
         -2   -1    0    0    0  501 -0.00000000000E+00 -0.00000000000E+00 -0.35460630710E+02  0.35460630710E+02  0.00000000000E+00 0. -1.
          1    1    1    2  502    0  0.27123284627E+02 -0.18964608358E+02  0.51418859530E+02  0.61149227750E+02  0.00000000000E+00 0.  1.
         -1    1    1    2    0  501 -0.27123284627E+02  0.18964608358E+02 -0.21645348948E+02  0.39545544252E+02  0.00000000000E+00 0. -1.
</event>
<event>
 4    1  0.6629728E+001  0.2231037E+02  0.7546771E-02  0.1501344E+00
          2   -1    0    0  502    0  0.00000000000E+00  0.00000000000E+00  0.28020627634E+03  0.28020627634E+03  0.00000000000E+00 0.  1.
         -2   -1    0    0    0  501 -0.00000000000E+00 -0.00000000000E+00 -0.18295207736E+01  0.18295207736E+01  0.00000000000E+00 0. -1.
          1    1    1    2  502    0  0.18193026859E+02 -0.12913799950E+02  0.16322231343E+03  0.16474002567E+03  0.00000000000E+00 0. -1.
         -1    1    1    2    0  501 -0.18193026859E+02  0.12913799950E+02  0.11515444214E+03  0.11729577145E+03  0.00000000000E+00 0.  1.
</event>
<event>
 4    1  0.6629728E+001  0.3688022E+02  0.7546771E-02  0.1367806E+00
          2   -1    0    0  502    0  0.00000000000E+00  0.00000000000E+00  0.31150287540E+01  0.31150287540E+01  0.00000000000E+00 0.  1.
         -2   -1    0    0    0  501 -0.00000000000E+00 -0.00000000000E+00 -0.49990173580E+03  0.49990173580E+03  0.00000000000E+00 0. -1.
          1    1    1    2  502    0 -0.35706326474E+02  0.92308554794E+01 -0.33786305090E+03  0.33986996279E+03  0.00000000000E+00 0. -1.
         -1    1    1    2    0  501  0.35706326474E+02 -0.92308554794E+01 -0.15892365615E+03  0.16314680176E+03  0.00000000000E+00 0.  1.
</event>
<event>
 4    1  0.6629728E+001  0.2169048E+02  0.7546771E-02  0.1509631E+00
          2   -1    0    0  502    0  0.00000000000E+00  0.00000000000E+00  0.36066442734E+03  0.36066442734E+03  0.00000000000E+00 0. -1.
         -2   -1    0    0    0  501 -0.00000000000E+00 -0.00000000000E+00 -0.13048437920E+01  0.13048437920E+01  0.00000000000E+00 0.  1.
          1    1    1    2  502    0 -0.12397790953E+02  0.17798081738E+02  0.17662805653E+03  0.17795490240E+03  0.00000000000E+00 0.  1.
         -1    1    1    2    0  501  0.12397790953E+02 -0.17798081738E+02  0.18273152702E+03  0.18401436874E+03  0.00000000000E+00 0. -1.
</event>
<event>
 4    1  0.6629728E+001  0.3015206E+02  0.7546771E-02  0.1418279E+00
          2   -1    0    0  502    0  0.00000000000E+00  0.00000000000E+00  0.35123768686E+03  0.35123768686E+03  0.00000000000E+00 0.  1.
         -2   -1    0    0    0  501 -0.00000000000E+00 -0.00000000000E+00 -0.25926849021E+01  0.25926849021E+01  0.00000000000E+00 0. -1.
          1    1    1    2  502    0 -0.10268220441E+02  0.28349790572E+02  0.16713832235E+03  0.16983629110E+03  0.00000000000E+00 0. -1.
         -1    1    1    2    0  501  0.10268220441E+02 -0.28349790572E+02  0.18150667961E+03  0.18399408066E+03  0.00000000000E+00 0.  1.
</event>
<event>
 4    1  0.6629728E+001  0.3171474E+02  0.7546771E-02  0.1405258E+00
          2   -1    0    0  502    0  0.00000000000E+00  0.00000000000E+00  0.74099232098E+01  0.74099232098E+01  0.00000000000E+00 0. -1.
         -2   -1    0    0    0  501 -0.00000000000E+00 -0.00000000000E+00 -0.13668463692E+03  0.13668463692E+03  0.00000000000E+00 0.  1.
          1    1    1    2  502    0  0.27578251023E+01  0.31594606771E+02 -0.70626081624E+02  0.77420076090E+02  0.00000000000E+00 0.  1.
         -1    1    1    2    0  501 -0.27578251023E+01 -0.31594606771E+02 -0.58648632084E+02  0.66674484037E+02  0.00000000000E+00 0. -1.
</event>
<event>
 4    1  0.6629728E+001  0.2169991E+02  0.7546771E-02  0.1509502E+00
          2   -1    0    0  502    0  0.00000000000E+00  0.00000000000E+00  0.27002814864E+01  0.27002814864E+01  0.00000000000E+00 0. -1.
         -2   -1    0    0    0  501 -0.00000000000E+00 -0.00000000000E+00 -0.17520048591E+03  0.17520048591E+03  0.00000000000E+00 0.  1.
          1    1    1    2  502    0  0.12205411307E+02  0.17941965517E+02 -0.92322000241E+02  0.94837956116E+02  0.00000000000E+00 0.  1.
         -1    1    1    2    0  501 -0.12205411307E+02 -0.17941965517E+02 -0.80178204180E+02  0.83062811277E+02  0.00000000000E+00 0. -1.
</event>
<event>
 4    1  0.6629728E+001  0.2040386E+02  0.7546771E-02  0.1527949E+00
          2   -1    0    0  502    0  0.00000000000E+00  0.00000000000E+00  0.32143969810E+03  0.32143969810E+03  0.00000000000E+00 0. -1.
         -2   -1    0    0    0  501 -0.00000000000E+00 -0.00000000000E+00 -0.18617087302E+01  0.18617087302E+01  0.00000000000E+00 0.  1.
          1    1    1    2  502    0  0.20089505897E+02  0.35677886916E+01  0.70614932802E+02  0.73503646835E+02  0.00000000000E+00 0.  1.
         -1    1    1    2    0  501 -0.20089505897E+02 -0.35677886916E+01  0.24896305657E+03  0.24979776000E+03  0.00000000000E+00 0. -1.
</event>
<event>
 4    1  0.6629728E+001  0.2090224E+02  0.7546771E-02  0.1520665E+00
          2   -1    0    0  502    0  0.00000000000E+00  0.00000000000E+00  0.36318987855E+02  0.36318987855E+02  0.00000000000E+00 0.  1.
         -2   -1    0    0    0  501 -0.00000000000E+00 -0.00000000000E+00 -0.24929075356E+02  0.24929075356E+02  0.00000000000E+00 0. -1.
          1    1    1    2  502    0 -0.15115672052E+02  0.14436766667E+02  0.27723961993E+02  0.34720625599E+02  0.00000000000E+00 0.  1.
         -1    1    1    2    0  501  0.15115672052E+02 -0.14436766667E+02 -0.16334049495E+02  0.26527437612E+02  0.00000000000E+00 0. -1.
</event>
<event>
 4    1  0.6629728E+001  0.2084392E+02  0.7546771E-02  0.1521505E+00
          2   -1    0    0  502    0  0.00000000000E+00  0.00000000000E+00  0.19654816716E+04  0.19654816716E+04  0.00000000000E+00 0.  1.
         -2   -1    0    0    0  501 -0.00000000000E+00 -0.00000000000E+00 -0.32913647416E+00  0.32913647416E+00  0.00000000000E+00 0. -1.
          1    1    1    2  502    0  0.13005180078E+02  0.16289080670E+02  0.41931449645E+03  0.41983224720E+03  0.00000000000E+00 0. -1.
         -1    1    1    2    0  501 -0.13005180078E+02 -0.16289080670E+02  0.15458380387E+04  0.15459785609E+04  0.00000000000E+00 0.  1.
</event>
<event>
 4    1  0.6629728E+001  0.2455387E+02  0.7546771E-02  0.1473857E+00
          2   -1    0    0  502    0  0.00000000000E+00  0.00000000000E+00  0.17811144946E+02  0.17811144946E+02  0.00000000000E+00 0.  1.
         -2   -1    0    0    0  501 -0.00000000000E+00 -0.00000000000E+00 -0.45078894603E+02  0.45078894603E+02  0.00000000000E+00 0. -1.
          1    1    1    2  502    0 -0.64986884881E+01 -0.23678250792E+02  0.20607071642E+01  0.24640191287E+02  0.00000000000E+00 0.  1.
         -1    1    1    2    0  501  0.64986884881E+01  0.23678250792E+02 -0.29328456821E+02  0.38249848263E+02  0.00000000000E+00 0. -1.
</event>
<event>
 4    1  0.6629728E+001  0.2121997E+02  0.7546771E-02  0.1516147E+00
          2   -1    0    0  502    0  0.00000000000E+00  0.00000000000E+00  0.12836534520E+04  0.12836534520E+04  0.00000000000E+00 0.  1.
         -2   -1    0    0    0  501 -0.00000000000E+00 -0.00000000000E+00 -0.44047146891E+00  0.44047146891E+00  0.00000000000E+00 0. -1.
          1    1    1    2  502    0  0.63084180229E+01  0.20260580623E+02  0.93132062867E+03  0.93156234394E+03  0.00000000000E+00 0.  1.
         -1    1    1    2    0  501 -0.63084180229E+01 -0.20260580623E+02  0.35189235186E+03  0.35253157953E+03  0.00000000000E+00 0. -1.
</event>
<event>
 4    1  0.6629728E+001  0.2503846E+02  0.7546771E-02  0.1468374E+00
          2   -1    0    0  502    0  0.00000000000E+00  0.00000000000E+00  0.22858964793E+04  0.22858964793E+04  0.00000000000E+00 0.  1.
         -2   -1    0    0    0  501 -0.00000000000E+00 -0.00000000000E+00 -0.27878834370E+00  0.27878834370E+00  0.00000000000E+00 0. -1.
          1    1    1    2  502    0 -0.91177293254E+01 -0.23319340763E+02  0.12885303428E+04  0.12887735911E+04  0.00000000000E+00 0. -1.
         -1    1    1    2    0  501  0.91177293254E+01  0.23319340763E+02  0.99708734807E+03  0.99740167652E+03  0.00000000000E+00 0.  1.
</event>
<event>
 4    1  0.6629728E+001  0.2172593E+02  0.7546771E-02  0.1509148E+00
          2   -1    0    0  502    0  0.00000000000E+00  0.00000000000E+00  0.88320384067E+03  0.88320384067E+03  0.00000000000E+00 0.  1.
         -2   -1    0    0    0  501 -0.00000000000E+00 -0.00000000000E+00 -0.54710289746E+00  0.54710289746E+00  0.00000000000E+00 0. -1.
          1    1    1    2  502    0 -0.19882480336E+02  0.87580358453E+01  0.37409344508E+03  0.37472379411E+03  0.00000000000E+00 0. -1.
         -1    1    1    2    0  501  0.19882480336E+02 -0.87580358453E+01  0.50856329269E+03  0.50902714946E+03  0.00000000000E+00 0.  1.
</event>
<event>
 4    1  0.6629728E+001  0.2562160E+02  0.7546771E-02  0.1461968E+00
          2   -1    0    0  502    0  0.00000000000E+00  0.00000000000E+00  0.40194020127E+02  0.40194020127E+02  0.00000000000E+00 0. -1.
         -2   -1    0    0    0  501 -0.00000000000E+00 -0.00000000000E+00 -0.29367701200E+02  0.29367701200E+02  0.00000000000E+00 0.  1.
          1    1    1    2  502    0  0.25210171858E+02  0.45731193675E+01 -0.17758936321E+02  0.31174444744E+02  0.00000000000E+00 0.  1.
         -1    1    1    2    0  501 -0.25210171858E+02 -0.45731193675E+01  0.28585255248E+02  0.38387276582E+02  0.00000000000E+00 0. -1.
</event>
<event>
 4    1  0.6629728E+001  0.2124666E+02  0.7546771E-02  0.1515772E+00
          2   -1    0    0  502    0  0.00000000000E+00  0.00000000000E+00  0.11619204119E+04  0.11619204119E+04  0.00000000000E+00 0.  1.
         -2   -1    0    0    0  501 -0.00000000000E+00 -0.00000000000E+00 -0.42015038835E+00  0.42015038835E+00  0.00000000000E+00 0. -1.
          1    1    1    2  502    0 -0.21172490858E+02  0.17737129531E+01  0.74022997574E+03  0.74053483200E+03  0.00000000000E+00 0.  1.
         -1    1    1    2    0  501  0.21172490858E+02 -0.17737129531E+01  0.42127028574E+03  0.42180573025E+03  0.00000000000E+00 0. -1.
</event>
<event>
 4    1  0.6629728E+001  0.2043403E+02  0.7546771E-02  0.1527501E+00
          2   -1    0    0  502    0  0.00000000000E+00  0.00000000000E+00  0.93086983644E+02  0.93086983644E+02  0.00000000000E+00 0.  1.
         -2   -1    0    0    0  501 -0.00000000000E+00 -0.00000000000E+00 -0.64331041873E+01  0.64331041873E+01  0.00000000000E+00 0. -1.
          1    1    1    2  502    0 -0.75207414176E+01  0.18999682590E+02  0.15948326929E+02  0.25921007346E+02  0.00000000000E+00 0. -1.
         -1    1    1    2    0  501  0.75207414176E+01 -0.18999682590E+02  0.70705552528E+02  0.73599080486E+02  0.00000000000E+00 0.  1.
</event>
<event>
 4    1  0.6629728E+001  0.2875077E+02  0.7546771E-02  0.1430772E+00
          2   -1    0    0  502    0  0.00000000000E+00  0.00000000000E+00  0.12671597124E+03  0.12671597124E+03  0.00000000000E+00 0. -1.
         -2   -1    0    0    0  501 -0.00000000000E+00 -0.00000000000E+00 -0.67084586999E+01  0.67084586999E+01  0.00000000000E+00 0.  1.
          1    1    1    2  502    0  0.65666718556E+01  0.27990816921E+02  0.71086809508E+02  0.76680776582E+02  0.00000000000E+00 0.  1.
         -1    1    1    2    0  501 -0.65666718556E+01 -0.27990816921E+02  0.48920703029E+02  0.56743653354E+02  0.00000000000E+00 0. -1.
</event>
<event>
 4    1  0.6629728E+001  0.2006816E+02  0.7546771E-02  0.1532996E+00
          2   -1    0    0  502    0  0.00000000000E+00  0.00000000000E+00  0.42169622518E+01  0.42169622518E+01  0.00000000000E+00 0. -1.
         -2   -1    0    0    0  501 -0.00000000000E+00 -0.00000000000E+00 -0.17626334164E+03  0.17626334164E+03  0.00000000000E+00 0.  1.
          1    1    1    2  502    0 -0.57734987511E+01 -0.19219721698E+02 -0.24940397089E+02  0.32011785282E+02  0.00000000000E+00 0. -1.
         -1    1    1    2    0  501  0.57734987511E+01  0.19219721698E+02 -0.14710598230E+03  0.14846851861E+03  0.00000000000E+00 0.  1.
</event>
<event>
 4    1  0.6629728E+001  0.2311569E+02  0.7546771E-02  0.1491051E+00
          2   -1    0    0  502    0  0.00000000000E+00  0.00000000000E+00  0.13786151723E+02  0.13786151723E+02  0.00000000000E+00 0. -1.
         -2   -1    0    0    0  501 -0.00000000000E+00 -0.00000000000E+00 -0.42627226957E+02  0.42627226957E+02  0.00000000000E+00 0.  1.
          1    1    1    2  502    0  0.46149975958E+01 -0.22650317966E+02 -0.59233715053E+01  0.23862553022E+02  0.00000000000E+00 0. -1.
         -1    1    1    2    0  501 -0.46149975958E+01  0.22650317966E+02 -0.22917703729E+02  0.32550825657E+02  0.00000000000E+00 0.  1.
</event>
<event>
 4    1  0.6629728E+001  0.2039220E+02  0.7546771E-02  0.1528122E+00
          2   -1    0    0  502    0  0.00000000000E+00  0.00000000000E+00  0.16049011319E+03  0.16049011319E+03  0.00000000000E+00 0. -1.
         -2   -1    0    0    0  501 -0.00000000000E+00 -0.00000000000E+00 -0.31984135054E+01  0.31984135054E+01  0.00000000000E+00 0.  1.
          1    1    1    2  502    0  0.96842276310E+01  0.17945960317E+02  0.42981302909E+02  0.47573460630E+02  0.00000000000E+00 0.  1.
         -1    1    1    2    0  501 -0.96842276310E+01 -0.17945960317E+02  0.11431039678E+03  0.11611506607E+03  0.00000000000E+00 0. -1.
</event>
<event>
 4    1  0.6629728E+001  0.2637950E+02  0.7546771E-02  0.1453943E+00
          2   -1    0    0  502    0  0.00000000000E+00  0.00000000000E+00  0.12640890715E+03  0.12640890715E+03  0.00000000000E+00 0.  1.
         -2   -1    0    0    0  501 -0.00000000000E+00 -0.00000000000E+00 -0.60167532675E+01  0.60167532675E+01  0.00000000000E+00 0. -1.
          1    1    1    2  502    0 -0.27919465361E+01  0.26231339071E+02  0.40885237160E+02  0.48656764509E+02  0.00000000000E+00 0. -1.
         -1    1    1    2    0  501  0.27919465361E+01 -0.26231339071E+02  0.79506916721E+02  0.83768895906E+02  0.00000000000E+00 0.  1.
</event>
<event>
 4    1  0.6629728E+001  0.2648640E+02  0.7546771E-02  0.1452837E+00
          2   -1    0    0  502    0  0.00000000000E+00  0.00000000000E+00  0.81907539602E+03  0.81907539602E+03  0.00000000000E+00 0. -1.
         -2   -1    0    0    0  501 -0.00000000000E+00 -0.00000000000E+00 -0.99990729523E+00  0.99990729523E+00  0.00000000000E+00 0.  1.
          1    1    1    2  502    0 -0.21275221854E+02  0.15776389404E+02  0.25374709877E+03  0.25512569385E+03  0.00000000000E+00 0.  1.
         -1    1    1    2    0  501  0.21275221854E+02 -0.15776389404E+02  0.56432838995E+03  0.56494960946E+03  0.00000000000E+00 0. -1.
</event>
<event>
 4    1  0.6629728E+001  0.2287944E+02  0.7546771E-02  0.1494018E+00
          2   -1    0    0  502    0  0.00000000000E+00  0.00000000000E+00  0.10055260090E+02  0.10055260090E+02  0.00000000000E+00 0. -1.
         -2   -1    0    0    0  501 -0.00000000000E+00 -0.00000000000E+00 -0.88292940265E+02  0.88292940265E+02  0.00000000000E+00 0.  1.
          1    1    1    2  502    0 -0.19389779900E+02 -0.12145174851E+02 -0.70620249929E+02  0.74234011994E+02  0.00000000000E+00 0.  1.
         -1    1    1    2    0  501  0.19389779900E+02  0.12145174851E+02 -0.76174302460E+01  0.24114188360E+02  0.00000000000E+00 0. -1.
</event>
<event>
 4    1  0.6629728E+001  0.2644905E+02  0.7546771E-02  0.1453222E+00
          2   -1    0    0  502    0  0.00000000000E+00  0.00000000000E+00  0.59710278331E+03  0.59710278331E+03  0.00000000000E+00 0. -1.
         -2   -1    0    0    0  501 -0.00000000000E+00 -0.00000000000E+00 -0.20506710061E+01  0.20506710061E+01  0.00000000000E+00 0.  1.
          1    1    1    2  502    0  0.12939718812E+02 -0.23067632475E+02  0.49367125990E+03  0.49437927226E+03  0.00000000000E+00 0. -1.
         -1    1    1    2    0  501 -0.12939718812E+02  0.23067632475E+02  0.10138085240E+03  0.10477418205E+03  0.00000000000E+00 0.  1.
</event>
<event>
 4    1  0.6629728E+001  0.2944190E+02  0.7546771E-02  0.1424509E+00
          2   -1    0    0  502    0  0.00000000000E+00  0.00000000000E+00  0.21871177665E+04  0.21871177665E+04  0.00000000000E+00 0. -1.
         -2   -1    0    0    0  501 -0.00000000000E+00 -0.00000000000E+00 -0.51077694113E+00  0.51077694113E+00  0.00000000000E+00 0.  1.
          1    1    1    2  502    0 -0.19050437314E+02 -0.22447856534E+02  0.57554686790E+03  0.57629942094E+03  0.00000000000E+00 0.  1.
         -1    1    1    2    0  501  0.19050437314E+02  0.22447856534E+02  0.16110601217E+04  0.16113291225E+04  0.00000000000E+00 0. -1.
</event>
<event>
 4    1  0.6629728E+001  0.2906763E+02  0.7546771E-02  0.1427875E+00
          2   -1    0    0  502    0  0.00000000000E+00  0.00000000000E+00  0.72387054595E+03  0.72387054595E+03  0.00000000000E+00 0. -1.
         -2   -1    0    0    0  501 -0.00000000000E+00 -0.00000000000E+00 -0.12622805979E+01  0.12622805979E+01  0.00000000000E+00 0.  1.
          1    1    1    2  502    0  0.27663472801E+02  0.89252163728E+01  0.26181513431E+03  0.26342378740E+03  0.00000000000E+00 0.  1.
         -1    1    1    2    0  501 -0.27663472801E+02 -0.89252163728E+01  0.46079313105E+03  0.46170903915E+03  0.00000000000E+00 0. -1.
</event>
<event>
 4    1  0.6629728E+001  0.2471477E+02  0.7546771E-02  0.1472020E+00
          2   -1    0    0  502    0  0.00000000000E+00  0.00000000000E+00  0.57849480687E+02  0.57849480687E+02  0.00000000000E+00 0. -1.
         -2   -1    0    0    0  501 -0.00000000000E+00 -0.00000000000E+00 -0.11114678016E+02  0.11114678016E+02  0.00000000000E+00 0.  1.
          1    1    1    2  502    0  0.15363793913E+02  0.19359067727E+02  0.31078999825E+02  0.39707982784E+02  0.00000000000E+00 0. -1.
         -1    1    1    2    0  501 -0.15363793913E+02 -0.19359067727E+02  0.15655802845E+02  0.29256175919E+02  0.00000000000E+00 0.  1.
</event>
<event>
 4    1  0.6629728E+001  0.3087608E+02  0.7546771E-02  0.1412133E+00
          2   -1    0    0  502    0  0.00000000000E+00  0.00000000000E+00  0.39942030560E+03  0.39942030560E+03  0.00000000000E+00 0. -1.
         -2   -1    0    0    0  501 -0.00000000000E+00 -0.00000000000E+00 -0.24941960740E+01  0.24941960740E+01  0.00000000000E+00 0.  1.
          1    1    1    2  502    0 -0.30801471799E+02 -0.21451154246E+01  0.15676134616E+03  0.15977312614E+03  0.00000000000E+00 0.  1.
         -1    1    1    2    0  501  0.30801471799E+02  0.21451154246E+01  0.24016476337E+03  0.24214137554E+03  0.00000000000E+00 0. -1.
</event>
<event>
 4    1  0.6629728E+001  0.2585195E+02  0.7546771E-02  0.1459494E+00
          2   -1    0    0  502    0  0.00000000000E+00  0.00000000000E+00  0.62835415597E+02  0.62835415597E+02  0.00000000000E+00 0. -1.
         -2   -1    0    0    0  501 -0.00000000000E+00 -0.00000000000E+00 -0.11227035549E+02  0.11227035549E+02  0.00000000000E+00 0.  1.
          1    1    1    2  502    0 -0.23752047705E+02 -0.10206049140E+02  0.34300079189E+02  0.42951352035E+02  0.00000000000E+00 0.  1.
         -1    1    1    2    0  501  0.23752047705E+02  0.10206049140E+02  0.17308300859E+02  0.31111099111E+02  0.00000000000E+00 0. -1.
</event>
<event>
 4    1  0.6629728E+001  0.2698547E+02  0.7546771E-02  0.1447754E+00
          2   -1    0    0  502    0  0.00000000000E+00  0.00000000000E+00  0.14923088171E+04  0.14923088171E+04  0.00000000000E+00 0.  1.
         -2   -1    0    0    0  501 -0.00000000000E+00 -0.00000000000E+00 -0.51089652588E+00  0.51089652588E+00  0.00000000000E+00 0. -1.
          1    1    1    2  502    0  0.25326151150E+02  0.93167288987E+01  0.58781248237E+03  0.58843158464E+03  0.00000000000E+00 0.  1.
         -1    1    1    2    0  501 -0.25326151150E+02 -0.93167288987E+01  0.90398543824E+03  0.90438812903E+03  0.00000000000E+00 0. -1.
</event>
<event>
 4    1  0.6629728E+001  0.2202399E+02  0.7546771E-02  0.1505132E+00
          2   -1    0    0  502    0  0.00000000000E+00  0.00000000000E+00  0.10002247592E+03  0.10002247592E+03  0.00000000000E+00 0.  1.
         -2   -1    0    0    0  501 -0.00000000000E+00 -0.00000000000E+00 -0.48777716702E+01  0.48777716702E+01  0.00000000000E+00 0. -1.
          1    1    1    2  502    0 -0.13452217821E+02 -0.17438294220E+02  0.43577314690E+02  0.48826617999E+02  0.00000000000E+00 0.  1.
         -1    1    1    2    0  501  0.13452217821E+02  0.17438294220E+02  0.51567389560E+02  0.56073629592E+02  0.00000000000E+00 0. -1.
</event>
<event>
 4    1  0.6629728E+001  0.2674191E+02  0.7546771E-02  0.1450218E+00
          2   -1    0    0  502    0  0.00000000000E+00  0.00000000000E+00  0.13243914395E+01  0.13243914395E+01  0.00000000000E+00 0.  1.
         -2   -1    0    0    0  501 -0.00000000000E+00 -0.00000000000E+00 -0.54098582557E+03  0.54098582557E+03  0.00000000000E+00 0. -1.
          1    1    1    2  502    0 -0.20589939603E+02  0.17064124188E+02 -0.28158803805E+03  0.28285500370E+03  0.00000000000E+00 0.  1.
         -1    1    1    2    0  501  0.20589939603E+02 -0.17064124188E+02 -0.25807339608E+03  0.25945521331E+03  0.00000000000E+00 0. -1.
</event>
<event>
 4    1  0.6629728E+001  0.3409270E+02  0.7546771E-02  0.1387056E+00
          2   -1    0    0  502    0  0.00000000000E+00  0.00000000000E+00  0.12974794988E+04  0.12974794988E+04  0.00000000000E+00 0. -1.
         -2   -1    0    0    0  501 -0.00000000000E+00 -0.00000000000E+00 -0.90055492386E+00  0.90055492386E+00  0.00000000000E+00 0.  1.
          1    1    1    2  502    0  0.33860645817E+02  0.39710398712E+01  0.60123321625E+03  0.60219904750E+03  0.00000000000E+00 0. -1.
         -1    1    1    2    0  501 -0.33860645817E+02 -0.39710398712E+01  0.69534572761E+03  0.69618100620E+03  0.00000000000E+00 0.  1.
</event>
<event>
 4    1  0.6629728E+001  0.3368365E+02  0.7546771E-02  0.1390061E+00
          2   -1    0    0  502    0  0.00000000000E+00  0.00000000000E+00  0.63646389968E+02  0.63646389968E+02  0.00000000000E+00 0.  1.
         -2   -1    0    0    0  501 -0.00000000000E+00 -0.00000000000E+00 -0.22653104649E+02  0.22653104649E+02  0.00000000000E+00 0. -1.
          1    1    1    2  502    0  0.84691522409E+00 -0.33672998529E+02  0.40414300925E+02  0.52610871639E+02  0.00000000000E+00 0.  1.
         -1    1    1    2    0  501 -0.84691522409E+00  0.33672998529E+02  0.57898439344E+00  0.33688622979E+02  0.00000000000E+00 0. -1.
</event>
<event>
 4    1  0.6629728E+001  0.3427720E+02  0.7546771E-02  0.1385717E+00
          2   -1    0    0  502    0  0.00000000000E+00  0.00000000000E+00  0.42630388761E+03  0.42630388761E+03  0.00000000000E+00 0. -1.
         -2   -1    0    0    0  501 -0.00000000000E+00 -0.00000000000E+00 -0.30129722805E+01  0.30129722805E+01  0.00000000000E+00 0.  1.
          1    1    1    2  502    0 -0.71366025421E+01  0.33526037670E+02  0.27432539110E+03  0.27645858008E+03  0.00000000000E+00 0. -1.
         -1    1    1    2    0  501  0.71366025421E+01 -0.33526037670E+02  0.14896552423E+03  0.15285827981E+03  0.00000000000E+00 0.  1.
</event>
<event>
 4    1  0.6629728E+001  0.2357886E+02  0.7546771E-02  0.1485354E+00
          2   -1    0    0  502    0  0.00000000000E+00  0.00000000000E+00  0.10790661416E+02  0.10790661416E+02  0.00000000000E+00 0.  1.
         -2   -1    0    0    0  501 -0.00000000000E+00 -0.00000000000E+00 -0.63660967275E+02  0.63660967275E+02  0.00000000000E+00 0. -1.
          1    1    1    2  502    0 -0.85144513844E+00 -0.23563485426E+02 -0.42690189059E+02  0.48768996772E+02  0.00000000000E+00 0.  1.
         -1    1    1    2    0  501  0.85144513844E+00  0.23563485426E+02 -0.10180116799E+02  0.25682631919E+02  0.00000000000E+00 0. -1.
</event>
<event>
 4    1  0.6629728E+001  0.3143061E+02  0.7546771E-02  0.1407559E+00
          2   -1    0    0  502    0  0.00000000000E+00  0.00000000000E+00  0.32162585245E+02  0.32162585245E+02  0.00000000000E+00 0.  1.
         -2   -1    0    0    0  501 -0.00000000000E+00 -0.00000000000E+00 -0.56688321245E+02  0.56688321245E+02  0.00000000000E+00 0. -1.
          1    1    1    2  502    0  0.19914496132E+02 -0.24316582520E+02  0.17808025604E+02  0.36124909931E+02  0.00000000000E+00 0.  1.
         -1    1    1    2    0  501 -0.19914496132E+02  0.24316582520E+02 -0.42333761604E+02  0.52725996559E+02  0.00000000000E+00 0. -1.
</event>
<event>
 4    1  0.6629728E+001  0.2022657E+02  0.7546771E-02  0.1530600E+00
          2   -1    0    0  502    0  0.00000000000E+00  0.00000000000E+00  0.74858526516E+03  0.74858526516E+03  0.00000000000E+00 0.  1.
         -2   -1    0    0    0  501 -0.00000000000E+00 -0.00000000000E+00 -0.17938707220E+01  0.17938707220E+01  0.00000000000E+00 0. -1.
          1    1    1    2  502    0  0.13122938926E+02 -0.15391635412E+02  0.68625576731E+03  0.68655377949E+03  0.00000000000E+00 0.  1.
         -1    1    1    2    0  501 -0.13122938926E+02  0.15391635412E+02  0.60535627126E+02  0.63825356390E+02  0.00000000000E+00 0. -1.
</event>
<event>
 4    1  0.6629728E+001  0.5610816E+02  0.7546771E-02  0.1273662E+00
          2   -1    0    0  502    0  0.00000000000E+00  0.00000000000E+00  0.78919853677E+01  0.78919853677E+01  0.00000000000E+00 0. -1.
         -2   -1    0    0    0  501 -0.00000000000E+00 -0.00000000000E+00 -0.44381747818E+03  0.44381747818E+03  0.00000000000E+00 0.  1.
          1    1    1    2  502    0  0.27945575428E+02 -0.48653570691E+02 -0.28981282119E+03  0.29519416738E+03  0.00000000000E+00 0.  1.
         -1    1    1    2    0  501 -0.27945575428E+02  0.48653570691E+02 -0.14611267162E+03  0.15651529617E+03  0.00000000000E+00 0. -1.
</event>
<event>
 4    1  0.6629728E+001  0.2963284E+02  0.7546771E-02  0.1422814E+00
          2   -1    0    0  502    0  0.00000000000E+00  0.00000000000E+00  0.13731727801E+02  0.13731727801E+02  0.00000000000E+00 0.  1.
         -2   -1    0    0    0  501 -0.00000000000E+00 -0.00000000000E+00 -0.65397857911E+02  0.65397857911E+02  0.00000000000E+00 0. -1.
          1    1    1    2  502    0  0.26429475945E+02 -0.13401035151E+02 -0.31725790461E+02  0.43412333757E+02  0.00000000000E+00 0. -1.
         -1    1    1    2    0  501 -0.26429475945E+02  0.13401035151E+02 -0.19940339649E+02  0.35717251955E+02  0.00000000000E+00 0.  1.
</event>
<event>
 4    1  0.6629728E+001  0.2178690E+02  0.7546771E-02  0.1508320E+00
          2   -1    0    0  502    0  0.00000000000E+00  0.00000000000E+00  0.20552762752E+04  0.20552762752E+04  0.00000000000E+00 0.  1.
         -2   -1    0    0    0  501 -0.00000000000E+00 -0.00000000000E+00 -0.24712011890E+00  0.24712011890E+00  0.00000000000E+00 0. -1.
          1    1    1    2  502    0 -0.58015183397E+01  0.21000275744E+02  0.76462433823E+03  0.76493466898E+03  0.00000000000E+00 0. -1.
         -1    1    1    2    0  501  0.58015183397E+01 -0.21000275744E+02  0.12904048169E+04  0.12905887264E+04  0.00000000000E+00 0.  1.
</event>
<event>
 4    1  0.6629728E+001  0.3087191E+02  0.7546771E-02  0.1412168E+00
          2   -1    0    0  502    0  0.00000000000E+00  0.00000000000E+00  0.23310744804E+04  0.23310744804E+04  0.00000000000E+00 0.  1.
         -2   -1    0    0    0  501 -0.00000000000E+00 -0.00000000000E+00 -0.15414924907E+01  0.15414924907E+01  0.00000000000E+00 0. -1.
          1    1    1    2  502    0 -0.11270766446E+02  0.28740997866E+02  0.21645079625E+04  0.21647281111E+04  0.00000000000E+00 0.  1.
         -1    1    1    2    0  501  0.11270766446E+02 -0.28740997866E+02  0.16502502532E+03  0.16788786173E+03  0.00000000000E+00 0. -1.
</event>
<event>
 4    1  0.6629728E+001  0.2330118E+02  0.7546771E-02  0.1488750E+00
          2   -1    0    0  502    0  0.00000000000E+00  0.00000000000E+00  0.52133278157E+02  0.52133278157E+02  0.00000000000E+00 0. -1.
         -2   -1    0    0    0  501 -0.00000000000E+00 -0.00000000000E+00 -0.11491007579E+02  0.11491007579E+02  0.00000000000E+00 0.  1.
          1    1    1    2  502    0  0.31962438411E+01  0.23080927748E+02  0.10584472498E+02  0.25592503950E+02  0.00000000000E+00 0.  1.
         -1    1    1    2    0  501 -0.31962438411E+01 -0.23080927748E+02  0.30057798080E+02  0.38031781786E+02  0.00000000000E+00 0. -1.
</event>
<event>
 4    1  0.6629728E+001  0.2155546E+02  0.7546771E-02  0.1511480E+00
          2   -1    0    0  502    0  0.00000000000E+00  0.00000000000E+00  0.23677407329E+02  0.23677407329E+02  0.00000000000E+00 0.  1.
         -2   -1    0    0    0  501 -0.00000000000E+00 -0.00000000000E+00 -0.20029620599E+02  0.20029620599E+02  0.00000000000E+00 0. -1.
          1    1    1    2  502    0 -0.18638015253E+02 -0.10828763558E+02 -0.12872436802E+01  0.21593858596E+02  0.00000000000E+00 0. -1.
         -1    1    1    2    0  501  0.18638015253E+02  0.10828763558E+02  0.49350304101E+01  0.22113169332E+02  0.00000000000E+00 0.  1.
</event>
<event>
 4    1  0.6629728E+001  0.2343475E+02  0.7546771E-02  0.1487110E+00
          2   -1    0    0  502    0  0.00000000000E+00  0.00000000000E+00  0.73236916400E+01  0.73236916400E+01  0.00000000000E+00 0. -1.
         -2   -1    0    0    0  501 -0.00000000000E+00 -0.00000000000E+00 -0.95011329006E+02  0.95011329006E+02  0.00000000000E+00 0.  1.
          1    1    1    2  502    0 -0.12662530825E+02 -0.19719220605E+02 -0.67333501923E+02  0.71295075772E+02  0.00000000000E+00 0.  1.
         -1    1    1    2    0  501  0.12662530825E+02  0.19719220605E+02 -0.20354135443E+02  0.31039944874E+02  0.00000000000E+00 0. -1.
</event>
<event>
 4    1  0.6629728E+001  0.2798641E+02  0.7546771E-02  0.1437943E+00
          2   -1    0    0  502    0  0.00000000000E+00  0.00000000000E+00  0.19145496907E+04  0.19145496907E+04  0.00000000000E+00 0.  1.
         -2   -1    0    0    0  501 -0.00000000000E+00 -0.00000000000E+00 -0.40962396449E+00  0.40962396449E+00  0.00000000000E+00 0. -1.
          1    1    1    2  502    0 -0.27824109083E+02 -0.30097086792E+01  0.92277655020E+03  0.92320084543E+03  0.00000000000E+00 0. -1.
         -1    1    1    2    0  501  0.27824109083E+02  0.30097086792E+01  0.99136351655E+03  0.99175846925E+03  0.00000000000E+00 0.  1.
</event>
<event>
 4    1  0.6629728E+001  0.7897004E+02  0.7546771E-02  0.1206259E+00
          2   -1    0    0  502    0  0.00000000000E+00  0.00000000000E+00  0.31406971926E+03  0.31406971926E+03  0.00000000000E+00 0.  1.
         -2   -1    0    0    0  501 -0.00000000000E+00 -0.00000000000E+00 -0.33310794951E+02  0.33310794951E+02  0.00000000000E+00 0. -1.
          1    1    1    2  502    0  0.64559489325E+02  0.45478998354E+02  0.29992842541E+02  0.84473886834E+02  0.00000000000E+00 0. -1.
         -1    1    1    2    0  501 -0.64559489325E+02 -0.45478998354E+02  0.25076608176E+03  0.26290662737E+03  0.00000000000E+00 0.  1.
</event>
<event>
 4    1  0.6629728E+001  0.2329185E+02  0.7546771E-02  0.1488866E+00
          2   -1    0    0  502    0  0.00000000000E+00  0.00000000000E+00  0.10005778795E+03  0.10005778795E+03  0.00000000000E+00 0.  1.
         -2   -1    0    0    0  501 -0.00000000000E+00 -0.00000000000E+00 -0.84473821808E+01  0.84473821808E+01  0.00000000000E+00 0. -1.
          1    1    1    2  502    0 -0.14665929969E+02 -0.18094774117E+02  0.13337495690E+02  0.26840252299E+02  0.00000000000E+00 0. -1.
         -1    1    1    2    0  501  0.14665929969E+02  0.18094774117E+02  0.78272910082E+02  0.81664917835E+02  0.00000000000E+00 0.  1.
</event>
<event>
 4    1  0.6629728E+001  0.2087244E+02  0.7546771E-02  0.1521094E+00
          2   -1    0    0  502    0  0.00000000000E+00  0.00000000000E+00  0.10917985803E+03  0.10917985803E+03  0.00000000000E+00 0. -1.
         -2   -1    0    0    0  501 -0.00000000000E+00 -0.00000000000E+00 -0.43518827633E+01  0.43518827633E+01  0.00000000000E+00 0.  1.
          1    1    1    2  502    0  0.39915556382E+01 -0.20487218886E+02  0.68776956414E+02  0.71874393129E+02  0.00000000000E+00 0. -1.
         -1    1    1    2    0  501 -0.39915556382E+01  0.20487218886E+02  0.36051018849E+02  0.41657347661E+02  0.00000000000E+00 0.  1.
</event>
<event>
 4    1  0.6629728E+001  0.2051044E+02  0.7546771E-02  0.1526371E+00
          2   -1    0    0  502    0  0.00000000000E+00  0.00000000000E+00  0.43830064654E+03  0.43830064654E+03  0.00000000000E+00 0.  1.
         -2   -1    0    0    0  501 -0.00000000000E+00 -0.00000000000E+00 -0.95979405113E+00  0.95979405113E+00  0.00000000000E+00 0. -1.
          1    1    1    2  502    0  0.17034623528E+02 -0.11423649371E+02  0.21852302986E+03  0.21948346804E+03  0.00000000000E+00 0.  1.
         -1    1    1    2    0  501 -0.17034623528E+02  0.11423649371E+02  0.21881782262E+03  0.21977697254E+03  0.00000000000E+00 0. -1.
</event>
<event>
 4    1  0.6629728E+001  0.2991895E+02  0.7546771E-02  0.1420302E+00
          2   -1    0    0  502    0  0.00000000000E+00  0.00000000000E+00  0.90716476611E+02  0.90716476611E+02  0.00000000000E+00 0. -1.
         -2   -1    0    0    0  501 -0.00000000000E+00 -0.00000000000E+00 -0.10125979647E+02  0.10125979647E+02  0.00000000000E+00 0.  1.
          1    1    1    2  502    0 -0.27351004259E+02 -0.12127076183E+02  0.32239215399E+02  0.43983069700E+02  0.00000000000E+00 0.  1.
         -1    1    1    2    0  501  0.27351004259E+02  0.12127076183E+02  0.48351281565E+02  0.56859386558E+02  0.00000000000E+00 0. -1.
</event>
<event>
 4    1  0.6629728E+001  0.2539781E+02  0.7546771E-02  0.1464402E+00
          2   -1    0    0  502    0  0.00000000000E+00  0.00000000000E+00  0.45197707963E+03  0.45197707963E+03  0.00000000000E+00 0.  1.
         -2   -1    0    0    0  501 -0.00000000000E+00 -0.00000000000E+00 -0.15049559973E+01  0.15049559973E+01  0.00000000000E+00 0. -1.
          1    1    1    2  502    0  0.66184502646E+01  0.24520299138E+02  0.27678429775E+03  0.27794711086E+03  0.00000000000E+00 0. -1.
         -1    1    1    2    0  501 -0.66184502646E+01 -0.24520299138E+02  0.17368782589E+03  0.17553492477E+03  0.00000000000E+00 0.  1.
</event>
<event>
 4    1  0.6629728E+001  0.2228985E+02  0.7546771E-02  0.1501613E+00
          2   -1    0    0  502    0  0.00000000000E+00  0.00000000000E+00  0.97433317777E+03  0.97433317777E+03  0.00000000000E+00 0. -1.
         -2   -1    0    0    0  501 -0.00000000000E+00 -0.00000000000E+00 -0.62110772227E+00  0.62110772227E+00  0.00000000000E+00 0.  1.
          1    1    1    2  502    0 -0.34718165479E+01  0.22017809021E+02  0.69310334099E+03  0.69346166348E+03  0.00000000000E+00 0. -1.
         -1    1    1    2    0  501  0.34718165479E+01 -0.22017809021E+02  0.28060872906E+03  0.28149262202E+03  0.00000000000E+00 0.  1.
</event>
<event>
 4    1  0.6629728E+001  0.2931819E+02  0.7546771E-02  0.1425615E+00
          2   -1    0    0  502    0  0.00000000000E+00  0.00000000000E+00  0.20886604655E+01  0.20886604655E+01  0.00000000000E+00 0. -1.
         -2   -1    0    0    0  501 -0.00000000000E+00 -0.00000000000E+00 -0.41206577462E+03  0.41206577462E+03  0.00000000000E+00 0.  1.
          1    1    1    2  502    0  0.40619347396E+01  0.29035443313E+02 -0.19755456487E+03  0.19971820744E+03  0.00000000000E+00 0.  1.
         -1    1    1    2    0  501 -0.40619347396E+01 -0.29035443313E+02 -0.21242254929E+03  0.21443622765E+03  0.00000000000E+00 0. -1.
</event>
<event>
 4    1  0.6629728E+001  0.2857755E+02  0.7546771E-02  0.1432374E+00
          2   -1    0    0  502    0  0.00000000000E+00  0.00000000000E+00  0.18430740015E+04  0.18430740015E+04  0.00000000000E+00 0.  1.
         -2   -1    0    0    0  501 -0.00000000000E+00 -0.00000000000E+00 -0.44382597986E+00  0.44382597986E+00  0.00000000000E+00 0. -1.
          1    1    1    2  502    0  0.10743253636E+02 -0.26481293064E+02  0.95845122393E+03  0.95887716890E+03  0.00000000000E+00 0.  1.
         -1    1    1    2    0  501 -0.10743253636E+02  0.26481293064E+02  0.88417895161E+03  0.88464065860E+03  0.00000000000E+00 0. -1.
</event>
<event>
 4    1  0.6629728E+001  0.4886991E+02  0.7546771E-02  0.1303148E+00
          2   -1    0    0  502    0  0.00000000000E+00  0.00000000000E+00  0.11100467087E+02  0.11100467087E+02  0.00000000000E+00 0.  1.
         -2   -1    0    0    0  501 -0.00000000000E+00 -0.00000000000E+00 -0.21519630800E+03  0.21519630800E+03  0.00000000000E+00 0. -1.
          1    1    1    2  502    0  0.82909110407E+01 -0.48161484224E+02 -0.10370405610E+03  0.11464204735E+03  0.00000000000E+00 0.  1.
         -1    1    1    2    0  501 -0.82909110407E+01  0.48161484224E+02 -0.10039178481E+03  0.11165472774E+03  0.00000000000E+00 0. -1.
</event>
<event>
 4    1  0.6629728E+001  0.3379357E+02  0.7546771E-02  0.1389249E+00
          2   -1    0    0  502    0  0.00000000000E+00  0.00000000000E+00  0.30805918660E+02  0.30805918660E+02  0.00000000000E+00 0. -1.
         -2   -1    0    0    0  501 -0.00000000000E+00 -0.00000000000E+00 -0.57273063985E+02  0.57273063985E+02  0.00000000000E+00 0.  1.
          1    1    1    2  502    0 -0.18508756161E+02 -0.28274219365E+02  0.12922057751E+02  0.36179899279E+02  0.00000000000E+00 0. -1.
         -1    1    1    2    0  501  0.18508756161E+02  0.28274219365E+02 -0.39389203075E+02  0.51899083366E+02  0.00000000000E+00 0.  1.
</event>
<event>
 4    1  0.6629728E+001  0.2000889E+02  0.7546771E-02  0.1533900E+00
          2   -1    0    0  502    0  0.00000000000E+00  0.00000000000E+00  0.51689117417E+03  0.51689117417E+03  0.00000000000E+00 0. -1.
         -2   -1    0    0    0  501 -0.00000000000E+00 -0.00000000000E+00 -0.78247291302E+00  0.78247291302E+00  0.00000000000E+00 0.  1.
          1    1    1    2  502    0 -0.69364018882E+01  0.18768113654E+02  0.23200147620E+03  0.23286270788E+03  0.00000000000E+00 0.  1.
         -1    1    1    2    0  501  0.69364018882E+01 -0.18768113654E+02  0.28410722505E+03  0.28481093920E+03  0.00000000000E+00 0. -1.
</event>
<event>
 4    1  0.6629728E+001  0.2195796E+02  0.7546771E-02  0.1506015E+00
          2   -1    0    0  502    0  0.00000000000E+00  0.00000000000E+00  0.24166699557E+03  0.24166699557E+03  0.00000000000E+00 0. -1.
         -2   -1    0    0    0  501 -0.00000000000E+00 -0.00000000000E+00 -0.28194400188E+01  0.28194400188E+01  0.00000000000E+00 0.  1.
          1    1    1    2  502    0  0.11657609268E+02  0.18607847515E+02  0.18552269317E+03  0.18681761567E+03  0.00000000000E+00 0. -1.
         -1    1    1    2    0  501 -0.11657609268E+02 -0.18607847515E+02  0.53324862379E+02  0.57668819918E+02  0.00000000000E+00 0.  1.
</event>
<event>
 4    1  0.6629728E+001  0.9458065E+02  0.7546771E-02  0.1173545E+00
          2   -1    0    0  502    0  0.00000000000E+00  0.00000000000E+00  0.37052847652E+02  0.37052847652E+02  0.00000000000E+00 0. -1.
         -2   -1    0    0    0  501 -0.00000000000E+00 -0.00000000000E+00 -0.26484849786E+03  0.26484849786E+03  0.00000000000E+00 0.  1.
          1    1    1    2  502    0  0.66813494889E+02 -0.66943675785E+02 -0.15878873382E+03  0.18482251166E+03  0.00000000000E+00 0.  1.
         -1    1    1    2    0  501 -0.66813494889E+02  0.66943675785E+02 -0.69006916383E+02  0.11707883385E+03  0.00000000000E+00 0. -1.
</event>
<event>
 4    1  0.6629728E+001  0.5324502E+02  0.7546771E-02  0.1284685E+00
          2   -1    0    0  502    0  0.00000000000E+00  0.00000000000E+00  0.40399411824E+02  0.40399411824E+02  0.00000000000E+00 0.  1.
         -2   -1    0    0    0  501 -0.00000000000E+00 -0.00000000000E+00 -0.70916706015E+02  0.70916706015E+02  0.00000000000E+00 0. -1.
          1    1    1    2  502    0  0.36381227237E+02 -0.38877218118E+02 -0.95668749093E+01  0.54097660572E+02  0.00000000000E+00 0.  1.
         -1    1    1    2    0  501 -0.36381227237E+02  0.38877218118E+02 -0.20950419282E+02  0.57218457267E+02  0.00000000000E+00 0. -1.
</event>
<event>
 4    1  0.6629728E+001  0.2276195E+02  0.7546771E-02  0.1495509E+00
          2   -1    0    0  502    0  0.00000000000E+00  0.00000000000E+00  0.11112598236E+02  0.11112598236E+02  0.00000000000E+00 0.  1.
         -2   -1    0    0    0  501 -0.00000000000E+00 -0.00000000000E+00 -0.47595074024E+02  0.47595074024E+02  0.00000000000E+00 0. -1.
          1    1    1    2  502    0 -0.15449153762E+02 -0.16716155747E+02 -0.14046911630E+02  0.26747372605E+02  0.00000000000E+00 0.  1.
         -1    1    1    2    0  501  0.15449153762E+02  0.16716155747E+02 -0.22435564158E+02  0.31960299655E+02  0.00000000000E+00 0. -1.
</event>
<event>
 4    1  0.6629728E+001  0.2376665E+02  0.7546771E-02  0.1483089E+00
          2   -1    0    0  502    0  0.00000000000E+00  0.00000000000E+00  0.68175486837E+03  0.68175486837E+03  0.00000000000E+00 0.  1.
         -2   -1    0    0    0  501 -0.00000000000E+00 -0.00000000000E+00 -0.82854095355E+00  0.82854095355E+00  0.00000000000E+00 0. -1.
          1    1    1    2  502    0  0.23183547933E+02 -0.52322729083E+01  0.33915852234E+03  0.33999023052E+03  0.00000000000E+00 0.  1.
         -1    1    1    2    0  501 -0.23183547933E+02  0.52322729083E+01  0.34176780507E+03  0.34259317880E+03  0.00000000000E+00 0. -1.
</event>
<event>
 4    1  0.6629728E+001  0.2199132E+02  0.7546771E-02  0.1505568E+00
          2   -1    0    0  502    0  0.00000000000E+00  0.00000000000E+00  0.12818299931E+04  0.12818299931E+04  0.00000000000E+00 0. -1.
         -2   -1    0    0    0  501 -0.00000000000E+00 -0.00000000000E+00 -0.38372670877E+00  0.38372670877E+00  0.00000000000E+00 0.  1.
          1    1    1    2  502    0  0.21243523715E+02  0.56860296239E+01  0.72377338350E+03  0.72410740149E+03  0.00000000000E+00 0. -1.
         -1    1    1    2    0  501 -0.21243523715E+02 -0.56860296239E+01  0.55767288294E+03  0.55810631836E+03  0.00000000000E+00 0.  1.
</event>
<event>
 4    1  0.6629728E+001  0.3621910E+02  0.7546771E-02  0.1372189E+00
          2   -1    0    0  502    0  0.00000000000E+00  0.00000000000E+00  0.26802407706E+02  0.26802407706E+02  0.00000000000E+00 0.  1.
         -2   -1    0    0    0  501 -0.00000000000E+00 -0.00000000000E+00 -0.49088009428E+02  0.49088009428E+02  0.00000000000E+00 0. -1.
          1    1    1    2  502    0  0.54722245178E+01 -0.35803322716E+02 -0.13196422113E+02  0.38548264751E+02  0.00000000000E+00 0.  1.
         -1    1    1    2    0  501 -0.54722245178E+01  0.35803322716E+02 -0.90891796091E+01  0.37342152384E+02  0.00000000000E+00 0. -1.
</event>
<event>
 4    1  0.6629728E+001  0.3004162E+02  0.7546771E-02  0.1419235E+00
          2   -1    0    0  502    0  0.00000000000E+00  0.00000000000E+00  0.21321837283E+04  0.21321837283E+04  0.00000000000E+00 0. -1.
         -2   -1    0    0    0  501 -0.00000000000E+00 -0.00000000000E+00 -0.58632988676E+00  0.58632988676E+00  0.00000000000E+00 0.  1.
          1    1    1    2  502    0 -0.20483060479E+02  0.21975970871E+02  0.50344369912E+03  0.50433922834E+03  0.00000000000E+00 0.  1.
         -1    1    1    2    0  501  0.20483060479E+02 -0.21975970871E+02  0.16281536993E+04  0.16284308299E+04  0.00000000000E+00 0. -1.
</event>
<event>
 4    1  0.6629728E+001  0.2627976E+02  0.7546771E-02  0.1454980E+00
          2   -1    0    0  502    0  0.00000000000E+00  0.00000000000E+00  0.54994705936E+02  0.54994705936E+02  0.00000000000E+00 0.  1.
         -2   -1    0    0    0  501 -0.00000000000E+00 -0.00000000000E+00 -0.12558773743E+02  0.12558773743E+02  0.00000000000E+00 0. -1.
          1    1    1    2  502    0  0.34351352468E+01 -0.26054286327E+02  0.20960665519E+02  0.33615108049E+02  0.00000000000E+00 0. -1.
         -1    1    1    2    0  501 -0.34351352468E+01  0.26054286327E+02  0.21475266674E+02  0.33938371630E+02  0.00000000000E+00 0.  1.
</event>
<event>
 4    1  0.6629728E+001  0.2014859E+02  0.7546771E-02  0.1531776E+00
          2   -1    0    0  502    0  0.00000000000E+00  0.00000000000E+00  0.45092528368E+03  0.45092528368E+03  0.00000000000E+00 0. -1.
         -2   -1    0    0    0  501 -0.00000000000E+00 -0.00000000000E+00 -0.10423193546E+01  0.10423193546E+01  0.00000000000E+00 0.  1.
          1    1    1    2  502    0 -0.15986449523E+02  0.12263724205E+02  0.14152357965E+03  0.14295065266E+03  0.00000000000E+00 0.  1.
         -1    1    1    2    0  501  0.15986449523E+02 -0.12263724205E+02  0.30835938468E+03  0.30901695038E+03  0.00000000000E+00 0. -1.
</event>
<event>
 4    1  0.6629728E+001  0.3108598E+02  0.7546771E-02  0.1410388E+00
          2   -1    0    0  502    0  0.00000000000E+00  0.00000000000E+00  0.83015063188E+03  0.83015063188E+03  0.00000000000E+00 0. -1.
         -2   -1    0    0    0  501 -0.00000000000E+00 -0.00000000000E+00 -0.11980178728E+01  0.11980178728E+01  0.00000000000E+00 0.  1.
          1    1    1    2  502    0 -0.22588809552E+02 -0.21356115422E+02  0.48446807261E+03  0.48546436673E+03  0.00000000000E+00 0. -1.
         -1    1    1    2    0  501  0.22588809552E+02  0.21356115422E+02  0.34448454140E+03  0.34588428302E+03  0.00000000000E+00 0.  1.
</event>
<event>
 4    1  0.6629728E+001  0.8119716E+02  0.7546771E-02  0.1201095E+00
          2   -1    0    0  502    0  0.00000000000E+00  0.00000000000E+00  0.16128821929E+03  0.16128821929E+03  0.00000000000E+00 0.  1.
         -2   -1    0    0    0  501 -0.00000000000E+00 -0.00000000000E+00 -0.49997216945E+02  0.49997216945E+02  0.00000000000E+00 0. -1.
          1    1    1    2  502    0  0.75719167126E+02 -0.29318711860E+02  0.10525495222E+02  0.81876524017E+02  0.00000000000E+00 0.  1.
         -1    1    1    2    0  501 -0.75719167126E+02  0.29318711860E+02  0.10076550712E+03  0.12940891221E+03  0.00000000000E+00 0. -1.
</event>
<event>
 4    1  0.6629728E+001  0.2077024E+02  0.7546771E-02  0.1522571E+00
          2   -1    0    0  502    0  0.00000000000E+00  0.00000000000E+00  0.16305511797E+03  0.16305511797E+03  0.00000000000E+00 0. -1.
         -2   -1    0    0    0  501 -0.00000000000E+00 -0.00000000000E+00 -0.26465690542E+01  0.26465690542E+01  0.00000000000E+00 0.  1.
          1    1    1    2  502    0  0.20534370236E+02 -0.31212713552E+01  0.78744678459E+02  0.81437872525E+02  0.00000000000E+00 0.  1.
         -1    1    1    2    0  501 -0.20534370236E+02  0.31212713552E+01  0.81663870457E+02  0.84263814499E+02  0.00000000000E+00 0. -1.
</event>
<event>
 4    1  0.6629728E+001  0.2955959E+02  0.7546771E-02  0.1423463E+00
          2   -1    0    0  502    0  0.00000000000E+00  0.00000000000E+00  0.24985555951E+04  0.24985555951E+04  0.00000000000E+00 0.  1.
         -2   -1    0    0    0  501 -0.00000000000E+00 -0.00000000000E+00 -0.35079165072E+00  0.35079165072E+00  0.00000000000E+00 0. -1.
          1    1    1    2  502    0 -0.20671002230E+02 -0.21130052680E+02  0.13184884970E+04  0.13188198081E+04  0.00000000000E+00 0.  1.
         -1    1    1    2    0  501  0.20671002230E+02  0.21130052680E+02  0.11797163065E+04  0.11800865787E+04  0.00000000000E+00 0. -1.
</event>
<event>
 4    1  0.6629728E+001  0.4700130E+02  0.7546771E-02  0.1311725E+00
          2   -1    0    0  502    0  0.00000000000E+00  0.00000000000E+00  0.43575968430E+03  0.43575968430E+03  0.00000000000E+00 0. -1.
         -2   -1    0    0    0  501 -0.00000000000E+00 -0.00000000000E+00 -0.51371664440E+01  0.51371664440E+01  0.00000000000E+00 0.  1.
          1    1    1    2  502    0  0.66794136994E+01 -0.46524272851E+02  0.24059526262E+03  0.24514322941E+03  0.00000000000E+00 0. -1.
         -1    1    1    2    0  501 -0.66794136994E+01  0.46524272851E+02  0.19002725523E+03  0.19575362133E+03  0.00000000000E+00 0.  1.
</event>
<event>
 4    1  0.6629728E+001  0.3709614E+02  0.7546771E-02  0.1366397E+00
          2   -1    0    0  502    0  0.00000000000E+00  0.00000000000E+00  0.10495612817E+04  0.10495612817E+04  0.00000000000E+00 0. -1.
         -2   -1    0    0    0  501 -0.00000000000E+00 -0.00000000000E+00 -0.18571371658E+01  0.18571371658E+01  0.00000000000E+00 0.  1.
          1    1    1    2  502    0 -0.36965571410E+02 -0.31097361714E+01  0.23880408817E+03  0.24166819496E+03  0.00000000000E+00 0.  1.
         -1    1    1    2    0  501  0.36965571410E+02  0.31097361714E+01  0.80890005635E+03  0.80975022389E+03  0.00000000000E+00 0. -1.
</event>
<event>
 4    1  0.6629728E+001  0.6027894E+02  0.7546771E-02  0.1258888E+00
          2   -1    0    0  502    0  0.00000000000E+00  0.00000000000E+00  0.77091689433E+02  0.77091689433E+02  0.00000000000E+00 0. -1.
         -2   -1    0    0    0  501 -0.00000000000E+00 -0.00000000000E+00 -0.56244543771E+02  0.56244543771E+02  0.00000000000E+00 0.  1.
          1    1    1    2  502    0  0.56664526442E+02 -0.20559226434E+02 -0.16409953967E+02  0.62472689535E+02  0.00000000000E+00 0.  1.
         -1    1    1    2    0  501 -0.56664526442E+02  0.20559226434E+02  0.37257099629E+02  0.70863543669E+02  0.00000000000E+00 0. -1.
</event>
<event>
 4    1  0.6629728E+001  0.2314066E+02  0.7546771E-02  0.1490739E+00
          2   -1    0    0  502    0  0.00000000000E+00  0.00000000000E+00  0.30326982882E+01  0.30326982882E+01  0.00000000000E+00 0. -1.
         -2   -1    0    0    0  501 -0.00000000000E+00 -0.00000000000E+00 -0.35562865916E+03  0.35562865916E+03  0.00000000000E+00 0.  1.
          1    1    1    2  502    0  0.63360312242E+01 -0.22256348569E+02 -0.49049923852E+02  0.54234540407E+02  0.00000000000E+00 0. -1.
         -1    1    1    2    0  501 -0.63360312242E+01  0.22256348569E+02 -0.30354603702E+03  0.30442681704E+03  0.00000000000E+00 0.  1.
</event>
<event>
 4    1  0.6629728E+001  0.2402980E+02  0.7546771E-02  0.1479957E+00
          2   -1    0    0  502    0  0.00000000000E+00  0.00000000000E+00  0.80471254795E+03  0.80471254795E+03  0.00000000000E+00 0. -1.
         -2   -1    0    0    0  501 -0.00000000000E+00 -0.00000000000E+00 -0.20964104067E+01  0.20964104067E+01  0.00000000000E+00 0.  1.
          1    1    1    2  502    0  0.23950146770E+02  0.19548756779E+01  0.72846855000E+03  0.72886477443E+03  0.00000000000E+00 0. -1.
         -1    1    1    2    0  501 -0.23950146770E+02 -0.19548756779E+01  0.74147587550E+02  0.77944183931E+02  0.00000000000E+00 0.  1.
</event>
<event>
 4    1  0.6629728E+001  0.2848029E+02  0.7546771E-02  0.1433279E+00
          2   -1    0    0  502    0  0.00000000000E+00  0.00000000000E+00  0.14333802991E+02  0.14333802991E+02  0.00000000000E+00 0.  1.
         -2   -1    0    0    0  501 -0.00000000000E+00 -0.00000000000E+00 -0.57134099671E+02  0.57134099671E+02  0.00000000000E+00 0. -1.
          1    1    1    2  502    0  0.24992653228E+02 -0.13656286472E+02 -0.17907836524E+02  0.33642495219E+02  0.00000000000E+00 0.  1.
         -1    1    1    2    0  501 -0.24992653228E+02  0.13656286472E+02 -0.24892460156E+02  0.37825407443E+02  0.00000000000E+00 0. -1.
</event>
<event>
 4    1  0.6629728E+001  0.2530195E+02  0.7546771E-02  0.1465454E+00
          2   -1    0    0  502    0  0.00000000000E+00  0.00000000000E+00  0.10235378009E+01  0.10235378009E+01  0.00000000000E+00 0. -1.
         -2   -1    0    0    0  501 -0.00000000000E+00 -0.00000000000E+00 -0.95507755126E+03  0.95507755126E+03  0.00000000000E+00 0.  1.
          1    1    1    2  502    0 -0.23598116726E+02 -0.91278391563E+01 -0.75786470822E+03  0.75828695394E+03  0.00000000000E+00 0.  1.
         -1    1    1    2    0  501  0.23598116726E+02  0.91278391563E+01 -0.19618930525E+03  0.19781413512E+03  0.00000000000E+00 0. -1.
</event>
<event>
 4    1  0.6629728E+001  0.2289749E+02  0.7546771E-02  0.1493789E+00
          2   -1    0    0  502    0  0.00000000000E+00  0.00000000000E+00  0.28171515221E+01  0.28171515221E+01  0.00000000000E+00 0.  1.
         -2   -1    0    0    0  501 -0.00000000000E+00 -0.00000000000E+00 -0.20739465668E+03  0.20739465668E+03  0.00000000000E+00 0. -1.
          1    1    1    2  502    0  0.20880445529E+02  0.93969236490E+01 -0.68615942238E+02  0.72335625447E+02  0.00000000000E+00 0.  1.
         -1    1    1    2    0  501 -0.20880445529E+02 -0.93969236490E+01 -0.13596156292E+03  0.13787618276E+03  0.00000000000E+00 0. -1.
</event>
<event>
 4    1  0.6629728E+001  0.2113750E+02  0.7546771E-02  0.1517311E+00
          2   -1    0    0  502    0  0.00000000000E+00  0.00000000000E+00  0.49236065114E+03  0.49236065114E+03  0.00000000000E+00 0. -1.
         -2   -1    0    0    0  501 -0.00000000000E+00 -0.00000000000E+00 -0.14832486537E+01  0.14832486537E+01  0.00000000000E+00 0.  1.
          1    1    1    2  502    0 -0.21100855908E+02 -0.12440337989E+01  0.91592342591E+02  0.93999739156E+02  0.00000000000E+00 0.  1.
         -1    1    1    2    0  501  0.21100855908E+02  0.12440337989E+01  0.39928505990E+03  0.39984416064E+03  0.00000000000E+00 0. -1.
</event>
<event>
 4    1  0.6629728E+001  0.2049847E+02  0.7546771E-02  0.1526547E+00
          2   -1    0    0  502    0  0.00000000000E+00  0.00000000000E+00  0.91254048053E+03  0.91254048053E+03  0.00000000000E+00 0.  1.
         -2   -1    0    0    0  501 -0.00000000000E+00 -0.00000000000E+00 -0.51494196549E+00  0.51494196549E+00  0.00000000000E+00 0. -1.
          1    1    1    2  502    0 -0.12929020340E+01  0.20457653674E+02  0.60451043483E+03  0.60485787836E+03  0.00000000000E+00 0.  1.
         -1    1    1    2    0  501  0.12929020340E+01 -0.20457653674E+02  0.30751510373E+03  0.30819754414E+03  0.00000000000E+00 0. -1.
</event>
<event>
 4    1  0.6629728E+001  0.2551088E+02  0.7546771E-02  0.1463169E+00
          2   -1    0    0  502    0  0.00000000000E+00  0.00000000000E+00  0.48026771580E+03  0.48026771580E+03  0.00000000000E+00 0.  1.
         -2   -1    0    0    0  501 -0.00000000000E+00 -0.00000000000E+00 -0.13683606780E+01  0.13683606780E+01  0.00000000000E+00 0. -1.
          1    1    1    2  502    0  0.82457056227E+01  0.24141522041E+02  0.21573172341E+03  0.21723485272E+03  0.00000000000E+00 0.  1.
         -1    1    1    2    0  501 -0.82457056227E+01 -0.24141522041E+02  0.26316763171E+03  0.26440122376E+03  0.00000000000E+00 0. -1.
</event>
<event>
 4    1  0.6629728E+001  0.2550233E+02  0.7546771E-02  0.1463262E+00
          2   -1    0    0  502    0  0.00000000000E+00  0.00000000000E+00  0.43791294281E+01  0.43791294281E+01  0.00000000000E+00 0.  1.
         -2   -1    0    0    0  501 -0.00000000000E+00 -0.00000000000E+00 -0.31518893157E+03  0.31518893157E+03  0.00000000000E+00 0. -1.
          1    1    1    2  502    0  0.10756753334E+02 -0.23122734351E+02 -0.27159820060E+03  0.27279287226E+03  0.00000000000E+00 0. -1.
         -1    1    1    2    0  501 -0.10756753334E+02  0.23122734351E+02 -0.39211601545E+02  0.46775188743E+02  0.00000000000E+00 0.  1.
</event>
<event>
 4    1  0.6629728E+001  0.2932833E+02  0.7546771E-02  0.1425524E+00
          2   -1    0    0  502    0  0.00000000000E+00  0.00000000000E+00  0.69199068342E+02  0.69199068342E+02  0.00000000000E+00 0.  1.
         -2   -1    0    0    0  501 -0.00000000000E+00 -0.00000000000E+00 -0.15302824876E+02  0.15302824876E+02  0.00000000000E+00 0. -1.
          1    1    1    2  502    0  0.29259648259E+02  0.20059874645E+01  0.45254314262E+02  0.53926838970E+02  0.00000000000E+00 0.  1.
         -1    1    1    2    0  501 -0.29259648259E+02 -0.20059874645E+01  0.86419292035E+01  0.30575054249E+02  0.00000000000E+00 0. -1.
</event>
<event>
 4    1  0.6629728E+001  0.2292407E+02  0.7546771E-02  0.1493454E+00
          2   -1    0    0  502    0  0.00000000000E+00  0.00000000000E+00  0.61735398478E+03  0.61735398478E+03  0.00000000000E+00 0.  1.
         -2   -1    0    0    0  501 -0.00000000000E+00 -0.00000000000E+00 -0.96865065428E+00  0.96865065428E+00  0.00000000000E+00 0. -1.
          1    1    1    2  502    0  0.21363466335E+02 -0.83135724457E+01  0.20055482609E+03  0.20186072289E+03  0.00000000000E+00 0. -1.
         -1    1    1    2    0  501 -0.21363466335E+02  0.83135724457E+01  0.41583050804E+03  0.41646191254E+03  0.00000000000E+00 0.  1.
</event>
<event>
 4    1  0.6629728E+001  0.2017021E+02  0.7546771E-02  0.1531450E+00
          2   -1    0    0  502    0  0.00000000000E+00  0.00000000000E+00  0.84811390994E+03  0.84811390994E+03  0.00000000000E+00 0. -1.
         -2   -1    0    0    0  501 -0.00000000000E+00 -0.00000000000E+00 -0.59253897727E+00  0.59253897727E+00  0.00000000000E+00 0.  1.
          1    1    1    2  502    0 -0.76973126698E+01 -0.18643730567E+02  0.60894545499E+03  0.60927941412E+03  0.00000000000E+00 0. -1.
         -1    1    1    2    0  501  0.76973126698E+01  0.18643730567E+02  0.23857591597E+03  0.23942703480E+03  0.00000000000E+00 0.  1.
</event>
<event>
 4    1  0.6629728E+001  0.7894547E+02  0.7546771E-02  0.1206317E+00
          2   -1    0    0  502    0  0.00000000000E+00  0.00000000000E+00  0.16961920606E+03  0.16961920606E+03  0.00000000000E+00 0. -1.
         -2   -1    0    0    0  501 -0.00000000000E+00 -0.00000000000E+00 -0.40691448734E+02  0.40691448734E+02  0.00000000000E+00 0.  1.
          1    1    1    2  502    0 -0.45682007277E+02 -0.64385875095E+02  0.31709388945E+02  0.85075684234E+02  0.00000000000E+00 0.  1.
         -1    1    1    2    0  501  0.45682007277E+02  0.64385875095E+02  0.97218368383E+02  0.12523497056E+03  0.00000000000E+00 0. -1.
</event>
<event>
 4    1  0.6629728E+001  0.2019472E+02  0.7546771E-02  0.1531080E+00
          2   -1    0    0  502    0  0.00000000000E+00  0.00000000000E+00  0.38468919916E+01  0.38468919916E+01  0.00000000000E+00 0. -1.
         -2   -1    0    0    0  501 -0.00000000000E+00 -0.00000000000E+00 -0.10871581715E+03  0.10871581715E+03  0.00000000000E+00 0.  1.
          1    1    1    2  502    0  0.35347527165E+01 -0.19882962306E+02 -0.43562924000E+02  0.48016195333E+02  0.00000000000E+00 0. -1.
         -1    1    1    2    0  501 -0.35347527165E+01  0.19882962306E+02 -0.61306001162E+02  0.64546513812E+02  0.00000000000E+00 0.  1.
</event>
<event>
 4    1  0.6629728E+001  0.2117089E+02  0.7546771E-02  0.1516839E+00
          2   -1    0    0  502    0  0.00000000000E+00  0.00000000000E+00  0.10108109768E+02  0.10108109768E+02  0.00000000000E+00 0. -1.
         -2   -1    0    0    0  501 -0.00000000000E+00 -0.00000000000E+00 -0.50176082381E+02  0.50176082381E+02  0.00000000000E+00 0.  1.
          1    1    1    2  502    0 -0.21161084264E+02 -0.64434788684E+00 -0.97552999677E+01  0.23310352826E+02  0.00000000000E+00 0.  1.
         -1    1    1    2    0  501  0.21161084264E+02  0.64434788684E+00 -0.30312672645E+02  0.36973839323E+02  0.00000000000E+00 0. -1.
</event>
<event>
 4    1  0.6629728E+001  0.2004241E+02  0.7546771E-02  0.1533388E+00
          2   -1    0    0  502    0  0.00000000000E+00  0.00000000000E+00  0.45333839071E+02  0.45333839071E+02  0.00000000000E+00 0.  1.
         -2   -1    0    0    0  501 -0.00000000000E+00 -0.00000000000E+00 -0.94427188034E+01  0.94427188034E+01  0.00000000000E+00 0. -1.
          1    1    1    2  502    0  0.12038093942E+02 -0.16024429738E+02  0.24744085214E+02  0.31842861167E+02  0.00000000000E+00 0.  1.
         -1    1    1    2    0  501 -0.12038093942E+02  0.16024429738E+02  0.11147035054E+02  0.22933696708E+02  0.00000000000E+00 0. -1.
</event>
<event>
 4    1  0.6629728E+001  0.4987616E+02  0.7546771E-02  0.1298710E+00
          2   -1    0    0  502    0  0.00000000000E+00  0.00000000000E+00  0.15286929930E+04  0.15286929930E+04  0.00000000000E+00 0. -1.
         -2   -1    0    0    0  501 -0.00000000000E+00 -0.00000000000E+00 -0.20178618619E+01  0.20178618619E+01  0.00000000000E+00 0.  1.
          1    1    1    2  502    0 -0.18970039781E+02  0.46127741086E+02  0.42661948269E+03  0.42952510278E+03  0.00000000000E+00 0. -1.
         -1    1    1    2    0  501  0.18970039781E+02 -0.46127741086E+02  0.11000556484E+04  0.11011857521E+04  0.00000000000E+00 0.  1.
</event>
<event>
 4    1  0.6629728E+001  0.2703245E+02  0.7546771E-02  0.1447282E+00
          2   -1    0    0  502    0  0.00000000000E+00  0.00000000000E+00  0.96770751597E+02  0.96770751597E+02  0.00000000000E+00 0.  1.
         -2   -1    0    0    0  501 -0.00000000000E+00 -0.00000000000E+00 -0.75692554364E+01  0.75692554364E+01  0.00000000000E+00 0. -1.
          1    1    1    2  502    0  0.24759828966E+02  0.10849166629E+02  0.47135401285E+02  0.54336908279E+02  0.00000000000E+00 0.  1.
         -1    1    1    2    0  501 -0.24759828966E+02 -0.10849166629E+02  0.42066094875E+02  0.50003098754E+02  0.00000000000E+00 0. -1.
</event>
<event>
 4    1  0.6629728E+001  0.3770859E+02  0.7546771E-02  0.1362463E+00
          2   -1    0    0  502    0  0.00000000000E+00  0.00000000000E+00  0.14883440479E+04  0.14883440479E+04  0.00000000000E+00 0. -1.
         -2   -1    0    0    0  501 -0.00000000000E+00 -0.00000000000E+00 -0.15276828098E+01  0.15276828098E+01  0.00000000000E+00 0.  1.
          1    1    1    2  502    0  0.36890579437E+02  0.78117011003E+01  0.11993551834E+04  0.11999478295E+04  0.00000000000E+00 0. -1.
         -1    1    1    2    0  501 -0.36890579437E+02 -0.78117011003E+01  0.28746118163E+03  0.28992390117E+03  0.00000000000E+00 0.  1.
</event>
<event>
 4    1  0.6629728E+001  0.3278246E+02  0.7546771E-02  0.1396861E+00
          2   -1    0    0  502    0  0.00000000000E+00  0.00000000000E+00  0.27280023457E+02  0.27280023457E+02  0.00000000000E+00 0.  1.
         -2   -1    0    0    0  501 -0.00000000000E+00 -0.00000000000E+00 -0.42601729997E+02  0.42601729997E+02  0.00000000000E+00 0. -1.
          1    1    1    2  502    0 -0.25660970669E+02  0.20401090827E+02 -0.17247522948E+02  0.37042772175E+02  0.00000000000E+00 0. -1.
         -1    1    1    2    0  501  0.25660970669E+02 -0.20401090827E+02  0.19258164069E+01  0.32838981279E+02  0.00000000000E+00 0.  1.
</event>
<event>
 4    1  0.6629728E+001  0.2637907E+02  0.7546771E-02  0.1453947E+00
          2   -1    0    0  502    0  0.00000000000E+00  0.00000000000E+00  0.13311744728E+04  0.13311744728E+04  0.00000000000E+00 0. -1.
         -2   -1    0    0    0  501 -0.00000000000E+00 -0.00000000000E+00 -0.56755912808E+00  0.56755912808E+00  0.00000000000E+00 0.  1.
          1    1    1    2  502    0 -0.16818885711E+02 -0.20321915756E+02  0.85242640717E+03  0.85283447094E+03  0.00000000000E+00 0.  1.
         -1    1    1    2    0  501  0.16818885711E+02  0.20321915756E+02  0.47818050646E+03  0.47890756095E+03  0.00000000000E+00 0. -1.
</event>
<event>
 4    1  0.6629728E+001  0.2363591E+02  0.7546771E-02  0.1484664E+00
          2   -1    0    0  502    0  0.00000000000E+00  0.00000000000E+00  0.41313230975E+01  0.41313230975E+01  0.00000000000E+00 0. -1.
         -2   -1    0    0    0  501 -0.00000000000E+00 -0.00000000000E+00 -0.15261649735E+03  0.15261649735E+03  0.00000000000E+00 0.  1.
          1    1    1    2  502    0 -0.79928557392E+01  0.22243433110E+02 -0.47785280676E+02  0.53311247488E+02  0.00000000000E+00 0. -1.
         -1    1    1    2    0  501  0.79928557392E+01 -0.22243433110E+02 -0.10069989358E+03  0.10343657296E+03  0.00000000000E+00 0.  1.
</event>
<event>
 4    1  0.6629728E+001  0.2670952E+02  0.7546771E-02  0.1450548E+00
          2   -1    0    0  502    0  0.00000000000E+00  0.00000000000E+00  0.12331564049E+04  0.12331564049E+04  0.00000000000E+00 0.  1.
         -2   -1    0    0    0  501 -0.00000000000E+00 -0.00000000000E+00 -0.57987923578E+00  0.57987923578E+00  0.00000000000E+00 0. -1.
          1    1    1    2  502    0  0.26153739545E+02  0.54203614044E+01  0.58635830910E+03  0.58696632362E+03  0.00000000000E+00 0. -1.
         -1    1    1    2    0  501 -0.26153739545E+02 -0.54203614044E+01  0.64621821660E+03  0.64676996056E+03  0.00000000000E+00 0.  1.
</event>
<event>
 4    1  0.6629728E+001  0.2321468E+02  0.7546771E-02  0.1489820E+00
          2   -1    0    0  502    0  0.00000000000E+00  0.00000000000E+00  0.12335711934E+04  0.12335711934E+04  0.00000000000E+00 0.  1.
         -2   -1    0    0    0  501 -0.00000000000E+00 -0.00000000000E+00 -0.64857188398E+00  0.64857188398E+00  0.00000000000E+00 0. -1.
          1    1    1    2  502    0 -0.16981890762E+01 -0.23152480992E+02  0.96902426622E+03  0.96930230049E+03  0.00000000000E+00 0.  1.
         -1    1    1    2    0  501  0.16981890762E+01  0.23152480992E+02  0.26389835534E+03  0.26491746483E+03  0.00000000000E+00 0. -1.
</event>
<event>
 4    1  0.6629728E+001  0.2880524E+02  0.7546771E-02  0.1430271E+00
          2   -1    0    0  502    0  0.00000000000E+00  0.00000000000E+00  0.71761087530E+01  0.71761087530E+01  0.00000000000E+00 0.  1.
         -2   -1    0    0    0  501 -0.00000000000E+00 -0.00000000000E+00 -0.11601919799E+03  0.11601919799E+03  0.00000000000E+00 0. -1.
          1    1    1    2  502    0 -0.29447951074E+01 -0.28654319153E+02 -0.58009359037E+02  0.64767488451E+02  0.00000000000E+00 0. -1.
         -1    1    1    2    0  501  0.29447951074E+01  0.28654319153E+02 -0.50833730198E+02  0.58427818291E+02  0.00000000000E+00 0.  1.
</event>
<event>
 4    1  0.6629728E+001  0.1022361E+03  0.7546771E-02  0.1159989E+00
          2   -1    0    0  502    0  0.00000000000E+00  0.00000000000E+00  0.10941637012E+04  0.10941637012E+04  0.00000000000E+00 0. -1.
         -2   -1    0    0    0  501 -0.00000000000E+00 -0.00000000000E+00 -0.19183799559E+02  0.19183799559E+02  0.00000000000E+00 0.  1.
          1    1    1    2  502    0  0.90845209387E+02 -0.46897331048E+02  0.93192135503E+03  0.93751246588E+03  0.00000000000E+00 0. -1.
         -1    1    1    2    0  501 -0.90845209387E+02  0.46897331048E+02  0.14305854657E+03  0.17583503483E+03  0.00000000000E+00 0.  1.
</event>
<event>
 4    1  0.6629728E+001  0.3375852E+02  0.7546771E-02  0.1389508E+00
          2   -1    0    0  502    0  0.00000000000E+00  0.00000000000E+00  0.11073990544E+04  0.11073990544E+04  0.00000000000E+00 0. -1.
         -2   -1    0    0    0  501 -0.00000000000E+00 -0.00000000000E+00 -0.17419479415E+01  0.17419479415E+01  0.00000000000E+00 0.  1.
          1    1    1    2  502    0  0.15969727819E+02 -0.29742313341E+02  0.19806904761E+03  0.20092532203E+03  0.00000000000E+00 0.  1.
         -1    1    1    2    0  501 -0.15969727819E+02  0.29742313341E+02  0.90758805882E+03  0.90821568029E+03  0.00000000000E+00 0. -1.
</event>
<event>
 4    1  0.6629728E+001  0.2976030E+02  0.7546771E-02  0.1421691E+00
          2   -1    0    0  502    0  0.00000000000E+00  0.00000000000E+00  0.43009229650E+02  0.43009229650E+02  0.00000000000E+00 0. -1.
         -2   -1    0    0    0  501 -0.00000000000E+00 -0.00000000000E+00 -0.20639170393E+02  0.20639170393E+02  0.00000000000E+00 0.  1.
          1    1    1    2  502    0  0.20894805898E+02  0.21191570633E+02  0.96747304547E+01  0.31293385704E+02  0.00000000000E+00 0. -1.
         -1    1    1    2    0  501 -0.20894805898E+02 -0.21191570633E+02  0.12695328802E+02  0.32355014338E+02  0.00000000000E+00 0.  1.
</event>
<event>
 4    1  0.6629728E+001  0.2233386E+02  0.7546771E-02  0.1501037E+00
          2   -1    0    0  502    0  0.00000000000E+00  0.00000000000E+00  0.11972408122E+02  0.11972408122E+02  0.00000000000E+00 0. -1.
         -2   -1    0    0    0  501 -0.00000000000E+00 -0.00000000000E+00 -0.41683264786E+02  0.41683264786E+02  0.00000000000E+00 0.  1.
          1    1    1    2  502    0  0.11860263702E+00 -0.22333547756E+02 -0.14257814235E+02  0.26496918476E+02  0.00000000000E+00 0. -1.
         -1    1    1    2    0  501 -0.11860263702E+00  0.22333547756E+02 -0.15453042429E+02  0.27158754432E+02  0.00000000000E+00 0.  1.
</event>
<event>
 4    1  0.6629728E+001  0.2324809E+02  0.7546771E-02  0.1489406E+00
          2   -1    0    0  502    0  0.00000000000E+00  0.00000000000E+00  0.11294231936E+04  0.11294231936E+04  0.00000000000E+00 0. -1.
         -2   -1    0    0    0  501 -0.00000000000E+00 -0.00000000000E+00 -0.58488548960E+00  0.58488548960E+00  0.00000000000E+00 0.  1.
          1    1    1    2  502    0  0.16746105736E+01  0.23187703036E+02  0.32349731071E+03  0.32433159564E+03  0.00000000000E+00 0.  1.
         -1    1    1    2    0  501 -0.16746105736E+01 -0.23187703036E+02  0.80534099739E+03  0.80567648344E+03  0.00000000000E+00 0. -1.
</event>
<event>
 4    1  0.6629728E+001  0.3151403E+02  0.7546771E-02  0.1406880E+00
          2   -1    0    0  502    0  0.00000000000E+00  0.00000000000E+00  0.12468018952E+04  0.12468018952E+04  0.00000000000E+00 0.  1.
         -2   -1    0    0    0  501 -0.00000000000E+00 -0.00000000000E+00 -0.81112931642E+00  0.81112931642E+00  0.00000000000E+00 0. -1.
          1    1    1    2  502    0 -0.28184895419E+02  0.14097724041E+02  0.70664113031E+03  0.70734349590E+03  0.00000000000E+00 0.  1.
         -1    1    1    2    0  501  0.28184895419E+02 -0.14097724041E+02  0.53934963558E+03  0.54026952861E+03  0.00000000000E+00 0. -1.
</event>
<event>
 4    1  0.6629728E+001  0.2412043E+02  0.7546771E-02  0.1478888E+00
          2   -1    0    0  502    0  0.00000000000E+00  0.00000000000E+00  0.19721097867E+02  0.19721097867E+02  0.00000000000E+00 0. -1.
         -2   -1    0    0    0  501 -0.00000000000E+00 -0.00000000000E+00 -0.30626180215E+02  0.30626180215E+02  0.00000000000E+00 0.  1.
          1    1    1    2  502    0 -0.84704508370E+01  0.22584216669E+02 -0.10277333311E+02  0.26218675785E+02  0.00000000000E+00 0.  1.
         -1    1    1    2    0  501  0.84704508370E+01 -0.22584216669E+02 -0.62774903712E+00  0.24128602297E+02  0.00000000000E+00 0. -1.
</event>
<event>
 4    1  0.6629728E+001  0.2481013E+02  0.7546771E-02  0.1470939E+00
          2   -1    0    0  502    0  0.00000000000E+00  0.00000000000E+00  0.49922577584E+02  0.49922577584E+02  0.00000000000E+00 0.  1.
         -2   -1    0    0    0  501 -0.00000000000E+00 -0.00000000000E+00 -0.12694009890E+02  0.12694009890E+02  0.00000000000E+00 0. -1.
          1    1    1    2  502    0  0.14508182858E+02  0.20125982122E+02  0.23916417763E+02  0.34460666924E+02  0.00000000000E+00 0. -1.
         -1    1    1    2    0  501 -0.14508182858E+02 -0.20125982122E+02  0.13312149931E+02  0.28155920550E+02  0.00000000000E+00 0.  1.
</event>
<event>
 4    1  0.6629728E+001  0.2366259E+02  0.7546771E-02  0.1484341E+00
          2   -1    0    0  502    0  0.00000000000E+00  0.00000000000E+00  0.11884662162E+04  0.11884662162E+04  0.00000000000E+00 0.  1.
         -2   -1    0    0    0  501 -0.00000000000E+00 -0.00000000000E+00 -0.48448568438E+00  0.48448568438E+00  0.00000000000E+00 0. -1.
          1    1    1    2  502    0  0.18473730673E+02  0.14786469265E+02  0.49527727948E+03  0.49584221479E+03  0.00000000000E+00 0. -1.
         -1    1    1    2    0  501 -0.18473730673E+02 -0.14786469265E+02  0.69270445102E+03  0.69310848708E+03  0.00000000000E+00 0.  1.
</event>
<event>
 4    1  0.6629728E+001  0.2629079E+02  0.7546771E-02  0.1454865E+00
          2   -1    0    0  502    0  0.00000000000E+00  0.00000000000E+00  0.48106974037E+03  0.48106974037E+03  0.00000000000E+00 0. -1.
         -2   -1    0    0    0  501 -0.00000000000E+00 -0.00000000000E+00 -0.14539798820E+01  0.14539798820E+01  0.00000000000E+00 0.  1.
          1    1    1    2  502    0  0.23542720926E+02  0.11702393543E+02  0.26602563550E+03  0.26732161242E+03  0.00000000000E+00 0. -1.
         -1    1    1    2    0  501 -0.23542720926E+02 -0.11702393543E+02  0.21359012498E+03  0.21520210783E+03  0.00000000000E+00 0.  1.
</event>
<event>
 4    1  0.6629728E+001  0.3219682E+02  0.7546771E-02  0.1401420E+00
          2   -1    0    0  502    0  0.00000000000E+00  0.00000000000E+00  0.27372890855E+03  0.27372890855E+03  0.00000000000E+00 0. -1.
         -2   -1    0    0    0  501 -0.00000000000E+00 -0.00000000000E+00 -0.38254494780E+01  0.38254494780E+01  0.00000000000E+00 0.  1.
          1    1    1    2  502    0  0.12130333360E+02 -0.29824318239E+02  0.12105427641E+03  0.12526281484E+03  0.00000000000E+00 0.  1.
         -1    1    1    2    0  501 -0.12130333360E+02  0.29824318239E+02  0.14884918267E+03  0.15229154319E+03  0.00000000000E+00 0. -1.
</event>
<event>
 4    1  0.6629728E+001  0.2664713E+02  0.7546771E-02  0.1451185E+00
          2   -1    0    0  502    0  0.00000000000E+00  0.00000000000E+00  0.11929349539E+03  0.11929349539E+03  0.00000000000E+00 0. -1.
         -2   -1    0    0    0  501 -0.00000000000E+00 -0.00000000000E+00 -0.18597497193E+02  0.18597497193E+02  0.00000000000E+00 0.  1.
          1    1    1    2  502    0 -0.26585945204E+02 -0.18047593234E+01 -0.65034584035E+01  0.27429265572E+02  0.00000000000E+00 0.  1.
         -1    1    1    2    0  501  0.26585945204E+02  0.18047593234E+01  0.10719945660E+03  0.11046172701E+03  0.00000000000E+00 0. -1.
</event>
<event>
 4    1  0.6629728E+001  0.2411722E+02  0.7546771E-02  0.1478926E+00
          2   -1    0    0  502    0  0.00000000000E+00  0.00000000000E+00  0.63160673660E+01  0.63160673660E+01  0.00000000000E+00 0. -1.
         -2   -1    0    0    0  501 -0.00000000000E+00 -0.00000000000E+00 -0.16776138881E+03  0.16776138881E+03  0.00000000000E+00 0.  1.
          1    1    1    2  502    0 -0.21883125274E+02  0.10137509083E+02 -0.22265827951E+02  0.32823883934E+02  0.00000000000E+00 0. -1.
         -1    1    1    2    0  501  0.21883125274E+02 -0.10137509083E+02 -0.13917949350E+03  0.14125357225E+03  0.00000000000E+00 0.  1.
</event>
<event>
 4    1  0.6629728E+001  0.2300006E+02  0.7546771E-02  0.1492497E+00
          2   -1    0    0  502    0  0.00000000000E+00  0.00000000000E+00  0.82358576554E+01  0.82358576554E+01  0.00000000000E+00 0.  1.
         -2   -1    0    0    0  501 -0.00000000000E+00 -0.00000000000E+00 -0.71001666394E+02  0.71001666394E+02  0.00000000000E+00 0. -1.
          1    1    1    2  502    0 -0.17586081702E+02  0.14823382415E+02 -0.43616684598E+02  0.49309411994E+02  0.00000000000E+00 0. -1.
         -1    1    1    2    0  501  0.17586081702E+02 -0.14823382415E+02 -0.19149124140E+02  0.29928112055E+02  0.00000000000E+00 0.  1.
</event>
<event>
 4    1  0.6629728E+001  0.2423228E+02  0.7546771E-02  0.1477578E+00
          2   -1    0    0  502    0  0.00000000000E+00  0.00000000000E+00  0.12855966887E+03  0.12855966887E+03  0.00000000000E+00 0.  1.
         -2   -1    0    0    0  501 -0.00000000000E+00 -0.00000000000E+00 -0.45677612553E+01  0.45677612553E+01  0.00000000000E+00 0. -1.
          1    1    1    2  502    0 -0.23459432526E+02  0.60710946217E+01  0.61547031545E+02  0.66145598919E+02  0.00000000000E+00 0.  1.
         -1    1    1    2    0  501  0.23459432526E+02 -0.60710946217E+01  0.62444876067E+02  0.66981831204E+02  0.00000000000E+00 0. -1.
</event>
<event>
 4    1  0.6629728E+001  0.2097416E+02  0.7546771E-02  0.1519634E+00
          2   -1    0    0  502    0  0.00000000000E+00  0.00000000000E+00  0.18640045331E+01  0.18640045331E+01  0.00000000000E+00 0.  1.
         -2   -1    0    0    0  501 -0.00000000000E+00 -0.00000000000E+00 -0.41789161840E+03  0.41789161840E+03  0.00000000000E+00 0. -1.
          1    1    1    2  502    0 -0.95403408904E+01  0.18678791205E+02 -0.34647703713E+03  0.34711129715E+03  0.00000000000E+00 0. -1.
         -1    1    1    2    0  501  0.95403408904E+01 -0.18678791205E+02 -0.69550576731E+02  0.72644325786E+02  0.00000000000E+00 0.  1.
</event>
<event>
 4    1  0.6629728E+001  0.2763025E+02  0.7546771E-02  0.1441378E+00
          2   -1    0    0  502    0  0.00000000000E+00  0.00000000000E+00  0.22084122349E+04  0.22084122349E+04  0.00000000000E+00 0. -1.
         -2   -1    0    0    0  501 -0.00000000000E+00 -0.00000000000E+00 -0.40289463085E+00  0.40289463085E+00  0.00000000000E+00 0.  1.
          1    1    1    2  502    0 -0.21370909332E+02 -0.17513285973E+02  0.15201459127E+04  0.15203969965E+04  0.00000000000E+00 0.  1.
         -1    1    1    2    0  501  0.21370909332E+02  0.17513285973E+02  0.68786342757E+03  0.68841813307E+03  0.00000000000E+00 0. -1.
</event>
<event>
 4    1  0.6629728E+001  0.2519621E+02  0.7546771E-02  0.1466620E+00
          2   -1    0    0  502    0  0.00000000000E+00  0.00000000000E+00  0.24613120060E+03  0.24613120060E+03  0.00000000000E+00 0.  1.
         -2   -1    0    0    0  501 -0.00000000000E+00 -0.00000000000E+00 -0.51243168130E+01  0.51243168130E+01  0.00000000000E+00 0. -1.
          1    1    1    2  502    0  0.20788080015E+02  0.14237446456E+02  0.31969065634E+02  0.40704671842E+02  0.00000000000E+00 0. -1.
         -1    1    1    2    0  501 -0.20788080015E+02 -0.14237446456E+02  0.20903781815E+03  0.21055084557E+03  0.00000000000E+00 0.  1.
</event>
<event>
 4    1  0.6629728E+001  0.3395209E+02  0.7546771E-02  0.1388084E+00
          2   -1    0    0  502    0  0.00000000000E+00  0.00000000000E+00  0.15893714398E+04  0.15893714398E+04  0.00000000000E+00 0. -1.
         -2   -1    0    0    0  501 -0.00000000000E+00 -0.00000000000E+00 -0.73039123679E+00  0.73039123679E+00  0.00000000000E+00 0.  1.
          1    1    1    2  502    0  0.91835876527E+01  0.32686483458E+02  0.86080833817E+03  0.86147764889E+03  0.00000000000E+00 0. -1.
         -1    1    1    2    0  501 -0.91835876527E+01 -0.32686483458E+02  0.72783271035E+03  0.72862418210E+03  0.00000000000E+00 0.  1.
</event>
<event>
 4    1  0.6629728E+001  0.2731431E+02  0.7546771E-02  0.1444476E+00
          2   -1    0    0  502    0  0.00000000000E+00  0.00000000000E+00  0.11675901616E+02  0.11675901616E+02  0.00000000000E+00 0.  1.
         -2   -1    0    0    0  501 -0.00000000000E+00 -0.00000000000E+00 -0.79405207865E+02  0.79405207865E+02  0.00000000000E+00 0. -1.
          1    1    1    2  502    0  0.26044310505E+02 -0.82319664656E+01 -0.13739690323E+02  0.30575324557E+02  0.00000000000E+00 0.  1.
         -1    1    1    2    0  501 -0.26044310505E+02  0.82319664656E+01 -0.53989615925E+02  0.60505784924E+02  0.00000000000E+00 0. -1.
</event>
<event>
 4    1  0.6629728E+001  0.2463925E+02  0.7546771E-02  0.1472880E+00
          2   -1    0    0  502    0  0.00000000000E+00  0.00000000000E+00  0.91961060677E+03  0.91961060677E+03  0.00000000000E+00 0. -1.
         -2   -1    0    0    0  501 -0.00000000000E+00 -0.00000000000E+00 -0.70065972427E+00  0.70065972427E+00  0.00000000000E+00 0.  1.
          1    1    1    2  502    0  0.22911084593E+02 -0.90650260819E+01  0.57008256497E+03  0.57061477669E+03  0.00000000000E+00 0. -1.
         -1    1    1    2    0  501 -0.22911084593E+02  0.90650260819E+01  0.34882738208E+03  0.34969648981E+03  0.00000000000E+00 0.  1.
</event>
<event>
 4    1  0.6629728E+001  0.2568782E+02  0.7546771E-02  0.1461254E+00
          2   -1    0    0  502    0  0.00000000000E+00  0.00000000000E+00  0.12078794481E+04  0.12078794481E+04  0.00000000000E+00 0. -1.
         -2   -1    0    0    0  501 -0.00000000000E+00 -0.00000000000E+00 -0.88179099058E+00  0.88179099058E+00  0.00000000000E+00 0.  1.
          1    1    1    2  502    0 -0.44992887524E+01 -0.25290724643E+02  0.97629224475E+03  0.97663013036E+03  0.00000000000E+00 0. -1.
         -1    1    1    2    0  501  0.44992887524E+01  0.25290724643E+02  0.23070541234E+03  0.23213110872E+03  0.00000000000E+00 0.  1.
</event>
<event>
 4    1  0.6629728E+001  0.2190362E+02  0.7546771E-02  0.1506744E+00
          2   -1    0    0  502    0  0.00000000000E+00  0.00000000000E+00  0.17825935600E+02  0.17825935600E+02  0.00000000000E+00 0. -1.
         -2   -1    0    0    0  501 -0.00000000000E+00 -0.00000000000E+00 -0.37181007840E+02  0.37181007840E+02  0.00000000000E+00 0.  1.
          1    1    1    2  502    0 -0.95507174839E+01  0.19711727738E+02 -0.24130185958E+02  0.32588867566E+02  0.00000000000E+00 0.  1.
         -1    1    1    2    0  501  0.95507174839E+01 -0.19711727738E+02  0.47751137181E+01  0.22418075874E+02  0.00000000000E+00 0. -1.
</event>
<event>
 4    1  0.6629728E+001  0.2332975E+02  0.7546771E-02  0.1488398E+00
          2   -1    0    0  502    0  0.00000000000E+00  0.00000000000E+00  0.13248261080E+04  0.13248261080E+04  0.00000000000E+00 0.  1.
         -2   -1    0    0    0  501 -0.00000000000E+00 -0.00000000000E+00 -0.54309645990E+00  0.54309645990E+00  0.00000000000E+00 0. -1.
          1    1    1    2  502    0 -0.23327519397E+02  0.32287353017E+00  0.98917661230E+03  0.98945169045E+03  0.00000000000E+00 0.  1.
         -1    1    1    2    0  501  0.23327519397E+02 -0.32287353017E+00  0.33510639927E+03  0.33591751405E+03  0.00000000000E+00 0. -1.
</event>
<event>
 4    1  0.6629728E+001  0.2443229E+02  0.7546771E-02  0.1475256E+00
          2   -1    0    0  502    0  0.00000000000E+00  0.00000000000E+00  0.41035980980E+02  0.41035980980E+02  0.00000000000E+00 0. -1.
         -2   -1    0    0    0  501 -0.00000000000E+00 -0.00000000000E+00 -0.14740762326E+02  0.14740762326E+02  0.00000000000E+00 0.  1.
          1    1    1    2  502    0  0.23141534154E+02 -0.78362087976E+01  0.16347757973E+02  0.29397040022E+02  0.00000000000E+00 0. -1.
         -1    1    1    2    0  501 -0.23141534154E+02  0.78362087976E+01  0.99474606809E+01  0.26379703283E+02  0.00000000000E+00 0.  1.
</event>
<event>
 4    1  0.6629728E+001  0.2107189E+02  0.7546771E-02  0.1518241E+00
          2   -1    0    0  502    0  0.00000000000E+00  0.00000000000E+00  0.21943316825E+02  0.21943316825E+02  0.00000000000E+00 0. -1.
         -2   -1    0    0    0  501 -0.00000000000E+00 -0.00000000000E+00 -0.30865905536E+02  0.30865905536E+02  0.00000000000E+00 0.  1.
          1    1    1    2  502    0  0.13743009424E+02  0.15973551998E+02  0.11034857151E+02  0.23786398294E+02  0.00000000000E+00 0. -1.
         -1    1    1    2    0  501 -0.13743009424E+02 -0.15973551998E+02 -0.19957445862E+02  0.29022824066E+02  0.00000000000E+00 0.  1.
</event>
<event>
 4    1  0.6629728E+001  0.2137655E+02  0.7546771E-02  0.1513956E+00
          2   -1    0    0  502    0  0.00000000000E+00  0.00000000000E+00  0.24960317724E+03  0.24960317724E+03  0.00000000000E+00 0. -1.
         -2   -1    0    0    0  501 -0.00000000000E+00 -0.00000000000E+00 -0.25769271712E+01  0.25769271712E+01  0.00000000000E+00 0.  1.
          1    1    1    2  502    0  0.18835139954E+02 -0.10109131906E+02  0.55662264237E+02  0.59625872782E+02  0.00000000000E+00 0.  1.
         -1    1    1    2    0  501 -0.18835139954E+02  0.10109131906E+02  0.19136398583E+03  0.19255423163E+03  0.00000000000E+00 0. -1.
</event>
<event>
 4    1  0.6629728E+001  0.2049057E+02  0.7546771E-02  0.1526664E+00
          2   -1    0    0  502    0  0.00000000000E+00  0.00000000000E+00  0.21957500659E+02  0.21957500659E+02  0.00000000000E+00 0. -1.
         -2   -1    0    0    0  501 -0.00000000000E+00 -0.00000000000E+00 -0.36852165513E+02  0.36852165513E+02  0.00000000000E+00 0.  1.
          1    1    1    2  502    0  0.16967012312E+02 -0.11488430274E+02 -0.27843470922E+02  0.34570542517E+02  0.00000000000E+00 0.  1.
         -1    1    1    2    0  501 -0.16967012312E+02  0.11488430274E+02  0.12948806069E+02  0.24239123655E+02  0.00000000000E+00 0. -1.
</event>
<event>
 4    1  0.6629728E+001  0.3005315E+02  0.7546771E-02  0.1419135E+00
          2   -1    0    0  502    0  0.00000000000E+00  0.00000000000E+00  0.91025421277E+02  0.91025421277E+02  0.00000000000E+00 0.  1.
         -2   -1    0    0    0  501 -0.00000000000E+00 -0.00000000000E+00 -0.12204921176E+02  0.12204921176E+02  0.00000000000E+00 0. -1.
          1    1    1    2  502    0 -0.16378804358E+02  0.25197753448E+02  0.61731363651E+02  0.68658235262E+02  0.00000000000E+00 0.  1.
         -1    1    1    2    0  501  0.16378804358E+02 -0.25197753448E+02  0.17089136450E+02  0.34572107191E+02  0.00000000000E+00 0. -1.
</event>
<event>
 4    1  0.6629728E+001  0.2006982E+02  0.7546771E-02  0.1532971E+00
          2   -1    0    0  502    0  0.00000000000E+00  0.00000000000E+00  0.10137400036E+04  0.10137400036E+04  0.00000000000E+00 0. -1.
         -2   -1    0    0    0  501 -0.00000000000E+00 -0.00000000000E+00 -0.40396410482E+00  0.40396410482E+00  0.00000000000E+00 0.  1.
          1    1    1    2  502    0  0.15157581677E+02 -0.13154669228E+02  0.44172662920E+03  0.44218232953E+03  0.00000000000E+00 0.  1.
         -1    1    1    2    0  501 -0.15157581677E+02  0.13154669228E+02  0.57160941025E+03  0.57196163813E+03  0.00000000000E+00 0. -1.
</event>
<event>
 4    1  0.6629728E+001  0.2041997E+02  0.7546771E-02  0.1527710E+00
          2   -1    0    0  502    0  0.00000000000E+00  0.00000000000E+00  0.32973445765E+02  0.32973445765E+02  0.00000000000E+00 0.  1.
         -2   -1    0    0    0  501 -0.00000000000E+00 -0.00000000000E+00 -0.28143804332E+02  0.28143804332E+02  0.00000000000E+00 0. -1.
          1    1    1    2  502    0 -0.12536514817E+01  0.20381452626E+02  0.25091551539E+02  0.32350598322E+02  0.00000000000E+00 0.  1.
         -1    1    1    2    0  501  0.12536514817E+01 -0.20381452626E+02 -0.20261910106E+02  0.28766651775E+02  0.00000000000E+00 0. -1.
</event>
<event>
 4    1  0.6629728E+001  0.2209665E+02  0.7546771E-02  0.1504164E+00
          2   -1    0    0  502    0  0.00000000000E+00  0.00000000000E+00  0.66943130631E+03  0.66943130631E+03  0.00000000000E+00 0. -1.
         -2   -1    0    0    0  501 -0.00000000000E+00 -0.00000000000E+00 -0.78614706740E+00  0.78614706740E+00  0.00000000000E+00 0.  1.
          1    1    1    2  502    0  0.13810666275E+02 -0.17248987119E+02  0.42438141543E+03  0.42495628931E+03  0.00000000000E+00 0. -1.
         -1    1    1    2    0  501 -0.13810666275E+02  0.17248987119E+02  0.24426374380E+03  0.24526116406E+03  0.00000000000E+00 0.  1.
</event>
<event>
 4    1  0.6629728E+001  0.2028777E+02  0.7546771E-02  0.1529681E+00
          2   -1    0    0  502    0  0.00000000000E+00  0.00000000000E+00  0.16921667458E+03  0.16921667458E+03  0.00000000000E+00 0.  1.
         -2   -1    0    0    0  501 -0.00000000000E+00 -0.00000000000E+00 -0.28352855237E+01  0.28352855237E+01  0.00000000000E+00 0. -1.
          1    1    1    2  502    0 -0.15304132778E+02 -0.13318300486E+02  0.50760405118E+02  0.54664543679E+02  0.00000000000E+00 0. -1.
         -1    1    1    2    0  501  0.15304132778E+02  0.13318300486E+02  0.11562098394E+03  0.11738741643E+03  0.00000000000E+00 0.  1.
</event>
<event>
 4    1  0.6629728E+001  0.4683355E+02  0.7546771E-02  0.1312517E+00
          2   -1    0    0  502    0  0.00000000000E+00  0.00000000000E+00  0.10330376004E+04  0.10330376004E+04  0.00000000000E+00 0. -1.
         -2   -1    0    0    0  501 -0.00000000000E+00 -0.00000000000E+00 -0.21835800502E+01  0.21835800502E+01  0.00000000000E+00 0.  1.
          1    1    1    2  502    0 -0.10536083565E+02 -0.45633019204E+02  0.42937921679E+03  0.43192579607E+03  0.00000000000E+00 0. -1.
         -1    1    1    2    0  501  0.10536083565E+02  0.45633019204E+02  0.60147480361E+03  0.60329538443E+03  0.00000000000E+00 0.  1.
</event>
<event>
 4    1  0.6629728E+001  0.2653764E+02  0.7546771E-02  0.1452309E+00
          2   -1    0    0  502    0  0.00000000000E+00  0.00000000000E+00  0.26599351658E+04  0.26599351658E+04  0.00000000000E+00 0.  1.
         -2   -1    0    0    0  501 -0.00000000000E+00 -0.00000000000E+00 -0.26556435907E+00  0.26556435907E+00  0.00000000000E+00 0. -1.
          1    1    1    2  502    0  0.15595988253E+02  0.21471179849E+02  0.14030031958E+04  0.14032541516E+04  0.00000000000E+00 0.  1.
         -1    1    1    2    0  501 -0.15595988253E+02 -0.21471179849E+02  0.12566664056E+04  0.12569465786E+04  0.00000000000E+00 0. -1.
</event>
<event>
 4    1  0.6629728E+001  0.8356461E+02  0.7546771E-02  0.1195805E+00
          2   -1    0    0  502    0  0.00000000000E+00  0.00000000000E+00  0.24923918917E+03  0.24923918917E+03  0.00000000000E+00 0.  1.
         -2   -1    0    0    0  501 -0.00000000000E+00 -0.00000000000E+00 -0.28091167911E+02  0.28091167911E+02  0.00000000000E+00 0. -1.
          1    1    1    2  502    0 -0.62187297079E+02  0.55819207958E+02  0.10347005801E+03  0.13300036391E+03  0.00000000000E+00 0. -1.
         -1    1    1    2    0  501  0.62187297079E+02 -0.55819207958E+02  0.11767796325E+03  0.14432999317E+03  0.00000000000E+00 0.  1.
</event>
<event>
 4    1  0.6629728E+001  0.2652346E+02  0.7546771E-02  0.1452455E+00
          2   -1    0    0  502    0  0.00000000000E+00  0.00000000000E+00  0.44042720349E+03  0.44042720349E+03  0.00000000000E+00 0.  1.
         -2   -1    0    0    0  501 -0.00000000000E+00 -0.00000000000E+00 -0.17152819062E+01  0.17152819062E+01  0.00000000000E+00 0. -1.
          1    1    1    2  502    0 -0.25309349130E+02  0.79329071099E+01  0.27733527233E+03  0.27860069535E+03  0.00000000000E+00 0.  1.
         -1    1    1    2    0  501  0.25309349130E+02 -0.79329071099E+01  0.16137664925E+03  0.16354179005E+03  0.00000000000E+00 0. -1.
</event>
<event>
 4    1  0.6629728E+001  0.2046786E+02  0.7546771E-02  0.1527000E+00
          2   -1    0    0  502    0  0.00000000000E+00  0.00000000000E+00  0.13205763315E+04  0.13205763315E+04  0.00000000000E+00 0. -1.
         -2   -1    0    0    0  501 -0.00000000000E+00 -0.00000000000E+00 -0.51334390467E+00  0.51334390467E+00  0.00000000000E+00 0.  1.
          1    1    1    2  502    0  0.14699800557E+02  0.14242516237E+02  0.10683005290E+04  0.10684965857E+04  0.00000000000E+00 0. -1.
         -1    1    1    2    0  501 -0.14699800557E+02 -0.14242516237E+02  0.25176245858E+03  0.25259308968E+03  0.00000000000E+00 0.  1.
</event>
<event>
 4    1  0.6629728E+001  0.2064012E+02  0.7546771E-02  0.1524466E+00
          2   -1    0    0  502    0  0.00000000000E+00  0.00000000000E+00  0.19428607659E+02  0.19428607659E+02  0.00000000000E+00 0.  1.
         -2   -1    0    0    0  501 -0.00000000000E+00 -0.00000000000E+00 -0.26552825436E+02  0.26552825436E+02  0.00000000000E+00 0. -1.
          1    1    1    2  502    0  0.69202857305E+01  0.19445414206E+02  0.60337426932E+01  0.21503965661E+02  0.00000000000E+00 0. -1.
         -1    1    1    2    0  501 -0.69202857305E+01 -0.19445414206E+02 -0.13157960470E+02  0.24477467434E+02  0.00000000000E+00 0.  1.
</event>
<event>
 4    1  0.6629728E+001  0.2012920E+02  0.7546771E-02  0.1532070E+00
          2   -1    0    0  502    0  0.00000000000E+00  0.00000000000E+00  0.66133438491E+03  0.66133438491E+03  0.00000000000E+00 0. -1.
         -2   -1    0    0    0  501 -0.00000000000E+00 -0.00000000000E+00 -0.63082103053E+00  0.63082103053E+00  0.00000000000E+00 0.  1.
          1    1    1    2  502    0  0.52433239426E+01 -0.19434309946E+02  0.27421981706E+03  0.27495762022E+03  0.00000000000E+00 0. -1.
         -1    1    1    2    0  501 -0.52433239426E+01  0.19434309946E+02  0.38648374682E+03  0.38700758572E+03  0.00000000000E+00 0.  1.
</event>
<event>
 4    1  0.6629728E+001  0.2086966E+02  0.7546771E-02  0.1521134E+00
          2   -1    0    0  502    0  0.00000000000E+00  0.00000000000E+00  0.83978476427E+03  0.83978476427E+03  0.00000000000E+00 0. -1.
         -2   -1    0    0    0  501 -0.00000000000E+00 -0.00000000000E+00 -0.61045131048E+00  0.61045131048E+00  0.00000000000E+00 0.  1.
          1    1    1    2  502    0  0.23859542081E+00  0.20868295977E+02  0.25662553023E+03  0.25747272762E+03  0.00000000000E+00 0.  1.
         -1    1    1    2    0  501 -0.23859542081E+00 -0.20868295977E+02  0.58254878273E+03  0.58292248796E+03  0.00000000000E+00 0. -1.
</event>
<event>
 4    1  0.6629728E+001  0.2193158E+02  0.7546771E-02  0.1506368E+00
          2   -1    0    0  502    0  0.00000000000E+00  0.00000000000E+00  0.20112260669E+01  0.20112260669E+01  0.00000000000E+00 0.  1.
         -2   -1    0    0    0  501 -0.00000000000E+00 -0.00000000000E+00 -0.24449954357E+03  0.24449954357E+03  0.00000000000E+00 0. -1.
          1    1    1    2  502    0 -0.17803287046E+02 -0.12807706050E+02 -0.13946759998E+03  0.14118146411E+03  0.00000000000E+00 0.  1.
         -1    1    1    2    0  501  0.17803287046E+02  0.12807706050E+02 -0.10302071752E+03  0.10532930552E+03  0.00000000000E+00 0. -1.
</event>
<event>
 4    1  0.6629728E+001  0.2263360E+02  0.7546771E-02  0.1497151E+00
          2   -1    0    0  502    0  0.00000000000E+00  0.00000000000E+00  0.38303689543E+02  0.38303689543E+02  0.00000000000E+00 0. -1.
         -2   -1    0    0    0  501 -0.00000000000E+00 -0.00000000000E+00 -0.18452807766E+02  0.18452807766E+02  0.00000000000E+00 0.  1.
          1    1    1    2  502    0 -0.12492028447E+02  0.18874025833E+02 -0.49622882779E+01  0.23171187515E+02  0.00000000000E+00 0. -1.
         -1    1    1    2    0  501  0.12492028447E+02 -0.18874025833E+02  0.24813170055E+02  0.33585309795E+02  0.00000000000E+00 0.  1.
</event>
<event>
 4    1  0.6629728E+001  0.3574202E+02  0.7546771E-02  0.1375420E+00
          2   -1    0    0  502    0  0.00000000000E+00  0.00000000000E+00  0.16463707435E+04  0.16463707435E+04  0.00000000000E+00 0.  1.
         -2   -1    0    0    0  501 -0.00000000000E+00 -0.00000000000E+00 -0.81522565786E+00  0.81522565786E+00  0.00000000000E+00 0. -1.
          1    1    1    2  502    0 -0.32575289620E+02  0.14708580263E+02  0.10035648951E+04  0.10042011703E+04  0.00000000000E+00 0.  1.
         -1    1    1    2    0  501  0.32575289620E+02 -0.14708580263E+02  0.64199062281E+03  0.64298479889E+03  0.00000000000E+00 0. -1.
</event>
<event>
 4    1  0.6629728E+001  0.2160569E+02  0.7546771E-02  0.1510790E+00
          2   -1    0    0  502    0  0.00000000000E+00  0.00000000000E+00  0.18444547138E+04  0.18444547138E+04  0.00000000000E+00 0. -1.
         -2   -1    0    0    0  501 -0.00000000000E+00 -0.00000000000E+00 -0.28054197624E+00  0.28054197624E+00  0.00000000000E+00 0.  1.
          1    1    1    2  502    0 -0.63725428965E+01 -0.20644523477E+02  0.12106387796E+04  0.12108315574E+04  0.00000000000E+00 0. -1.
         -1    1    1    2    0  501  0.63725428965E+01  0.20644523477E+02  0.63353539223E+03  0.63390369841E+03  0.00000000000E+00 0.  1.
</event>
<event>
 4    1  0.6629728E+001  0.2201062E+02  0.7546771E-02  0.1505310E+00
          2   -1    0    0  502    0  0.00000000000E+00  0.00000000000E+00  0.34121697397E+03  0.34121697397E+03  0.00000000000E+00 0.  1.
         -2   -1    0    0    0  501 -0.00000000000E+00 -0.00000000000E+00 -0.14198242925E+01  0.14198242925E+01  0.00000000000E+00 0. -1.
          1    1    1    2  502    0  0.95230513983E+01 -0.19843867640E+02  0.17008240160E+03  0.17150070241E+03  0.00000000000E+00 0.  1.
         -1    1    1    2    0  501 -0.95230513983E+01  0.19843867640E+02  0.16971474807E+03  0.17113609585E+03  0.00000000000E+00 0. -1.
</event>
<event>
 4    1  0.6629728E+001  0.2377378E+02  0.7546771E-02  0.1483004E+00
          2   -1    0    0  502    0  0.00000000000E+00  0.00000000000E+00  0.12929798287E+03  0.12929798287E+03  0.00000000000E+00 0.  1.
         -2   -1    0    0    0  501 -0.00000000000E+00 -0.00000000000E+00 -0.75516743630E+01  0.75516743630E+01  0.00000000000E+00 0. -1.
          1    1    1    2  502    0  0.18502998061E+02  0.14927551547E+02  0.16467814767E+02  0.28920263755E+02  0.00000000000E+00 0. -1.
         -1    1    1    2    0  501 -0.18502998061E+02 -0.14927551547E+02  0.10527849374E+03  0.10792939347E+03  0.00000000000E+00 0.  1.
</event>
<event>
 4    1  0.6629728E+001  0.3208078E+02  0.7546771E-02  0.1402336E+00
          2   -1    0    0  502    0  0.00000000000E+00  0.00000000000E+00  0.14056824482E+03  0.14056824482E+03  0.00000000000E+00 0.  1.
         -2   -1    0    0    0  501 -0.00000000000E+00 -0.00000000000E+00 -0.75222708721E+01  0.75222708721E+01  0.00000000000E+00 0. -1.
          1    1    1    2  502    0 -0.12014377560E+02  0.29746111461E+02  0.78618571627E+02  0.84912049909E+02  0.00000000000E+00 0. -1.
         -1    1    1    2    0  501  0.12014377560E+02 -0.29746111461E+02  0.54427402322E+02  0.63178465783E+02  0.00000000000E+00 0.  1.
</event>
<event>
 4    1  0.6629728E+001  0.2748070E+02  0.7546771E-02  0.1442838E+00
          2   -1    0    0  502    0  0.00000000000E+00  0.00000000000E+00  0.40610648954E+02  0.40610648954E+02  0.00000000000E+00 0.  1.
         -2   -1    0    0    0  501 -0.00000000000E+00 -0.00000000000E+00 -0.24561505061E+02  0.24561505061E+02  0.00000000000E+00 0. -1.
          1    1    1    2  502    0  0.16024524566E+02  0.22324951466E+02  0.24084155532E+02  0.36540872913E+02  0.00000000000E+00 0.  1.
         -1    1    1    2    0  501 -0.16024524566E+02 -0.22324951466E+02 -0.80350116395E+01  0.28631281103E+02  0.00000000000E+00 0. -1.
</event>
<event>
 4    1  0.6629728E+001  0.3065345E+02  0.7546771E-02  0.1414001E+00
          2   -1    0    0  502    0  0.00000000000E+00  0.00000000000E+00  0.20176325365E+02  0.20176325365E+02  0.00000000000E+00 0.  1.
         -2   -1    0    0    0  501 -0.00000000000E+00 -0.00000000000E+00 -0.47788659464E+02  0.47788659464E+02  0.00000000000E+00 0. -1.
          1    1    1    2  502    0 -0.21235499876E+02  0.22106278207E+02 -0.83819754386E+01  0.31778790150E+02  0.00000000000E+00 0. -1.
         -1    1    1    2    0  501  0.21235499876E+02 -0.22106278207E+02 -0.19230358660E+02  0.36186194679E+02  0.00000000000E+00 0.  1.
</event>
<event>
 4    1  0.6629728E+001  0.2456867E+02  0.7546771E-02  0.1473687E+00
          2   -1    0    0  502    0  0.00000000000E+00  0.00000000000E+00  0.47060652874E+02  0.47060652874E+02  0.00000000000E+00 0.  1.
         -2   -1    0    0    0  501 -0.00000000000E+00 -0.00000000000E+00 -0.14396069976E+02  0.14396069976E+02  0.00000000000E+00 0. -1.
          1    1    1    2  502    0  0.20872433054E+02  0.12959973289E+02  0.26478874319E+02  0.36121325480E+02  0.00000000000E+00 0.  1.
         -1    1    1    2    0  501 -0.20872433054E+02 -0.12959973289E+02  0.61857085793E+01  0.25335397369E+02  0.00000000000E+00 0. -1.
</event>
<event>
 4    1  0.6629728E+001  0.3393427E+02  0.7546771E-02  0.1388214E+00
          2   -1    0    0  502    0  0.00000000000E+00  0.00000000000E+00  0.65794193873E+02  0.65794193873E+02  0.00000000000E+00 0.  1.
         -2   -1    0    0    0  501 -0.00000000000E+00 -0.00000000000E+00 -0.17755650282E+02  0.17755650282E+02  0.00000000000E+00 0. -1.
          1    1    1    2  502    0 -0.33212183060E+02 -0.69631591096E+01  0.29011607424E+02  0.44645358703E+02  0.00000000000E+00 0. -1.
         -1    1    1    2    0  501  0.33212183060E+02  0.69631591096E+01  0.19026936167E+02  0.38904485452E+02  0.00000000000E+00 0.  1.
</event>
<event>
 4    1  0.6629728E+001  0.2284927E+02  0.7546771E-02  0.1494400E+00
          2   -1    0    0  502    0  0.00000000000E+00  0.00000000000E+00  0.57974702131E+03  0.57974702131E+03  0.00000000000E+00 0.  1.
         -2   -1    0    0    0  501 -0.00000000000E+00 -0.00000000000E+00 -0.12075022811E+01  0.12075022811E+01  0.00000000000E+00 0. -1.
          1    1    1    2  502    0 -0.10619152696E+02  0.20231727389E+02  0.43572537028E+03  0.43632406248E+03  0.00000000000E+00 0.  1.
         -1    1    1    2    0  501  0.10619152696E+02 -0.20231727389E+02  0.14281414875E+03  0.14463046111E+03  0.00000000000E+00 0. -1.
</event>
<event>
 4    1  0.6629728E+001  0.2370934E+02  0.7546771E-02  0.1483778E+00
          2   -1    0    0  502    0  0.00000000000E+00  0.00000000000E+00  0.63902667986E+01  0.63902667986E+01  0.00000000000E+00 0.  1.
         -2   -1    0    0    0  501 -0.00000000000E+00 -0.00000000000E+00 -0.87972265374E+02  0.87972265374E+02  0.00000000000E+00 0. -1.
          1    1    1    2  502    0  0.10297447964E+02 -0.21356392351E+02 -0.40427774672E+02  0.46867236891E+02  0.00000000000E+00 0. -1.
         -1    1    1    2    0  501 -0.10297447964E+02  0.21356392351E+02 -0.41154223903E+02  0.47495295282E+02  0.00000000000E+00 0.  1.
</event>
<event>
 4    1  0.6629728E+001  0.2164498E+02  0.7546771E-02  0.1510252E+00
          2   -1    0    0  502    0  0.00000000000E+00  0.00000000000E+00  0.44405544560E+03  0.44405544560E+03  0.00000000000E+00 0. -1.
         -2   -1    0    0    0  501 -0.00000000000E+00 -0.00000000000E+00 -0.10791743477E+01  0.10791743477E+01  0.00000000000E+00 0.  1.
          1    1    1    2  502    0  0.15792733796E+02  0.14801842246E+02  0.25475843061E+03  0.25567628545E+03  0.00000000000E+00 0. -1.
         -1    1    1    2    0  501 -0.15792733796E+02 -0.14801842246E+02  0.18821784064E+03  0.18945833450E+03  0.00000000000E+00 0.  1.
</event>
<event>
 4    1  0.6629728E+001  0.2005505E+02  0.7546771E-02  0.1533196E+00
          2   -1    0    0  502    0  0.00000000000E+00  0.00000000000E+00  0.46462849270E+03  0.46462849270E+03  0.00000000000E+00 0.  1.
         -2   -1    0    0    0  501 -0.00000000000E+00 -0.00000000000E+00 -0.10931600301E+01  0.10931600301E+01  0.00000000000E+00 0. -1.
          1    1    1    2  502    0 -0.12023036489E+01 -0.20018983125E+02  0.12553557520E+03  0.12712743945E+03  0.00000000000E+00 0. -1.
         -1    1    1    2    0  501  0.12023036489E+01  0.20018983125E+02  0.33799975747E+03  0.33859421328E+03  0.00000000000E+00 0.  1.
</event>
<event>
 4    1  0.6629728E+001  0.2206073E+02  0.7546771E-02  0.1504642E+00
          2   -1    0    0  502    0  0.00000000000E+00  0.00000000000E+00  0.99774378556E+03  0.99774378556E+03  0.00000000000E+00 0.  1.
         -2   -1    0    0    0  501 -0.00000000000E+00 -0.00000000000E+00 -0.74792386156E+00  0.74792386156E+00  0.00000000000E+00 0. -1.
          1    1    1    2  502    0  0.17418986818E+02 -0.13537153582E+02  0.79293722814E+03  0.79324405034E+03  0.00000000000E+00 0.  1.
         -1    1    1    2    0  501 -0.17418986818E+02  0.13537153582E+02  0.20405863355E+03  0.20524765908E+03  0.00000000000E+00 0. -1.
</event>
<event>
 4    1  0.6629728E+001  0.4725178E+02  0.7546771E-02  0.1310549E+00
          2   -1    0    0  502    0  0.00000000000E+00  0.00000000000E+00  0.15162530434E+02  0.15162530434E+02  0.00000000000E+00 0.  1.
         -2   -1    0    0    0  501 -0.00000000000E+00 -0.00000000000E+00 -0.14814875734E+03  0.14814875734E+03  0.00000000000E+00 0. -1.
          1    1    1    2  502    0  0.45306128596E+02  0.13419584756E+02 -0.60144290372E+02  0.76485725516E+02  0.00000000000E+00 0.  1.
         -1    1    1    2    0  501 -0.45306128596E+02 -0.13419584756E+02 -0.72841936536E+02  0.86825562259E+02  0.00000000000E+00 0. -1.
</event>
<event>
 4    1  0.6629728E+001  0.3137480E+02  0.7546771E-02  0.1408014E+00
          2   -1    0    0  502    0  0.00000000000E+00  0.00000000000E+00  0.52309418892E+02  0.52309418892E+02  0.00000000000E+00 0. -1.
         -2   -1    0    0    0  501 -0.00000000000E+00 -0.00000000000E+00 -0.40530103239E+02  0.40530103239E+02  0.00000000000E+00 0.  1.
          1    1    1    2  502    0  0.30738131854E+02 -0.62885057018E+01 -0.28085484322E+02  0.42109054649E+02  0.00000000000E+00 0.  1.
         -1    1    1    2    0  501 -0.30738131854E+02  0.62885057018E+01  0.39864799976E+02  0.50730467482E+02  0.00000000000E+00 0. -1.
</event>
<event>
 4    1  0.6629728E+001  0.3281104E+02  0.7546771E-02  0.1396642E+00
          2   -1    0    0  502    0  0.00000000000E+00  0.00000000000E+00  0.87843289042E+03  0.87843289042E+03  0.00000000000E+00 0. -1.
         -2   -1    0    0    0  501 -0.00000000000E+00 -0.00000000000E+00 -0.14002826647E+01  0.14002826647E+01  0.00000000000E+00 0.  1.
          1    1    1    2  502    0 -0.20206438107E+02  0.25850805236E+02  0.59391534597E+03  0.59482098353E+03  0.00000000000E+00 0. -1.
         -1    1    1    2    0  501  0.20206438107E+02 -0.25850805236E+02  0.28311726178E+03  0.28501218955E+03  0.00000000000E+00 0.  1.
</event>
<event>
 4    1  0.6629728E+001  0.2847768E+02  0.7546771E-02  0.1433304E+00
          2   -1    0    0  502    0  0.00000000000E+00  0.00000000000E+00  0.11542181911E+04  0.11542181911E+04  0.00000000000E+00 0.  1.
         -2   -1    0    0    0  501 -0.00000000000E+00 -0.00000000000E+00 -0.72200945210E+00  0.72200945210E+00  0.00000000000E+00 0. -1.
          1    1    1    2  502    0  0.62211605824E+01 -0.27789845746E+02  0.67137736239E+03  0.67198105710E+03  0.00000000000E+00 0.  1.
         -1    1    1    2    0  501 -0.62211605824E+01  0.27789845746E+02  0.48211881925E+03  0.48295914345E+03  0.00000000000E+00 0. -1.
</event>
<event>
 4    1  0.6629728E+001  0.3410081E+02  0.7546771E-02  0.1386997E+00
          2   -1    0    0  502    0  0.00000000000E+00  0.00000000000E+00  0.67313455454E+03  0.67313455454E+03  0.00000000000E+00 0.  1.
         -2   -1    0    0    0  501 -0.00000000000E+00 -0.00000000000E+00 -0.29817021617E+01  0.29817021617E+01  0.00000000000E+00 0. -1.
          1    1    1    2  502    0  0.29323088492E+02 -0.17407519785E+02  0.11582798603E+03  0.12074347855E+03  0.00000000000E+00 0. -1.
         -1    1    1    2    0  501 -0.29323088492E+02  0.17407519785E+02  0.55432486635E+03  0.55537277816E+03  0.00000000000E+00 0.  1.
</event>
<event>
 4    1  0.6629728E+001  0.2751584E+02  0.7546771E-02  0.1442494E+00
          2   -1    0    0  502    0  0.00000000000E+00  0.00000000000E+00  0.31449686453E+02  0.31449686453E+02  0.00000000000E+00 0. -1.
         -2   -1    0    0    0  501 -0.00000000000E+00 -0.00000000000E+00 -0.48101750759E+02  0.48101750759E+02  0.00000000000E+00 0.  1.
          1    1    1    2  502    0  0.27505714119E+02  0.74629123980E+00 -0.36438159954E+02  0.45660275521E+02  0.00000000000E+00 0.  1.
         -1    1    1    2    0  501 -0.27505714119E+02 -0.74629123980E+00  0.19786095648E+02  0.33891161691E+02  0.00000000000E+00 0. -1.
</event>
<event>
 4    1  0.6629728E+001  0.2135104E+02  0.7546771E-02  0.1514311E+00
          2   -1    0    0  502    0  0.00000000000E+00  0.00000000000E+00  0.59230907711E+03  0.59230907711E+03  0.00000000000E+00 0. -1.
         -2   -1    0    0    0  501 -0.00000000000E+00 -0.00000000000E+00 -0.16284902417E+01  0.16284902417E+01  0.00000000000E+00 0.  1.
          1    1    1    2  502    0  0.38185309053E+01  0.21006804556E+02  0.51100345981E+03  0.51144931612E+03  0.00000000000E+00 0. -1.
         -1    1    1    2    0  501 -0.38185309053E+01 -0.21006804556E+02  0.79677127053E+02  0.82488251232E+02  0.00000000000E+00 0.  1.
</event>
<event>
 4    1  0.6629728E+001  0.3090544E+02  0.7546771E-02  0.1411888E+00
          2   -1    0    0  502    0  0.00000000000E+00  0.00000000000E+00  0.28885840029E+03  0.28885840029E+03  0.00000000000E+00 0.  1.
         -2   -1    0    0    0  501 -0.00000000000E+00 -0.00000000000E+00 -0.41583741356E+01  0.41583741356E+01  0.00000000000E+00 0. -1.
          1    1    1    2  502    0 -0.15126503174E+02  0.26950601150E+02  0.20865663722E+03  0.21093301841E+03  0.00000000000E+00 0.  1.
         -1    1    1    2    0  501  0.15126503174E+02 -0.26950601150E+02  0.76043388934E+02  0.82083756013E+02  0.00000000000E+00 0. -1.
</event>
<event>
 4    1  0.6629728E+001  0.4161652E+02  0.7546771E-02  0.1339265E+00
          2   -1    0    0  502    0  0.00000000000E+00  0.00000000000E+00  0.15342842093E+04  0.15342842093E+04  0.00000000000E+00 0.  1.
         -2   -1    0    0    0  501 -0.00000000000E+00 -0.00000000000E+00 -0.11446480382E+01  0.11446480382E+01  0.00000000000E+00 0. -1.
          1    1    1    2  502    0 -0.41518323308E+02  0.28572387681E+01  0.85683885034E+03  0.85784890886E+03  0.00000000000E+00 0.  1.
         -1    1    1    2    0  501  0.41518323308E+02 -0.28572387681E+01  0.67630071093E+03  0.67757994848E+03  0.00000000000E+00 0. -1.
</event>
<event>
 4    1  0.6629728E+001  0.2470838E+02  0.7546771E-02  0.1472092E+00
          2   -1    0    0  502    0  0.00000000000E+00  0.00000000000E+00  0.19254828108E+04  0.19254828108E+04  0.00000000000E+00 0.  1.
         -2   -1    0    0    0  501 -0.00000000000E+00 -0.00000000000E+00 -0.37557954000E+00  0.37557954000E+00  0.00000000000E+00 0. -1.
          1    1    1    2  502    0  0.40861264618E+01  0.24368167292E+02  0.58247472592E+03  0.58299855089E+03  0.00000000000E+00 0.  1.
         -1    1    1    2    0  501 -0.40861264618E+01 -0.24368167292E+02  0.13426325054E+04  0.13428598395E+04  0.00000000000E+00 0. -1.
</event>
<event>
 4    1  0.6629728E+001  0.3501938E+02  0.7546771E-02  0.1380427E+00
          2   -1    0    0  502    0  0.00000000000E+00  0.00000000000E+00  0.62902514449E+02  0.62902514449E+02  0.00000000000E+00 0.  1.
         -2   -1    0    0    0  501 -0.00000000000E+00 -0.00000000000E+00 -0.32160121795E+02  0.32160121795E+02  0.00000000000E+00 0. -1.
          1    1    1    2  502    0 -0.32968586284E+02  0.11808031943E+02  0.45197941399E+02  0.57177016420E+02  0.00000000000E+00 0.  1.
         -1    1    1    2    0  501  0.32968586284E+02 -0.11808031943E+02 -0.14455548746E+02  0.37885619824E+02  0.00000000000E+00 0. -1.
</event>
<event>
 4    1  0.6629728E+001  0.2959131E+02  0.7546771E-02  0.1423182E+00
          2   -1    0    0  502    0  0.00000000000E+00  0.00000000000E+00  0.10644541544E+04  0.10644541544E+04  0.00000000000E+00 0. -1.
         -2   -1    0    0    0  501 -0.00000000000E+00 -0.00000000000E+00 -0.83303627202E+00  0.83303627202E+00  0.00000000000E+00 0.  1.
          1    1    1    2  502    0 -0.19420819859E+02  0.22326605313E+02  0.59135993603E+03  0.59209983912E+03  0.00000000000E+00 0. -1.
         -1    1    1    2    0  501  0.19420819859E+02 -0.22326605313E+02  0.47226118209E+03  0.47318735154E+03  0.00000000000E+00 0.  1.
</event>
<event>
 4    1  0.6629728E+001  0.2179538E+02  0.7546771E-02  0.1508205E+00
          2   -1    0    0  502    0  0.00000000000E+00  0.00000000000E+00  0.37120666001E+03  0.37120666001E+03  0.00000000000E+00 0. -1.
         -2   -1    0    0    0  501 -0.00000000000E+00 -0.00000000000E+00 -0.17615820782E+01  0.17615820782E+01  0.00000000000E+00 0.  1.
          1    1    1    2  502    0  0.68023431308E+01 -0.20706684559E+02  0.87188966181E+02  0.89871878145E+02  0.00000000000E+00 0.  1.
         -1    1    1    2    0  501 -0.68023431308E+01  0.20706684559E+02  0.28225611175E+03  0.28309636395E+03  0.00000000000E+00 0. -1.
</event>
<event>
 4    1  0.6629728E+001  0.2073730E+02  0.7546771E-02  0.1523049E+00
          2   -1    0    0  502    0  0.00000000000E+00  0.00000000000E+00  0.12328973330E+03  0.12328973330E+03  0.00000000000E+00 0. -1.
         -2   -1    0    0    0  501 -0.00000000000E+00 -0.00000000000E+00 -0.44914413671E+01  0.44914413671E+01  0.00000000000E+00 0.  1.
          1    1    1    2  502    0  0.12775866364E+02  0.16334407573E+02  0.29200450392E+02  0.35814828427E+02  0.00000000000E+00 0.  1.
         -1    1    1    2    0  501 -0.12775866364E+02 -0.16334407573E+02  0.89597841545E+02  0.91966346245E+02  0.00000000000E+00 0. -1.
</event>
<event>
 4    1  0.6629728E+001  0.2041730E+02  0.7546771E-02  0.1527749E+00
          2   -1    0    0  502    0  0.00000000000E+00  0.00000000000E+00  0.30543550254E+03  0.30543550254E+03  0.00000000000E+00 0.  1.
         -2   -1    0    0    0  501 -0.00000000000E+00 -0.00000000000E+00 -0.14925958599E+01  0.14925958599E+01  0.00000000000E+00 0. -1.
          1    1    1    2  502    0  0.20417172863E+02 -0.72341295419E-01  0.10707102410E+03  0.10900032285E+03  0.00000000000E+00 0.  1.
         -1    1    1    2    0  501 -0.20417172863E+02  0.72341295419E-01  0.19687188258E+03  0.19792777554E+03  0.00000000000E+00 0. -1.
</event>
<event>
 4    1  0.6629728E+001  0.2417348E+02  0.7546771E-02  0.1478266E+00
          2   -1    0    0  502    0  0.00000000000E+00  0.00000000000E+00  0.13654800319E+04  0.13654800319E+04  0.00000000000E+00 0. -1.
         -2   -1    0    0    0  501 -0.00000000000E+00 -0.00000000000E+00 -0.86514379585E+00  0.86514379585E+00  0.00000000000E+00 0.  1.
          1    1    1    2  502    0  0.43447992009E+00  0.24169576832E+02  0.19665758752E+03  0.19813773984E+03  0.00000000000E+00 0.  1.
         -1    1    1    2    0  501 -0.43447992009E+00 -0.24169576832E+02  0.11679573006E+04  0.11682074359E+04  0.00000000000E+00 0. -1.
</event>
<event>
 4    1  0.6629728E+001  0.2137768E+02  0.7546771E-02  0.1513940E+00
          2   -1    0    0  502    0  0.00000000000E+00  0.00000000000E+00  0.88102955124E+01  0.88102955124E+01  0.00000000000E+00 0.  1.
         -2   -1    0    0    0  501 -0.00000000000E+00 -0.00000000000E+00 -0.11936731722E+03  0.11936731722E+03  0.00000000000E+00 0. -1.
          1    1    1    2  502    0 -0.34123644927E+01  0.21103577010E+02 -0.10347075876E+03  0.10565606046E+03  0.00000000000E+00 0. -1.
         -1    1    1    2    0  501  0.34123644927E+01 -0.21103577010E+02 -0.70862629470E+01  0.22521552269E+02  0.00000000000E+00 0.  1.
</event>
<event>
 4    1  0.6629728E+001  0.4585339E+02  0.7546771E-02  0.1317226E+00
          2   -1    0    0  502    0  0.00000000000E+00  0.00000000000E+00  0.71810738192E+02  0.71810738192E+02  0.00000000000E+00 0. -1.
         -2   -1    0    0    0  501 -0.00000000000E+00 -0.00000000000E+00 -0.36883460418E+02  0.36883460418E+02  0.00000000000E+00 0.  1.
          1    1    1    2  502    0  0.25622381898E+01  0.45781745629E+02  0.42141074769E+02  0.62276829400E+02  0.00000000000E+00 0. -1.
         -1    1    1    2    0  501 -0.25622381898E+01 -0.45781745629E+02 -0.72137969949E+01  0.46417369211E+02  0.00000000000E+00 0.  1.
</event>
<event>
 4    1  0.6629728E+001  0.2636861E+02  0.7546771E-02  0.1454056E+00
          2   -1    0    0  502    0  0.00000000000E+00  0.00000000000E+00  0.53029985959E+03  0.53029985959E+03  0.00000000000E+00 0.  1.
         -2   -1    0    0    0  501 -0.00000000000E+00 -0.00000000000E+00 -0.13303763376E+01  0.13303763376E+01  0.00000000000E+00 0. -1.
          1    1    1    2  502    0 -0.23980163660E+02 -0.10966101141E+02  0.29643837175E+03  0.29760882357E+03  0.00000000000E+00 0.  1.
         -1    1    1    2    0  501  0.23980163660E+02  0.10966101141E+02  0.23253111150E+03  0.23402141235E+03  0.00000000000E+00 0. -1.
</event>
<event>
 4    1  0.6629728E+001  0.3414050E+02  0.7546771E-02  0.1386708E+00
          2   -1    0    0  502    0  0.00000000000E+00  0.00000000000E+00  0.25153626693E+02  0.25153626693E+02  0.00000000000E+00 0.  1.
         -2   -1    0    0    0  501 -0.00000000000E+00 -0.00000000000E+00 -0.46852867467E+02  0.46852867467E+02  0.00000000000E+00 0. -1.
          1    1    1    2  502    0 -0.14576137750E+02 -0.30872476242E+02 -0.14623085616E+02  0.37140385216E+02  0.00000000000E+00 0.  1.
         -1    1    1    2    0  501  0.14576137750E+02  0.30872476242E+02 -0.70761551584E+01  0.34866108944E+02  0.00000000000E+00 0. -1.
</event>
<event>
 4    1  0.6629728E+001  0.2140871E+02  0.7546771E-02  0.1513509E+00
          2   -1    0    0  502    0  0.00000000000E+00  0.00000000000E+00  0.27385418052E+03  0.27385418052E+03  0.00000000000E+00 0. -1.
         -2   -1    0    0    0  501 -0.00000000000E+00 -0.00000000000E+00 -0.20666323025E+01  0.20666323025E+01  0.00000000000E+00 0.  1.
          1    1    1    2  502    0 -0.66766554286E+01 -0.20340968050E+02  0.75732628928E+02  0.78700468825E+02  0.00000000000E+00 0.  1.
         -1    1    1    2    0  501  0.66766554286E+01  0.20340968050E+02  0.19605491929E+03  0.19722034400E+03  0.00000000000E+00 0. -1.
</event>
<event>
 4    1  0.6629728E+001  0.2302937E+02  0.7546771E-02  0.1492130E+00
          2   -1    0    0  502    0  0.00000000000E+00  0.00000000000E+00  0.60038303842E+02  0.60038303842E+02  0.00000000000E+00 0. -1.
         -2   -1    0    0    0  501 -0.00000000000E+00 -0.00000000000E+00 -0.88513471470E+01  0.88513471470E+01  0.00000000000E+00 0.  1.
          1    1    1    2  502    0 -0.88937475455E+01 -0.21242714396E+02  0.27137783904E+02  0.35592288147E+02  0.00000000000E+00 0.  1.
         -1    1    1    2    0  501  0.88937475455E+01  0.21242714396E+02  0.24049172791E+02  0.33297362842E+02  0.00000000000E+00 0. -1.
</event>
<event>
 4    1  0.6629728E+001  0.2165409E+02  0.7546771E-02  0.1510127E+00
          2   -1    0    0  502    0  0.00000000000E+00  0.00000000000E+00  0.17935625129E+04  0.17935625129E+04  0.00000000000E+00 0.  1.
         -2   -1    0    0    0  501 -0.00000000000E+00 -0.00000000000E+00 -0.28062139387E+00  0.28062139387E+00  0.00000000000E+00 0. -1.
          1    1    1    2  502    0  0.21648766114E+02  0.48037022634E+00  0.11311674489E+04  0.11313746936E+04  0.00000000000E+00 0.  1.
         -1    1    1    2    0  501 -0.21648766114E+02 -0.48037022634E+00  0.66211444256E+03  0.66246844066E+03  0.00000000000E+00 0. -1.
</event>
<event>
 4    1  0.6629728E+001  0.2340008E+02  0.7546771E-02  0.1487535E+00
          2   -1    0    0  502    0  0.00000000000E+00  0.00000000000E+00  0.47554489412E+02  0.47554489412E+02  0.00000000000E+00 0.  1.
         -2   -1    0    0    0  501 -0.00000000000E+00 -0.00000000000E+00 -0.11615243475E+02  0.11615243475E+02  0.00000000000E+00 0. -1.
          1    1    1    2  502    0 -0.30980417685E+01 -0.23194091317E+02  0.20725591085E+02  0.31258820526E+02  0.00000000000E+00 0.  1.
         -1    1    1    2    0  501  0.30980417685E+01  0.23194091317E+02  0.15213654852E+02  0.27910912361E+02  0.00000000000E+00 0. -1.
</event>
<event>
 4    1  0.6629728E+001  0.4570337E+02  0.7546771E-02  0.1317959E+00
          2   -1    0    0  502    0  0.00000000000E+00  0.00000000000E+00  0.66911215404E+02  0.66911215404E+02  0.00000000000E+00 0. -1.
         -2   -1    0    0    0  501 -0.00000000000E+00 -0.00000000000E+00 -0.32472225560E+02  0.32472225560E+02  0.00000000000E+00 0.  1.
          1    1    1    2  502    0 -0.20757134048E+02 -0.40717802466E+02  0.74514047425E+01  0.46306818981E+02  0.00000000000E+00 0.  1.
         -1    1    1    2    0  501  0.20757134048E+02  0.40717802466E+02  0.26987585101E+02  0.53076621983E+02  0.00000000000E+00 0. -1.
</event>
<event>
 4    1  0.6629728E+001  0.2641609E+02  0.7546771E-02  0.1453563E+00
          2   -1    0    0  502    0  0.00000000000E+00  0.00000000000E+00  0.24649617031E+03  0.24649617031E+03  0.00000000000E+00 0. -1.
         -2   -1    0    0    0  501 -0.00000000000E+00 -0.00000000000E+00 -0.32858196285E+01  0.32858196285E+01  0.00000000000E+00 0.  1.
          1    1    1    2  502    0 -0.21236504201E+02 -0.15710529429E+02  0.75135549776E+02  0.79643962017E+02  0.00000000000E+00 0.  1.
         -1    1    1    2    0  501  0.21236504201E+02  0.15710529429E+02  0.16807480091E+03  0.17013802793E+03  0.00000000000E+00 0. -1.
</event>
<event>
 4    1  0.6629728E+001  0.3275584E+02  0.7546771E-02  0.1397066E+00
          2   -1    0    0  502    0  0.00000000000E+00  0.00000000000E+00  0.25193480498E+03  0.25193480498E+03  0.00000000000E+00 0.  1.
         -2   -1    0    0    0  501 -0.00000000000E+00 -0.00000000000E+00 -0.66506123998E+01  0.66506123998E+01  0.00000000000E+00 0. -1.
          1    1    1    2  502    0 -0.25841072674E+02  0.20129183203E+02  0.45105821481E+02  0.55744777198E+02  0.00000000000E+00 0. -1.
         -1    1    1    2    0  501  0.25841072674E+02 -0.20129183203E+02  0.20017837109E+03  0.20284064018E+03  0.00000000000E+00 0.  1.
</event>
<event>
 4    1  0.6629728E+001  0.3445516E+02  0.7546771E-02  0.1384435E+00
          2   -1    0    0  502    0  0.00000000000E+00  0.00000000000E+00  0.38146808301E+03  0.38146808301E+03  0.00000000000E+00 0. -1.
         -2   -1    0    0    0  501 -0.00000000000E+00 -0.00000000000E+00 -0.34630087118E+01  0.34630087118E+01  0.00000000000E+00 0.  1.
          1    1    1    2  502    0 -0.19846791725E+02 -0.28164922592E+02  0.12773399063E+03  0.13229939671E+03  0.00000000000E+00 0.  1.
         -1    1    1    2    0  501  0.19846791725E+02  0.28164922592E+02  0.25027108367E+03  0.25263169501E+03  0.00000000000E+00 0. -1.
</event>
<event>
 4    1  0.6629728E+001  0.3125571E+02  0.7546771E-02  0.1408989E+00
          2   -1    0    0  502    0  0.00000000000E+00  0.00000000000E+00  0.99317229674E+01  0.99317229674E+01  0.00000000000E+00 0.  1.
         -2   -1    0    0    0  501 -0.00000000000E+00 -0.00000000000E+00 -0.10355572453E+03  0.10355572453E+03  0.00000000000E+00 0. -1.
          1    1    1    2  502    0 -0.30215730111E+02  0.79955718800E+01 -0.34106099631E+02  0.46261707143E+02  0.00000000000E+00 0.  1.
         -1    1    1    2    0  501  0.30215730111E+02 -0.79955718800E+01 -0.59517901934E+02  0.67225740356E+02  0.00000000000E+00 0. -1.
</event>
<event>
 4    1  0.6629728E+001  0.2983256E+02  0.7546771E-02  0.1421057E+00
          2   -1    0    0  502    0  0.00000000000E+00  0.00000000000E+00  0.49507391154E+02  0.49507391154E+02  0.00000000000E+00 0.  1.
         -2   -1    0    0    0  501 -0.00000000000E+00 -0.00000000000E+00 -0.29945839559E+02  0.29945839559E+02  0.00000000000E+00 0. -1.
          1    1    1    2  502    0  0.26190049194E+02 -0.14285060279E+02 -0.15334850511E+02  0.33543095625E+02  0.00000000000E+00 0. -1.
         -1    1    1    2    0  501 -0.26190049194E+02  0.14285060279E+02  0.34896402105E+02  0.45910135088E+02  0.00000000000E+00 0.  1.
</event>
<event>
 4    1  0.6629728E+001  0.2112089E+02  0.7546771E-02  0.1517546E+00
          2   -1    0    0  502    0  0.00000000000E+00  0.00000000000E+00  0.55530508057E+03  0.55530508057E+03  0.00000000000E+00 0.  1.
         -2   -1    0    0    0  501 -0.00000000000E+00 -0.00000000000E+00 -0.84278339976E+00  0.84278339976E+00  0.00000000000E+00 0. -1.
          1    1    1    2  502    0  0.21102346295E+02 -0.88488736116E+00  0.33739785779E+03  0.33805828859E+03  0.00000000000E+00 0.  1.
         -1    1    1    2    0  501 -0.21102346295E+02  0.88488736116E+00  0.21706443938E+03  0.21808957538E+03  0.00000000000E+00 0. -1.
</event>
<event>
 4    1  0.6629728E+001  0.2553707E+02  0.7546771E-02  0.1462884E+00
          2   -1    0    0  502    0  0.00000000000E+00  0.00000000000E+00  0.26644495349E+04  0.26644495349E+04  0.00000000000E+00 0.  1.
         -2   -1    0    0    0  501 -0.00000000000E+00 -0.00000000000E+00 -0.24859834278E+00  0.24859834278E+00  0.00000000000E+00 0. -1.
          1    1    1    2  502    0 -0.25143078952E+02  0.44685298636E+01  0.11664773442E+04  0.11667568455E+04  0.00000000000E+00 0.  1.
         -1    1    1    2    0  501  0.25143078952E+02 -0.44685298636E+01  0.14977235924E+04  0.14979412877E+04  0.00000000000E+00 0. -1.
</event>
<event>
 4    1  0.6629728E+001  0.4617452E+02  0.7546771E-02  0.1315669E+00
          2   -1    0    0  502    0  0.00000000000E+00  0.00000000000E+00  0.17857202944E+03  0.17857202944E+03  0.00000000000E+00 0. -1.
         -2   -1    0    0    0  501 -0.00000000000E+00 -0.00000000000E+00 -0.13182949218E+02  0.13182949218E+02  0.00000000000E+00 0.  1.
          1    1    1    2  502    0 -0.39841629441E+02 -0.23339473922E+02  0.11213870373E+03  0.12127314358E+03  0.00000000000E+00 0. -1.
         -1    1    1    2    0  501  0.39841629441E+02  0.23339473922E+02  0.53250376497E+02  0.70481835082E+02  0.00000000000E+00 0.  1.
</event>
<event>
 4    1  0.6629728E+001  0.2008165E+02  0.7546771E-02  0.1532791E+00
          2   -1    0    0  502    0  0.00000000000E+00  0.00000000000E+00  0.10472380961E+03  0.10472380961E+03  0.00000000000E+00 0. -1.
         -2   -1    0    0    0  501 -0.00000000000E+00 -0.00000000000E+00 -0.41973118635E+01  0.41973118635E+01  0.00000000000E+00 0.  1.
          1    1    1    2  502    0 -0.18376234069E+02 -0.80985597246E+01  0.34615842366E+02  0.40019110321E+02  0.00000000000E+00 0. -1.
         -1    1    1    2    0  501  0.18376234069E+02  0.80985597246E+01  0.65910655376E+02  0.68902011149E+02  0.00000000000E+00 0.  1.
</event>
<event>
 4    1  0.6629728E+001  0.2131300E+02  0.7546771E-02  0.1514843E+00
          2   -1    0    0  502    0  0.00000000000E+00  0.00000000000E+00  0.46895249201E+02  0.46895249201E+02  0.00000000000E+00 0.  1.
         -2   -1    0    0    0  501 -0.00000000000E+00 -0.00000000000E+00 -0.12749409470E+02  0.12749409470E+02  0.00000000000E+00 0. -1.
          1    1    1    2  502    0 -0.11636277242E+02 -0.17856117431E+02  0.31690454101E+02  0.38190689427E+02  0.00000000000E+00 0.  1.
         -1    1    1    2    0  501  0.11636277242E+02  0.17856117431E+02  0.24553856302E+01  0.21453969245E+02  0.00000000000E+00 0. -1.
</event>
<event>
 4    1  0.6629728E+001  0.2017333E+02  0.7546771E-02  0.1531402E+00
          2   -1    0    0  502    0  0.00000000000E+00  0.00000000000E+00  0.10361494485E+04  0.10361494485E+04  0.00000000000E+00 0.  1.
         -2   -1    0    0    0  501 -0.00000000000E+00 -0.00000000000E+00 -0.40351313318E+00  0.40351313318E+00  0.00000000000E+00 0. -1.
          1    1    1    2  502    0 -0.13539961988E+02 -0.14954352825E+02  0.43328683564E+03  0.43375620477E+03  0.00000000000E+00 0. -1.
         -1    1    1    2    0  501  0.13539961988E+02  0.14954352825E+02  0.60245909971E+03  0.60279675684E+03  0.00000000000E+00 0.  1.
</event>
<event>
 4    1  0.6629728E+001  0.2086858E+02  0.7546771E-02  0.1521149E+00
          2   -1    0    0  502    0  0.00000000000E+00  0.00000000000E+00  0.23398902583E+02  0.23398902583E+02  0.00000000000E+00 0. -1.
         -2   -1    0    0    0  501 -0.00000000000E+00 -0.00000000000E+00 -0.46382938262E+02  0.46382938262E+02  0.00000000000E+00 0.  1.
          1    1    1    2  502    0  0.19127908889E+02 -0.83439090199E+01  0.15505849736E+02  0.25998636354E+02  0.00000000000E+00 0. -1.
         -1    1    1    2    0  501 -0.19127908889E+02  0.83439090199E+01 -0.38489885416E+02  0.43783204491E+02  0.00000000000E+00 0.  1.
</event>
<event>
 4    1  0.6629728E+001  0.6742628E+02  0.7546771E-02  0.1236494E+00
          2   -1    0    0  502    0  0.00000000000E+00  0.00000000000E+00  0.12642082894E+03  0.12642082894E+03  0.00000000000E+00 0. -1.
         -2   -1    0    0    0  501 -0.00000000000E+00 -0.00000000000E+00 -0.46599587713E+02  0.46599587713E+02  0.00000000000E+00 0.  1.
          1    1    1    2  502    0 -0.53613371931E+02 -0.40888991669E+02 -0.14231257252E+01  0.67441297262E+02  0.00000000000E+00 0. -1.
         -1    1    1    2    0  501  0.53613371931E+02  0.40888991669E+02  0.81244366948E+02  0.10557911939E+03  0.00000000000E+00 0.  1.
</event>
<event>
 4    1  0.6629728E+001  0.3727441E+02  0.7546771E-02  0.1365243E+00
          2   -1    0    0  502    0  0.00000000000E+00  0.00000000000E+00  0.30662778992E+03  0.30662778992E+03  0.00000000000E+00 0. -1.
         -2   -1    0    0    0  501 -0.00000000000E+00 -0.00000000000E+00 -0.45313241210E+01  0.45313241210E+01  0.00000000000E+00 0.  1.
          1    1    1    2  502    0 -0.24490987923E+02 -0.28099345671E+02  0.15013204211E+03  0.15469005070E+03  0.00000000000E+00 0.  1.
         -1    1    1    2    0  501  0.24490987923E+02  0.28099345671E+02  0.15196442368E+03  0.15646906334E+03  0.00000000000E+00 0. -1.
</event>
<event>
 4    1  0.6629728E+001  0.2061280E+02  0.7546771E-02  0.1524865E+00
          2   -1    0    0  502    0  0.00000000000E+00  0.00000000000E+00  0.50548198968E+03  0.50548198968E+03  0.00000000000E+00 0.  1.
         -2   -1    0    0    0  501 -0.00000000000E+00 -0.00000000000E+00 -0.86393617517E+00  0.86393617517E+00  0.00000000000E+00 0. -1.
          1    1    1    2  502    0  0.20357035113E+02  0.32370861633E+01  0.21066340094E+03  0.21166945009E+03  0.00000000000E+00 0. -1.
         -1    1    1    2    0  501 -0.20357035113E+02 -0.32370861633E+01  0.29395465257E+03  0.29467647577E+03  0.00000000000E+00 0.  1.
</event>
<event>
 4    1  0.6629728E+001  0.2284244E+02  0.7546771E-02  0.1494486E+00
          2   -1    0    0  502    0  0.00000000000E+00  0.00000000000E+00  0.11645121220E+02  0.11645121220E+02  0.00000000000E+00 0.  1.
         -2   -1    0    0    0  501 -0.00000000000E+00 -0.00000000000E+00 -0.44906587456E+02  0.44906587456E+02  0.00000000000E+00 0. -1.
          1    1    1    2  502    0 -0.11497222547E+01 -0.22813490507E+02 -0.15295877096E+02  0.27490745107E+02  0.00000000000E+00 0. -1.
         -1    1    1    2    0  501  0.11497222547E+01  0.22813490507E+02 -0.17965589141E+02  0.29060963569E+02  0.00000000000E+00 0.  1.
</event>
<event>
 4    1  0.6629728E+001  0.3661855E+02  0.7546771E-02  0.1369528E+00
          2   -1    0    0  502    0  0.00000000000E+00  0.00000000000E+00  0.36249831618E+01  0.36249831618E+01  0.00000000000E+00 0.  1.
         -2   -1    0    0    0  501 -0.00000000000E+00 -0.00000000000E+00 -0.40698805213E+03  0.40698805213E+03  0.00000000000E+00 0. -1.
          1    1    1    2  502    0 -0.22679959292E+02 -0.28749562488E+02 -0.26364985923E+03  0.26618070210E+03  0.00000000000E+00 0. -1.
         -1    1    1    2    0  501  0.22679959292E+02  0.28749562488E+02 -0.13971320973E+03  0.14443233319E+03  0.00000000000E+00 0.  1.
</event>
<event>
 4    1  0.6629728E+001  0.4645164E+02  0.7546771E-02  0.1314336E+00
          2   -1    0    0  502    0  0.00000000000E+00  0.00000000000E+00  0.17067155188E+04  0.17067155188E+04  0.00000000000E+00 0.  1.
         -2   -1    0    0    0  501 -0.00000000000E+00 -0.00000000000E+00 -0.14944341447E+01  0.14944341447E+01  0.00000000000E+00 0. -1.
          1    1    1    2  502    0 -0.46317014250E+02  0.35339567575E+01  0.11877987215E+04  0.11887066742E+04  0.00000000000E+00 0. -1.
         -1    1    1    2    0  501  0.46317014250E+02 -0.35339567575E+01  0.51742236315E+03  0.51950327867E+03  0.00000000000E+00 0.  1.
</event>
<event>
 4    1  0.6629728E+001  0.3145670E+02  0.7546771E-02  0.1407346E+00
          2   -1    0    0  502    0  0.00000000000E+00  0.00000000000E+00  0.27664738511E+04  0.27664738511E+04  0.00000000000E+00 0. -1.
         -2   -1    0    0    0  501 -0.00000000000E+00 -0.00000000000E+00 -0.40634715167E+00  0.40634715167E+00  0.00000000000E+00 0.  1.
          1    1    1    2  502    0  0.15788306054E+02 -0.27207599316E+02  0.90428148808E+03  0.90482845542E+03  0.00000000000E+00 0. -1.
         -1    1    1    2    0  501 -0.15788306054E+02  0.27207599316E+02  0.18617860159E+04  0.18620517428E+04  0.00000000000E+00 0.  1.
</event>
<event>
 4    1  0.6629728E+001  0.2818166E+02  0.7546771E-02  0.1436086E+00
          2   -1    0    0  502    0  0.00000000000E+00  0.00000000000E+00  0.10609107891E+02  0.10609107891E+02  0.00000000000E+00 0. -1.
         -2   -1    0    0    0  501 -0.00000000000E+00 -0.00000000000E+00 -0.74925283307E+02  0.74925283307E+02  0.00000000000E+00 0.  1.
          1    1    1    2  502    0 -0.26286105077E+02  0.10161028213E+02 -0.33413179705E+02  0.43710941336E+02  0.00000000000E+00 0.  1.
         -1    1    1    2    0  501  0.26286105077E+02 -0.10161028213E+02 -0.30902995711E+02  0.41823449862E+02  0.00000000000E+00 0. -1.
</event>
<event>
 4    1  0.6629728E+001  0.2250487E+02  0.7546771E-02  0.1498811E+00
          2   -1    0    0  502    0  0.00000000000E+00  0.00000000000E+00  0.60377439100E+02  0.60377439100E+02  0.00000000000E+00 0. -1.
         -2   -1    0    0    0  501 -0.00000000000E+00 -0.00000000000E+00 -0.13793024792E+02  0.13793024792E+02  0.00000000000E+00 0.  1.
          1    1    1    2  502    0 -0.10733300102E+02  0.19780430368E+02  0.77957522485E-01  0.22505004644E+02  0.00000000000E+00 0.  1.
         -1    1    1    2    0  501  0.10733300102E+02 -0.19780430368E+02  0.46506456785E+02  0.51665459248E+02  0.00000000000E+00 0. -1.
</event>
<event>
 4    1  0.6629728E+001  0.2390817E+02  0.7546771E-02  0.1481399E+00
          2   -1    0    0  502    0  0.00000000000E+00  0.00000000000E+00  0.11251812287E+03  0.11251812287E+03  0.00000000000E+00 0.  1.
         -2   -1    0    0    0  501 -0.00000000000E+00 -0.00000000000E+00 -0.54573059725E+01  0.54573059725E+01  0.00000000000E+00 0. -1.
          1    1    1    2  502    0  0.23903866462E+02 -0.45344826395E+00  0.38021673475E+02  0.44913785200E+02  0.00000000000E+00 0. -1.
         -1    1    1    2    0  501 -0.23903866462E+02  0.45344826395E+00  0.69039143422E+02  0.73061643642E+02  0.00000000000E+00 0.  1.
</event>
<event>
 4    1  0.6629728E+001  0.2514011E+02  0.7546771E-02  0.1467242E+00
          2   -1    0    0  502    0  0.00000000000E+00  0.00000000000E+00  0.46225639617E+03  0.46225639617E+03  0.00000000000E+00 0. -1.
         -2   -1    0    0    0  501 -0.00000000000E+00 -0.00000000000E+00 -0.13746869234E+01  0.13746869234E+01  0.00000000000E+00 0.  1.
          1    1    1    2  502    0 -0.23738048932E+02 -0.82782908337E+01  0.21340277257E+03  0.21487849685E+03  0.00000000000E+00 0. -1.
         -1    1    1    2    0  501  0.23738048932E+02  0.82782908337E+01  0.24747893668E+03  0.24875258625E+03  0.00000000000E+00 0.  1.
</event>
<event>
 4    1  0.6629728E+001  0.3324954E+02  0.7546771E-02  0.1393305E+00
          2   -1    0    0  502    0  0.00000000000E+00  0.00000000000E+00  0.86544031650E+03  0.86544031650E+03  0.00000000000E+00 0.  1.
         -2   -1    0    0    0  501 -0.00000000000E+00 -0.00000000000E+00 -0.13990155286E+01  0.13990155286E+01  0.00000000000E+00 0. -1.
          1    1    1    2  502    0  0.25078210358E+02 -0.21831522254E+02  0.55979792219E+03  0.56078449130E+03  0.00000000000E+00 0.  1.
         -1    1    1    2    0  501 -0.25078210358E+02  0.21831522254E+02  0.30424337878E+03  0.30605484072E+03  0.00000000000E+00 0. -1.
</event>
<event>
 4    1  0.6629728E+001  0.2065135E+02  0.7546771E-02  0.1524301E+00
          2   -1    0    0  502    0  0.00000000000E+00  0.00000000000E+00  0.40534718282E+03  0.40534718282E+03  0.00000000000E+00 0.  1.
         -2   -1    0    0    0  501 -0.00000000000E+00 -0.00000000000E+00 -0.10969828261E+01  0.10969828261E+01  0.00000000000E+00 0. -1.
          1    1    1    2  502    0  0.20645929297E+02 -0.47323946190E+00  0.24321743934E+03  0.24409260774E+03  0.00000000000E+00 0.  1.
         -1    1    1    2    0  501 -0.20645929297E+02  0.47323946190E+00  0.16103276066E+03  0.16235155791E+03  0.00000000000E+00 0. -1.
</event>
<event>
 4    1  0.6629728E+001  0.2352215E+02  0.7546771E-02  0.1486043E+00
          2   -1    0    0  502    0  0.00000000000E+00  0.00000000000E+00  0.12410557227E+04  0.12410557227E+04  0.00000000000E+00 0.  1.
         -2   -1    0    0    0  501 -0.00000000000E+00 -0.00000000000E+00 -0.45995410613E+00  0.45995410613E+00  0.00000000000E+00 0. -1.
          1    1    1    2  502    0 -0.23379789837E+02  0.25840092596E+01  0.72910240976E+03  0.72948174452E+03  0.00000000000E+00 0.  1.
         -1    1    1    2    0  501  0.23379789837E+02 -0.25840092596E+01  0.51149335884E+03  0.51203393229E+03  0.00000000000E+00 0. -1.
</event>
<event>
 4    1  0.6629728E+001  0.2354515E+02  0.7546771E-02  0.1485764E+00
          2   -1    0    0  502    0  0.00000000000E+00  0.00000000000E+00  0.15620117515E+02  0.15620117515E+02  0.00000000000E+00 0. -1.
         -2   -1    0    0    0  501 -0.00000000000E+00 -0.00000000000E+00 -0.35491035041E+02  0.35491035041E+02  0.00000000000E+00 0.  1.
          1    1    1    2  502    0 -0.21105158030E+02 -0.10437730257E+02 -0.99190100654E+01  0.25549181378E+02  0.00000000000E+00 0.  1.
         -1    1    1    2    0  501  0.21105158030E+02  0.10437730257E+02 -0.99519074604E+01  0.25561971178E+02  0.00000000000E+00 0. -1.
</event>
<event>
 4    1  0.6629728E+001  0.2953538E+02  0.7546771E-02  0.1423678E+00
          2   -1    0    0  502    0  0.00000000000E+00  0.00000000000E+00  0.74829807687E+03  0.74829807687E+03  0.00000000000E+00 0.  1.
         -2   -1    0    0    0  501 -0.00000000000E+00 -0.00000000000E+00 -0.17957914934E+01  0.17957914934E+01  0.00000000000E+00 0. -1.
          1    1    1    2  502    0  0.24971194460E+02  0.15772699083E+02  0.59539667640E+03  0.59612879553E+03  0.00000000000E+00 0.  1.
         -1    1    1    2    0  501 -0.24971194460E+02 -0.15772699083E+02  0.15110560897E+03  0.15396507283E+03  0.00000000000E+00 0. -1.
</event>
<event>
 4    1  0.6629728E+001  0.3018915E+02  0.7546771E-02  0.1417960E+00
          2   -1    0    0  502    0  0.00000000000E+00  0.00000000000E+00  0.42351776684E+02  0.42351776684E+02  0.00000000000E+00 0. -1.
         -2   -1    0    0    0  501 -0.00000000000E+00 -0.00000000000E+00 -0.21524011312E+02  0.21524011312E+02  0.00000000000E+00 0.  1.
          1    1    1    2  502    0  0.22166583477E+02  0.20494566684E+02  0.10881519476E+02  0.32090374768E+02  0.00000000000E+00 0. -1.
         -1    1    1    2    0  501 -0.22166583477E+02 -0.20494566684E+02  0.99462458956E+01  0.31785413227E+02  0.00000000000E+00 0.  1.
</event>
<event>
 4    1  0.6629728E+001  0.2225986E+02  0.7546771E-02  0.1502007E+00
          2   -1    0    0  502    0  0.00000000000E+00  0.00000000000E+00  0.24702751557E+01  0.24702751557E+01  0.00000000000E+00 0. -1.
         -2   -1    0    0    0  501 -0.00000000000E+00 -0.00000000000E+00 -0.20521637026E+03  0.20521637026E+03  0.00000000000E+00 0.  1.
          1    1    1    2  502    0  0.20703539346E+02 -0.81771001936E+01 -0.85773881506E+02  0.88615237164E+02  0.00000000000E+00 0. -1.
         -1    1    1    2    0  501 -0.20703539346E+02  0.81771001936E+01 -0.11697221360E+03  0.11907140826E+03  0.00000000000E+00 0.  1.
</event>
<event>
 4    1  0.6629728E+001  0.2804277E+02  0.7546771E-02  0.1437405E+00
          2   -1    0    0  502    0  0.00000000000E+00  0.00000000000E+00  0.24134519594E+02  0.24134519594E+02  0.00000000000E+00 0. -1.
         -2   -1    0    0    0  501 -0.00000000000E+00 -0.00000000000E+00 -0.33238054909E+02  0.33238054909E+02  0.00000000000E+00 0.  1.
          1    1    1    2  502    0 -0.26992064085E+02  0.76043044360E+01 -0.52743250944E+00  0.28047729936E+02  0.00000000000E+00 0. -1.
         -1    1    1    2    0  501  0.26992064085E+02 -0.76043044360E+01 -0.85761028050E+01  0.29324844566E+02  0.00000000000E+00 0.  1.
</event>
<event>
 4    1  0.6629728E+001  0.2263491E+02  0.7546771E-02  0.1497134E+00
          2   -1    0    0  502    0  0.00000000000E+00  0.00000000000E+00  0.27793004791E+03  0.27793004791E+03  0.00000000000E+00 0. -1.
         -2   -1    0    0    0  501 -0.00000000000E+00 -0.00000000000E+00 -0.23402382534E+01  0.23402382534E+01  0.00000000000E+00 0.  1.
          1    1    1    2  502    0 -0.22633130269E+02  0.28371014999E+00  0.73226494834E+02  0.76645016948E+02  0.00000000000E+00 0.  1.
         -1    1    1    2    0  501  0.22633130269E+02 -0.28371014999E+00  0.20236331482E+03  0.20362526921E+03  0.00000000000E+00 0. -1.
</event>
<event>
 4    1  0.6629728E+001  0.4349126E+02  0.7546771E-02  0.1329158E+00
          2   -1    0    0  502    0  0.00000000000E+00  0.00000000000E+00  0.23357993158E+02  0.23357993158E+02  0.00000000000E+00 0.  1.
         -2   -1    0    0    0  501 -0.00000000000E+00 -0.00000000000E+00 -0.16730538670E+03  0.16730538670E+03  0.00000000000E+00 0. -1.
          1    1    1    2  502    0  0.35013787988E+02  0.25797764901E+02 -0.14045246374E+03  0.14703191692E+03  0.00000000000E+00 0. -1.
         -1    1    1    2    0  501 -0.35013787988E+02 -0.25797764901E+02 -0.34949297975E+01  0.43631462931E+02  0.00000000000E+00 0.  1.
</event>
<event>
 4    1  0.6629728E+001  0.2451782E+02  0.7546771E-02  0.1474270E+00
          2   -1    0    0  502    0  0.00000000000E+00  0.00000000000E+00  0.80035018012E+03  0.80035018012E+03  0.00000000000E+00 0. -1.
         -2   -1    0    0    0  501 -0.00000000000E+00 -0.00000000000E+00 -0.84552579531E+00  0.84552579531E+00  0.00000000000E+00 0.  1.
          1    1    1    2  502    0 -0.12353230703E+02  0.21178319488E+02  0.26586282684E+03  0.26699094783E+03  0.00000000000E+00 0.  1.
         -1    1    1    2    0  501  0.12353230703E+02 -0.21178319488E+02  0.53364182748E+03  0.53420475808E+03  0.00000000000E+00 0. -1.
</event>
<event>
 4    1  0.6629728E+001  0.3321365E+02  0.7546771E-02  0.1393576E+00
          2   -1    0    0  502    0  0.00000000000E+00  0.00000000000E+00  0.56437298326E+03  0.56437298326E+03  0.00000000000E+00 0.  1.
         -2   -1    0    0    0  501 -0.00000000000E+00 -0.00000000000E+00 -0.24657492831E+01  0.24657492831E+01  0.00000000000E+00 0. -1.
          1    1    1    2  502    0 -0.41616629240E+01 -0.32951890359E+02  0.15191741653E+03  0.15550578112E+03  0.00000000000E+00 0.  1.
         -1    1    1    2    0  501  0.41616629240E+01  0.32951890359E+02  0.40998981745E+03  0.41133295142E+03  0.00000000000E+00 0. -1.
</event>
<event>
 4    1  0.6629728E+001  0.3135494E+02  0.7546771E-02  0.1408176E+00
          2   -1    0    0  502    0  0.00000000000E+00  0.00000000000E+00  0.34172182311E+03  0.34172182311E+03  0.00000000000E+00 0.  1.
         -2   -1    0    0    0  501 -0.00000000000E+00 -0.00000000000E+00 -0.32412122229E+01  0.32412122229E+01  0.00000000000E+00 0. -1.
          1    1    1    2  502    0 -0.68527805164E+01 -0.30596924280E+02  0.11142159878E+03  0.11574931988E+03  0.00000000000E+00 0. -1.
         -1    1    1    2    0  501  0.68527805164E+01  0.30596924280E+02  0.22705901210E+03  0.22921371545E+03  0.00000000000E+00 0.  1.
</event>
<event>
 4    1  0.6629728E+001  0.4577166E+02  0.7546771E-02  0.1317625E+00
          2   -1    0    0  502    0  0.00000000000E+00  0.00000000000E+00  0.12639011753E+04  0.12639011753E+04  0.00000000000E+00 0. -1.
         -2   -1    0    0    0  501 -0.00000000000E+00 -0.00000000000E+00 -0.16902268260E+01  0.16902268260E+01  0.00000000000E+00 0.  1.
          1    1    1    2  502    0  0.34495473505E+02 -0.30085002954E+02  0.54319001745E+03  0.54511507056E+03  0.00000000000E+00 0.  1.
         -1    1    1    2    0  501 -0.34495473505E+02  0.30085002954E+02  0.71902093099E+03  0.72047633154E+03  0.00000000000E+00 0. -1.
</event>
<event>
 4    1  0.6629728E+001  0.2688192E+02  0.7546771E-02  0.1448798E+00
          2   -1    0    0  502    0  0.00000000000E+00  0.00000000000E+00  0.47230361795E+02  0.47230361795E+02  0.00000000000E+00 0. -1.
         -2   -1    0    0    0  501 -0.00000000000E+00 -0.00000000000E+00 -0.30550345422E+02  0.30550345422E+02  0.00000000000E+00 0.  1.
          1    1    1    2  502    0 -0.21750579652E+02  0.15797143074E+02  0.35817037557E+02  0.44782782672E+02  0.00000000000E+00 0. -1.
         -1    1    1    2    0  501  0.21750579652E+02 -0.15797143074E+02 -0.19137021184E+02  0.32997924545E+02  0.00000000000E+00 0.  1.
</event>
<event>
 4    1  0.6629728E+001  0.3104803E+02  0.7546771E-02  0.1410702E+00
          2   -1    0    0  502    0  0.00000000000E+00  0.00000000000E+00  0.65642434340E+02  0.65642434340E+02  0.00000000000E+00 0.  1.
         -2   -1    0    0    0  501 -0.00000000000E+00 -0.00000000000E+00 -0.28696704064E+02  0.28696704064E+02  0.00000000000E+00 0. -1.
          1    1    1    2  502    0 -0.20467660145E+02  0.23346420319E+02  0.51432800277E+02  0.60077561517E+02  0.00000000000E+00 0.  1.
         -1    1    1    2    0  501  0.20467660145E+02 -0.23346420319E+02 -0.14487070002E+02  0.34261576886E+02  0.00000000000E+00 0. -1.
</event>
<event>
 4    1  0.6629728E+001  0.3445973E+02  0.7546771E-02  0.1384402E+00
          2   -1    0    0  502    0  0.00000000000E+00  0.00000000000E+00  0.57872383759E+02  0.57872383759E+02  0.00000000000E+00 0.  1.
         -2   -1    0    0    0  501 -0.00000000000E+00 -0.00000000000E+00 -0.55883116531E+02  0.55883116531E+02  0.00000000000E+00 0. -1.
          1    1    1    2  502    0  0.22736070750E+02  0.25894863258E+02  0.46241096035E+02  0.57668984895E+02  0.00000000000E+00 0.  1.
         -1    1    1    2    0  501 -0.22736070750E+02 -0.25894863258E+02 -0.44251828807E+02  0.56086515394E+02  0.00000000000E+00 0. -1.
</event>
<event>
 4    1  0.6629728E+001  0.2399842E+02  0.7546771E-02  0.1480328E+00
          2   -1    0    0  502    0  0.00000000000E+00  0.00000000000E+00  0.40047253417E+02  0.40047253417E+02  0.00000000000E+00 0.  1.
         -2   -1    0    0    0  501 -0.00000000000E+00 -0.00000000000E+00 -0.14407709401E+02  0.14407709401E+02  0.00000000000E+00 0. -1.
          1    1    1    2  502    0 -0.15203957855E+02 -0.18567818605E+02  0.11650025442E+02  0.26676718595E+02  0.00000000000E+00 0.  1.
         -1    1    1    2    0  501  0.15203957855E+02  0.18567818605E+02  0.13989518573E+02  0.27778244223E+02  0.00000000000E+00 0. -1.
</event>
<event>
 4    1  0.6629728E+001  0.2093012E+02  0.7546771E-02  0.1520265E+00
          2   -1    0    0  502    0  0.00000000000E+00  0.00000000000E+00  0.72183652552E+02  0.72183652552E+02  0.00000000000E+00 0.  1.
         -2   -1    0    0    0  501 -0.00000000000E+00 -0.00000000000E+00 -0.18462428282E+02  0.18462428282E+02  0.00000000000E+00 0. -1.
          1    1    1    2  502    0  0.17392213042E+02  0.11643924175E+02  0.63994754565E+02  0.67330518018E+02  0.00000000000E+00 0.  1.
         -1    1    1    2    0  501 -0.17392213042E+02 -0.11643924175E+02 -0.10273530296E+02  0.23315562816E+02  0.00000000000E+00 0. -1.
</event>
<event>
 4    1  0.6629728E+001  0.2725861E+02  0.7546771E-02  0.1445028E+00
          2   -1    0    0  502    0  0.00000000000E+00  0.00000000000E+00  0.60745522123E+03  0.60745522123E+03  0.00000000000E+00 0.  1.
         -2   -1    0    0    0  501 -0.00000000000E+00 -0.00000000000E+00 -0.25282675730E+01  0.25282675730E+01  0.00000000000E+00 0. -1.
          1    1    1    2  502    0 -0.15386005031E+02 -0.22501168230E+02  0.83336866079E+02  0.87681611358E+02  0.00000000000E+00 0. -1.
         -1    1    1    2    0  501  0.15386005031E+02  0.22501168230E+02  0.52159008758E+03  0.52230187745E+03  0.00000000000E+00 0.  1.
</event>
<event>
 4    1  0.6629728E+001  0.2398777E+02  0.7546771E-02  0.1480454E+00
          2   -1    0    0  502    0  0.00000000000E+00  0.00000000000E+00  0.66577242443E+03  0.66577242443E+03  0.00000000000E+00 0. -1.
         -2   -1    0    0    0  501 -0.00000000000E+00 -0.00000000000E+00 -0.12239825202E+01  0.12239825202E+01  0.00000000000E+00 0.  1.
          1    1    1    2  502    0  0.23903959828E+02 -0.20034766831E+01  0.51306578179E+03  0.51362623536E+03  0.00000000000E+00 0. -1.
         -1    1    1    2    0  501 -0.23903959828E+02  0.20034766831E+01  0.15148266012E+03  0.15337017159E+03  0.00000000000E+00 0.  1.
</event>
<event>
 4    1  0.6629728E+001  0.3199744E+02  0.7546771E-02  0.1402997E+00
          2   -1    0    0  502    0  0.00000000000E+00  0.00000000000E+00  0.74514898140E+02  0.74514898140E+02  0.00000000000E+00 0. -1.
         -2   -1    0    0    0  501 -0.00000000000E+00 -0.00000000000E+00 -0.31408529833E+02  0.31408529833E+02  0.00000000000E+00 0.  1.
          1    1    1    2  502    0  0.30168921452E+02  0.10661734431E+02 -0.18169460360E+02  0.36796272806E+02  0.00000000000E+00 0.  1.
         -1    1    1    2    0  501 -0.30168921452E+02 -0.10661734431E+02  0.61275828667E+02  0.69127155167E+02  0.00000000000E+00 0. -1.
</event>
<event>
 4    1  0.6629728E+001  0.4475498E+02  0.7546771E-02  0.1322669E+00
          2   -1    0    0  502    0  0.00000000000E+00  0.00000000000E+00  0.35469615196E+03  0.35469615196E+03  0.00000000000E+00 0.  1.
         -2   -1    0    0    0  501 -0.00000000000E+00 -0.00000000000E+00 -0.63717609763E+01  0.63717609763E+01  0.00000000000E+00 0. -1.
          1    1    1    2  502    0 -0.41356235728E+01 -0.44563490172E+02  0.11327952018E+03  0.12180007278E+03  0.00000000000E+00 0. -1.
         -1    1    1    2    0  501  0.41356235728E+01  0.44563490172E+02  0.23504487080E+03  0.23926784015E+03  0.00000000000E+00 0.  1.
</event>
<event>
 4    1  0.6629728E+001  0.3082232E+02  0.7546771E-02  0.1412582E+00
          2   -1    0    0  502    0  0.00000000000E+00  0.00000000000E+00  0.69898154816E+02  0.69898154816E+02  0.00000000000E+00 0. -1.
         -2   -1    0    0    0  501 -0.00000000000E+00 -0.00000000000E+00 -0.17254982666E+02  0.17254982666E+02  0.00000000000E+00 0.  1.
          1    1    1    2  502    0 -0.22937476899E+02  0.20588529876E+02  0.46400831331E+02  0.55705049656E+02  0.00000000000E+00 0. -1.
         -1    1    1    2    0  501  0.22937476899E+02 -0.20588529876E+02  0.62423408189E+01  0.31448087826E+02  0.00000000000E+00 0.  1.
</event>
<event>
 4    1  0.6629728E+001  0.2064466E+02  0.7546771E-02  0.1524399E+00
          2   -1    0    0  502    0  0.00000000000E+00  0.00000000000E+00  0.19803929466E+02  0.19803929466E+02  0.00000000000E+00 0.  1.
         -2   -1    0    0    0  501 -0.00000000000E+00 -0.00000000000E+00 -0.22108311501E+02  0.22108311501E+02  0.00000000000E+00 0. -1.
          1    1    1    2  502    0  0.95384166738E+01 -0.18309028332E+02  0.22631848405E+01  0.20768339287E+02  0.00000000000E+00 0.  1.
         -1    1    1    2    0  501 -0.95384166738E+01  0.18309028332E+02 -0.45675668754E+01  0.21143901680E+02  0.00000000000E+00 0. -1.
</event>
<event>
 4    1  0.6629728E+001  0.2153801E+02  0.7546771E-02  0.1511720E+00
          2   -1    0    0  502    0  0.00000000000E+00  0.00000000000E+00  0.31929346613E+01  0.31929346613E+01  0.00000000000E+00 0. -1.
         -2   -1    0    0    0  501 -0.00000000000E+00 -0.00000000000E+00 -0.27236106920E+03  0.27236106920E+03  0.00000000000E+00 0.  1.
          1    1    1    2  502    0 -0.16881912792E+02  0.13374852859E+02 -0.22869412017E+03  0.22970608671E+03  0.00000000000E+00 0.  1.
         -1    1    1    2    0  501  0.16881912792E+02 -0.13374852859E+02 -0.40474014367E+02  0.45847917156E+02  0.00000000000E+00 0. -1.
</event>
<event>
 4    1  0.6629728E+001  0.2637532E+02  0.7546771E-02  0.1453986E+00
          2   -1    0    0  502    0  0.00000000000E+00  0.00000000000E+00  0.22595997198E+03  0.22595997198E+03  0.00000000000E+00 0.  1.
         -2   -1    0    0    0  501 -0.00000000000E+00 -0.00000000000E+00 -0.31080490023E+01  0.31080490023E+01  0.00000000000E+00 0. -1.
          1    1    1    2  502    0  0.26316968367E+02  0.17534417989E+01  0.10029148094E+03  0.10370168047E+03  0.00000000000E+00 0. -1.
         -1    1    1    2    0  501 -0.26316968367E+02 -0.17534417989E+01  0.12256044203E+03  0.12536634051E+03  0.00000000000E+00 0.  1.
</event>
<event>
 4    1  0.6629728E+001  0.5385963E+02  0.7546771E-02  0.1282253E+00
          2   -1    0    0  502    0  0.00000000000E+00  0.00000000000E+00  0.32094679327E+04  0.32094679327E+04  0.00000000000E+00 0.  1.
         -2   -1    0    0    0  501 -0.00000000000E+00 -0.00000000000E+00 -0.36969893099E+01  0.36969893099E+01  0.00000000000E+00 0. -1.
          1    1    1    2  502    0  0.34810671019E+01 -0.53747022523E+02  0.29993362822E+04  0.29998198269E+04  0.00000000000E+00 0.  1.
         -1    1    1    2    0  501 -0.34810671019E+01  0.53747022523E+02  0.20643466118E+03  0.21334509508E+03  0.00000000000E+00 0. -1.
</event>
<event>
 4    1  0.6629728E+001  0.2981892E+02  0.7546771E-02  0.1421177E+00
          2   -1    0    0  502    0  0.00000000000E+00  0.00000000000E+00  0.13817573859E+04  0.13817573859E+04  0.00000000000E+00 0.  1.
         -2   -1    0    0    0  501 -0.00000000000E+00 -0.00000000000E+00 -0.68657740205E+00  0.68657740205E+00  0.00000000000E+00 0. -1.
          1    1    1    2  502    0  0.83531170979E+01  0.28625046868E+02  0.86366528008E+03  0.86417989093E+03  0.00000000000E+00 0.  1.
         -1    1    1    2    0  501 -0.83531170979E+01 -0.28625046868E+02  0.51740552841E+03  0.51826407236E+03  0.00000000000E+00 0. -1.
</event>
<event>
 4    1  0.6629728E+001  0.2248948E+02  0.7546771E-02  0.1499010E+00
          2   -1    0    0  502    0  0.00000000000E+00  0.00000000000E+00  0.82240632052E+03  0.82240632052E+03  0.00000000000E+00 0.  1.
         -2   -1    0    0    0  501 -0.00000000000E+00 -0.00000000000E+00 -0.81812926578E+00  0.81812926578E+00  0.00000000000E+00 0. -1.
          1    1    1    2  502    0  0.21784759021E+02  0.55857669838E+01  0.61589516695E+03  0.61630563294E+03  0.00000000000E+00 0.  1.
         -1    1    1    2    0  501 -0.21784759021E+02 -0.55857669838E+01  0.20569302430E+03  0.20691881685E+03  0.00000000000E+00 0. -1.
</event>
<event>
 4    1  0.6629728E+001  0.2053854E+02  0.7546771E-02  0.1525956E+00
          2   -1    0    0  502    0  0.00000000000E+00  0.00000000000E+00  0.79880381707E+02  0.79880381707E+02  0.00000000000E+00 0. -1.
         -2   -1    0    0    0  501 -0.00000000000E+00 -0.00000000000E+00 -0.57208654803E+01  0.57208654803E+01  0.00000000000E+00 0.  1.
          1    1    1    2  502    0 -0.20079045468E+02 -0.43201468598E+01  0.48950599090E+02  0.53084770764E+02  0.00000000000E+00 0. -1.
         -1    1    1    2    0  501  0.20079045468E+02  0.43201468598E+01  0.25208917136E+02  0.32516476423E+02  0.00000000000E+00 0.  1.
</event>
<event>
 4    1  0.6629728E+001  0.2792952E+02  0.7546771E-02  0.1438488E+00
          2   -1    0    0  502    0  0.00000000000E+00  0.00000000000E+00  0.59458484679E+03  0.59458484679E+03  0.00000000000E+00 0. -1.
         -2   -1    0    0    0  501 -0.00000000000E+00 -0.00000000000E+00 -0.42193271625E+01  0.42193271625E+01  0.00000000000E+00 0.  1.
          1    1    1    2  502    0 -0.93426567518E+01 -0.26320578802E+02  0.46649308807E+02  0.54371096327E+02  0.00000000000E+00 0.  1.
         -1    1    1    2    0  501  0.93426567518E+01  0.26320578802E+02  0.54371621082E+03  0.54443307763E+03  0.00000000000E+00 0. -1.
</event>
<event>
 4    1  0.6629728E+001  0.2001184E+02  0.7546771E-02  0.1533855E+00
          2   -1    0    0  502    0  0.00000000000E+00  0.00000000000E+00  0.18645791798E+03  0.18645791798E+03  0.00000000000E+00 0.  1.
         -2   -1    0    0    0  501 -0.00000000000E+00 -0.00000000000E+00 -0.22287362016E+01  0.22287362016E+01  0.00000000000E+00 0. -1.
          1    1    1    2  502    0 -0.14274963389E+02  0.14024947175E+02  0.11009343633E+03  0.11189744611E+03  0.00000000000E+00 0.  1.
         -1    1    1    2    0  501  0.14274963389E+02 -0.14024947175E+02  0.74135745445E+02  0.76789208068E+02  0.00000000000E+00 0. -1.
</event>
<event>
 4    1  0.6629728E+001  0.2544684E+02  0.7546771E-02  0.1463866E+00
          2   -1    0    0  502    0  0.00000000000E+00  0.00000000000E+00  0.44142599507E+02  0.44142599507E+02  0.00000000000E+00 0. -1.
         -2   -1    0    0    0  501 -0.00000000000E+00 -0.00000000000E+00 -0.28041058255E+02  0.28041058255E+02  0.00000000000E+00 0.  1.
          1    1    1    2  502    0  0.25139889642E+02 -0.39404838995E+01  0.32974084680E+02  0.41651311205E+02  0.00000000000E+00 0. -1.
         -1    1    1    2    0  501 -0.25139889642E+02  0.39404838995E+01 -0.16872543428E+02  0.30532346557E+02  0.00000000000E+00 0.  1.
</event>
<event>
 4    1  0.6629728E+001  0.2444966E+02  0.7546771E-02  0.1475055E+00
          2   -1    0    0  502    0  0.00000000000E+00  0.00000000000E+00  0.44273532723E+03  0.44273532723E+03  0.00000000000E+00 0. -1.
         -2   -1    0    0    0  501 -0.00000000000E+00 -0.00000000000E+00 -0.14841685733E+01  0.14841685733E+01  0.00000000000E+00 0.  1.
          1    1    1    2  502    0 -0.23694884192E+02  0.60281344781E+01  0.28735390837E+03  0.28839218886E+03  0.00000000000E+00 0.  1.
         -1    1    1    2    0  501  0.23694884192E+02 -0.60281344781E+01  0.15389725028E+03  0.15582730693E+03  0.00000000000E+00 0. -1.
</event>
<event>
 4    1  0.6629728E+001  0.2837150E+02  0.7546771E-02  0.1434297E+00
          2   -1    0    0  502    0  0.00000000000E+00  0.00000000000E+00  0.42619471074E+02  0.42619471074E+02  0.00000000000E+00 0.  1.
         -2   -1    0    0    0  501 -0.00000000000E+00 -0.00000000000E+00 -0.21941041676E+02  0.21941041676E+02  0.00000000000E+00 0. -1.
          1    1    1    2  502    0  0.22122112541E+02 -0.17763837017E+02 -0.17046579517E+01  0.28422660460E+02  0.00000000000E+00 0. -1.
         -1    1    1    2    0  501 -0.22122112541E+02  0.17763837017E+02  0.22383087350E+02  0.36137852290E+02  0.00000000000E+00 0.  1.
</event>
<event>
 4    1  0.6629728E+001  0.4074031E+02  0.7546771E-02  0.1344201E+00
          2   -1    0    0  502    0  0.00000000000E+00  0.00000000000E+00  0.18556010423E+03  0.18556010423E+03  0.00000000000E+00 0. -1.
         -2   -1    0    0    0  501 -0.00000000000E+00 -0.00000000000E+00 -0.12506246026E+02  0.12506246026E+02  0.00000000000E+00 0.  1.
          1    1    1    2  502    0 -0.40581790932E+02 -0.35903681170E+01  0.13937617426E+03  0.14520843794E+03  0.00000000000E+00 0. -1.
         -1    1    1    2    0  501  0.40581790932E+02  0.35903681170E+01  0.33677683950E+02  0.52857912319E+02  0.00000000000E+00 0.  1.
</event>
<event>
 4    1  0.6629728E+001  0.2164066E+02  0.7546771E-02  0.1510311E+00
          2   -1    0    0  502    0  0.00000000000E+00  0.00000000000E+00  0.18688418941E+04  0.18688418941E+04  0.00000000000E+00 0. -1.
         -2   -1    0    0    0  501 -0.00000000000E+00 -0.00000000000E+00 -0.36087761691E+00  0.36087761691E+00  0.00000000000E+00 0.  1.
          1    1    1    2  502    0  0.21610636745E+02 -0.11396125210E+01  0.41758115512E+03  0.41814153041E+03  0.00000000000E+00 0.  1.
         -1    1    1    2    0  501 -0.21610636745E+02  0.11396125210E+01  0.14508998614E+04  0.14510612413E+04  0.00000000000E+00 0. -1.
</event>
<event>
 4    1  0.6629728E+001  0.2243900E+02  0.7546771E-02  0.1499665E+00
          2   -1    0    0  502    0  0.00000000000E+00  0.00000000000E+00  0.71792163975E+02  0.71792163975E+02  0.00000000000E+00 0. -1.
         -2   -1    0    0    0  501 -0.00000000000E+00 -0.00000000000E+00 -0.90153682422E+01  0.90153682422E+01  0.00000000000E+00 0.  1.
          1    1    1    2  502    0  0.19779200392E+02  0.10596783406E+02  0.12348853384E+02  0.25612550958E+02  0.00000000000E+00 0.  1.
         -1    1    1    2    0  501 -0.19779200392E+02 -0.10596783406E+02  0.50427942348E+02  0.55194981259E+02  0.00000000000E+00 0. -1.
</event>
<event>
 4    1  0.6629728E+001  0.2090390E+02  0.7546771E-02  0.1520641E+00
          2   -1    0    0  502    0  0.00000000000E+00  0.00000000000E+00  0.92201128712E+03  0.92201128712E+03  0.00000000000E+00 0. -1.
         -2   -1    0    0    0  501 -0.00000000000E+00 -0.00000000000E+00 -0.57872478313E+00  0.57872478313E+00  0.00000000000E+00 0.  1.
          1    1    1    2  502    0 -0.12442291621E+02  0.16797695373E+02  0.65700832515E+03  0.65734078872E+03  0.00000000000E+00 0. -1.
         -1    1    1    2    0  501  0.12442291621E+02 -0.16797695373E+02  0.26442423719E+03  0.26524922319E+03  0.00000000000E+00 0.  1.
</event>
<event>
 4    1  0.6629728E+001  0.2219056E+02  0.7546771E-02  0.1502920E+00
          2   -1    0    0  502    0  0.00000000000E+00  0.00000000000E+00  0.12063312170E+02  0.12063312170E+02  0.00000000000E+00 0.  1.
         -2   -1    0    0    0  501 -0.00000000000E+00 -0.00000000000E+00 -0.89912977388E+02  0.89912977388E+02  0.00000000000E+00 0. -1.
          1    1    1    2  502    0 -0.18316568261E+02 -0.12526934316E+02 -0.12484634300E+01  0.22225647733E+02  0.00000000000E+00 0.  1.
         -1    1    1    2    0  501  0.18316568261E+02  0.12526934316E+02 -0.76601201787E+02  0.79750641825E+02  0.00000000000E+00 0. -1.
</event>
<event>
 4    1  0.6629728E+001  0.3735465E+02  0.7546771E-02  0.1364726E+00
          2   -1    0    0  502    0  0.00000000000E+00  0.00000000000E+00  0.89686727109E+02  0.89686727109E+02  0.00000000000E+00 0.  1.
         -2   -1    0    0    0  501 -0.00000000000E+00 -0.00000000000E+00 -0.17441275419E+02  0.17441275419E+02  0.00000000000E+00 0. -1.
          1    1    1    2  502    0  0.72765942436E+01 -0.36639065263E+02  0.53722624868E+02  0.65433098275E+02  0.00000000000E+00 0. -1.
         -1    1    1    2    0  501 -0.72765942436E+01  0.36639065263E+02  0.18522826822E+02  0.41694904252E+02  0.00000000000E+00 0.  1.
</event>
<event>
 4    1  0.6629728E+001  0.3951226E+02  0.7546771E-02  0.1351368E+00
          2   -1    0    0  502    0  0.00000000000E+00  0.00000000000E+00  0.14712578470E+03  0.14712578470E+03  0.00000000000E+00 0.  1.
         -2   -1    0    0    0  501 -0.00000000000E+00 -0.00000000000E+00 -0.12000239429E+02  0.12000239429E+02  0.00000000000E+00 0. -1.
          1    1    1    2  502    0  0.58520691740E+01 -0.39076492557E+02  0.40496196751E+02  0.56578802881E+02  0.00000000000E+00 0. -1.
         -1    1    1    2    0  501 -0.58520691740E+01  0.39076492557E+02  0.94629348516E+02  0.10254722124E+03  0.00000000000E+00 0.  1.
</event>
<event>
 4    1  0.6629728E+001  0.2091184E+02  0.7546771E-02  0.1520527E+00
          2   -1    0    0  502    0  0.00000000000E+00  0.00000000000E+00  0.31189298725E+02  0.31189298725E+02  0.00000000000E+00 0.  1.
         -2   -1    0    0    0  501 -0.00000000000E+00 -0.00000000000E+00 -0.14139819942E+02  0.14139819942E+02  0.00000000000E+00 0. -1.
          1    1    1    2  502    0 -0.20488923416E+02 -0.41843814374E+01  0.10602413509E+02  0.23446027445E+02  0.00000000000E+00 0. -1.
         -1    1    1    2    0  501  0.20488923416E+02  0.41843814374E+01  0.64470652743E+01  0.21883091221E+02  0.00000000000E+00 0.  1.
</event>
<event>
 4    1  0.6629728E+001  0.2312210E+03  0.7546771E-02  0.1034967E+00
          2   -1    0    0  502    0  0.00000000000E+00  0.00000000000E+00  0.11784738690E+03  0.11784738690E+03  0.00000000000E+00 0.  1.
         -2   -1    0    0    0  501 -0.00000000000E+00 -0.00000000000E+00 -0.65237126373E+03  0.65237126373E+03  0.00000000000E+00 0. -1.
          1    1    1    2  502    0  0.10059923891E+03  0.20818970510E+03 -0.54720755072E+02  0.23760791488E+03  0.00000000000E+00 0.  1.
         -1    1    1    2    0  501 -0.10059923891E+03 -0.20818970510E+03 -0.47980312176E+03  0.53261073575E+03  0.00000000000E+00 0. -1.
</event>
<event>
 4    1  0.6629728E+001  0.2990620E+02  0.7546771E-02  0.1420413E+00
          2   -1    0    0  502    0  0.00000000000E+00  0.00000000000E+00  0.16906365915E+04  0.16906365915E+04  0.00000000000E+00 0.  1.
         -2   -1    0    0    0  501 -0.00000000000E+00 -0.00000000000E+00 -0.70808354607E+00  0.70808354607E+00  0.00000000000E+00 0. -1.
          1    1    1    2  502    0  0.13084410353E+02  0.26891985163E+02  0.12702329336E+04  0.12705849387E+04  0.00000000000E+00 0.  1.
         -1    1    1    2    0  501 -0.13084410353E+02 -0.26891985163E+02  0.41969557434E+03  0.42075973641E+03  0.00000000000E+00 0. -1.
</event>
<event>
 4    1  0.6629728E+001  0.2651809E+02  0.7546771E-02  0.1452510E+00
          2   -1    0    0  502    0  0.00000000000E+00  0.00000000000E+00  0.33629743653E+03  0.33629743653E+03  0.00000000000E+00 0.  1.
         -2   -1    0    0    0  501 -0.00000000000E+00 -0.00000000000E+00 -0.21419428388E+01  0.21419428388E+01  0.00000000000E+00 0. -1.
          1    1    1    2  502    0  0.23236030402E+02 -0.12778730476E+02  0.19316615107E+03  0.19497787306E+03  0.00000000000E+00 0.  1.
         -1    1    1    2    0  501 -0.23236030402E+02  0.12778730476E+02  0.14098934262E+03  0.14346150632E+03  0.00000000000E+00 0. -1.
</event>
<event>
 4    1  0.6629728E+001  0.2791540E+02  0.7546771E-02  0.1438623E+00
          2   -1    0    0  502    0  0.00000000000E+00  0.00000000000E+00  0.24143593039E+01  0.24143593039E+01  0.00000000000E+00 0.  1.
         -2   -1    0    0    0  501 -0.00000000000E+00 -0.00000000000E+00 -0.37931677128E+03  0.37931677128E+03  0.00000000000E+00 0. -1.
          1    1    1    2  502    0 -0.24162243262E+02 -0.13980538114E+02 -0.11475389685E+03  0.11810049232E+03  0.00000000000E+00 0. -1.
         -1    1    1    2    0  501  0.24162243262E+02  0.13980538114E+02 -0.26214851513E+03  0.26363063826E+03  0.00000000000E+00 0.  1.
</event>
<event>
 4    1  0.6629728E+001  0.3186992E+02  0.7546771E-02  0.1404014E+00
          2   -1    0    0  502    0  0.00000000000E+00  0.00000000000E+00  0.10507029763E+04  0.10507029763E+04  0.00000000000E+00 0. -1.
         -2   -1    0    0    0  501 -0.00000000000E+00 -0.00000000000E+00 -0.96733687597E+00  0.96733687597E+00  0.00000000000E+00 0.  1.
          1    1    1    2  502    0  0.30997909322E+02 -0.74041528575E+01  0.51114845843E+03  0.51214103372E+03  0.00000000000E+00 0. -1.
         -1    1    1    2    0  501 -0.30997909322E+02  0.74041528575E+01  0.53858718098E+03  0.53952927945E+03  0.00000000000E+00 0.  1.
</event>
<event>
 4    1  0.6629728E+001  0.2066405E+02  0.7546771E-02  0.1524116E+00
          2   -1    0    0  502    0  0.00000000000E+00  0.00000000000E+00  0.89840596554E+02  0.89840596554E+02  0.00000000000E+00 0. -1.
         -2   -1    0    0    0  501 -0.00000000000E+00 -0.00000000000E+00 -0.47649332231E+01  0.47649332231E+01  0.00000000000E+00 0.  1.
          1    1    1    2  502    0 -0.28823867335E+01  0.20462035369E+02  0.40160363555E+02  0.45164785459E+02  0.00000000000E+00 0.  1.
         -1    1    1    2    0  501  0.28823867335E+01 -0.20462035369E+02  0.44915299776E+02  0.49440744317E+02  0.00000000000E+00 0. -1.
</event>
<event>
 4    1  0.6629728E+001  0.2504476E+02  0.7546771E-02  0.1468303E+00
          2   -1    0    0  502    0  0.00000000000E+00  0.00000000000E+00  0.37952101107E+03  0.37952101107E+03  0.00000000000E+00 0. -1.
         -2   -1    0    0    0  501 -0.00000000000E+00 -0.00000000000E+00 -0.23895490371E+01  0.23895490371E+01  0.00000000000E+00 0.  1.
          1    1    1    2  502    0  0.25008181237E+02 -0.13530960358E+01  0.29460301417E+03  0.29566564893E+03  0.00000000000E+00 0. -1.
         -1    1    1    2    0  501 -0.25008181237E+02  0.13530960358E+01  0.82528447858E+02  0.86244911175E+02  0.00000000000E+00 0.  1.
</event>
<event>
 4    1  0.6629728E+001  0.2027444E+02  0.7546771E-02  0.1529881E+00
          2   -1    0    0  502    0  0.00000000000E+00  0.00000000000E+00  0.43412459436E+02  0.43412459436E+02  0.00000000000E+00 0. -1.
         -2   -1    0    0    0  501 -0.00000000000E+00 -0.00000000000E+00 -0.14112423469E+02  0.14112423469E+02  0.00000000000E+00 0.  1.
          1    1    1    2  502    0  0.16750321243E+02 -0.11422767267E+02 -0.18492744048E+01  0.20358602349E+02  0.00000000000E+00 0.  1.
         -1    1    1    2    0  501 -0.16750321243E+02  0.11422767267E+02  0.31149310372E+02  0.37166280557E+02  0.00000000000E+00 0. -1.
</event>
<event>
 4    1  0.6629728E+001  0.6367964E+02  0.7546771E-02  0.1247818E+00
          2   -1    0    0  502    0  0.00000000000E+00  0.00000000000E+00  0.35149714419E+03  0.35149714419E+03  0.00000000000E+00 0.  1.
         -2   -1    0    0    0  501 -0.00000000000E+00 -0.00000000000E+00 -0.12188488162E+02  0.12188488162E+02  0.00000000000E+00 0. -1.
          1    1    1    2  502    0 -0.61283123607E+02  0.17305357566E+02  0.12760163061E+03  0.14260881030E+03  0.00000000000E+00 0. -1.
         -1    1    1    2    0  501  0.61283123607E+02 -0.17305357566E+02  0.21170702542E+03  0.22107682205E+03  0.00000000000E+00 0.  1.
</event>
<event>
 4    1  0.6629728E+001  0.2361513E+02  0.7546771E-02  0.1484915E+00
          2   -1    0    0  502    0  0.00000000000E+00  0.00000000000E+00  0.41266876330E+03  0.41266876330E+03  0.00000000000E+00 0.  1.
         -2   -1    0    0    0  501 -0.00000000000E+00 -0.00000000000E+00 -0.13633513639E+01  0.13633513639E+01  0.00000000000E+00 0. -1.
          1    1    1    2  502    0 -0.23599003730E+02  0.87255343681E+00  0.18625798918E+03  0.18774906886E+03  0.00000000000E+00 0. -1.
         -1    1    1    2    0  501  0.23599003730E+02 -0.87255343681E+00  0.22504742276E+03  0.22628304580E+03  0.00000000000E+00 0.  1.
</event>
<event>
 4    1  0.6629728E+001  0.3559378E+02  0.7546771E-02  0.1376436E+00
          2   -1    0    0  502    0  0.00000000000E+00  0.00000000000E+00  0.68829260740E+03  0.68829260740E+03  0.00000000000E+00 0.  1.
         -2   -1    0    0    0  501 -0.00000000000E+00 -0.00000000000E+00 -0.70634847290E+01  0.70634847290E+01  0.00000000000E+00 0. -1.
          1    1    1    2  502    0  0.12111481770E+02  0.33469820778E+02  0.41649640111E+02  0.54786945662E+02  0.00000000000E+00 0. -1.
         -1    1    1    2    0  501 -0.12111481770E+02 -0.33469820778E+02  0.63957948256E+03  0.64056914646E+03  0.00000000000E+00 0.  1.
</event>
<event>
 4    1  0.6629728E+001  0.2092355E+02  0.7546771E-02  0.1520359E+00
          2   -1    0    0  502    0  0.00000000000E+00  0.00000000000E+00  0.98599144790E+03  0.98599144790E+03  0.00000000000E+00 0. -1.
         -2   -1    0    0    0  501 -0.00000000000E+00 -0.00000000000E+00 -0.78316574687E+00  0.78316574687E+00  0.00000000000E+00 0.  1.
          1    1    1    2  502    0  0.17184110202E+02  0.11937387314E+02  0.81728568736E+03  0.81755347814E+03  0.00000000000E+00 0. -1.
         -1    1    1    2    0  501 -0.17184110202E+02 -0.11937387314E+02  0.16792259479E+03  0.16922113550E+03  0.00000000000E+00 0.  1.
</event>
<event>
 4    1  0.6629728E+001  0.2030011E+02  0.7546771E-02  0.1529496E+00
          2   -1    0    0  502    0  0.00000000000E+00  0.00000000000E+00  0.13223653452E+02  0.13223653452E+02  0.00000000000E+00 0. -1.
         -2   -1    0    0    0  501 -0.00000000000E+00 -0.00000000000E+00 -0.31336628562E+02  0.31336628562E+02  0.00000000000E+00 0.  1.
          1    1    1    2  502    0 -0.50249018117E+01 -0.19668376366E+02 -0.10712785613E+02  0.22953397193E+02  0.00000000000E+00 0. -1.
         -1    1    1    2    0  501  0.50249018117E+01  0.19668376366E+02 -0.74001894968E+01  0.21606884821E+02  0.00000000000E+00 0.  1.
</event>
<event>
 4    1  0.6629728E+001  0.2687094E+02  0.7546771E-02  0.1448909E+00
          2   -1    0    0  502    0  0.00000000000E+00  0.00000000000E+00  0.12857834183E+04  0.12857834183E+04  0.00000000000E+00 0. -1.
         -2   -1    0    0    0  501 -0.00000000000E+00 -0.00000000000E+00 -0.74354836364E+00  0.74354836364E+00  0.00000000000E+00 0.  1.
          1    1    1    2  502    0 -0.26261704171E+02 -0.56894884906E+01  0.96075897326E+03  0.96113466906E+03  0.00000000000E+00 0. -1.
         -1    1    1    2    0  501  0.26261704171E+02  0.56894884906E+01  0.32428089670E+03  0.32539229762E+03  0.00000000000E+00 0.  1.
</event>
<event>
 4    1  0.6629728E+001  0.2364192E+02  0.7546771E-02  0.1484591E+00
          2   -1    0    0  502    0  0.00000000000E+00  0.00000000000E+00  0.15111036165E+02  0.15111036165E+02  0.00000000000E+00 0. -1.
         -2   -1    0    0    0  501 -0.00000000000E+00 -0.00000000000E+00 -0.37317730825E+02  0.37317730825E+02  0.00000000000E+00 0.  1.
          1    1    1    2  502    0  0.17696182345E+02  0.15677543198E+02 -0.13564194798E+02  0.27256698458E+02  0.00000000000E+00 0. -1.
         -1    1    1    2    0  501 -0.17696182345E+02 -0.15677543198E+02 -0.86424998621E+01  0.25172068532E+02  0.00000000000E+00 0.  1.
</event>
<event>
 4    1  0.6629728E+001  0.3311370E+02  0.7546771E-02  0.1394332E+00
          2   -1    0    0  502    0  0.00000000000E+00  0.00000000000E+00  0.71810746789E+02  0.71810746789E+02  0.00000000000E+00 0.  1.
         -2   -1    0    0    0  501 -0.00000000000E+00 -0.00000000000E+00 -0.23479632638E+02  0.23479632638E+02  0.00000000000E+00 0. -1.
          1    1    1    2  502    0 -0.34547167555E+01  0.32932997959E+02  0.52339479266E+02  0.61934953882E+02  0.00000000000E+00 0.  1.
         -1    1    1    2    0  501  0.34547167555E+01 -0.32932997959E+02 -0.40083651159E+01  0.33355425546E+02  0.00000000000E+00 0. -1.
</event>
<event>
 4    1  0.6629728E+001  0.3101204E+02  0.7546771E-02  0.1411001E+00
          2   -1    0    0  502    0  0.00000000000E+00  0.00000000000E+00  0.20646674879E+02  0.20646674879E+02  0.00000000000E+00 0.  1.
         -2   -1    0    0    0  501 -0.00000000000E+00 -0.00000000000E+00 -0.46586987580E+02  0.46586987580E+02  0.00000000000E+00 0. -1.
          1    1    1    2  502    0 -0.29495896622E+02 -0.95780352049E+01 -0.13345185488E+02  0.33761526204E+02  0.00000000000E+00 0.  1.
         -1    1    1    2    0  501  0.29495896622E+02  0.95780352049E+01 -0.12595127214E+02  0.33472136255E+02  0.00000000000E+00 0. -1.
</event>
<event>
 4    1  0.6629728E+001  0.2122769E+02  0.7546771E-02  0.1516039E+00
          2   -1    0    0  502    0  0.00000000000E+00  0.00000000000E+00  0.18235725402E+04  0.18235725402E+04  0.00000000000E+00 0. -1.
         -2   -1    0    0    0  501 -0.00000000000E+00 -0.00000000000E+00 -0.25019918261E+00  0.25019918261E+00  0.00000000000E+00 0.  1.
          1    1    1    2  502    0 -0.19969033029E+01 -0.21133552176E+02  0.10130647980E+04  0.10132871753E+04  0.00000000000E+00 0. -1.
         -1    1    1    2    0  501  0.19969033029E+01  0.21133552176E+02  0.81025754301E+03  0.81053556409E+03  0.00000000000E+00 0.  1.
</event>
<event>
 4    1  0.6629728E+001  0.2189771E+02  0.7546771E-02  0.1506824E+00
          2   -1    0    0  502    0  0.00000000000E+00  0.00000000000E+00  0.95114761848E+03  0.95114761848E+03  0.00000000000E+00 0. -1.
         -2   -1    0    0    0  501 -0.00000000000E+00 -0.00000000000E+00 -0.52264869786E+00  0.52264869786E+00  0.00000000000E+00 0.  1.
          1    1    1    2  502    0 -0.10976702867E+02 -0.18947863543E+02  0.38576272252E+03  0.38638373106E+03  0.00000000000E+00 0. -1.
         -1    1    1    2    0  501  0.10976702867E+02  0.18947863543E+02  0.56486224726E+03  0.56528653612E+03  0.00000000000E+00 0.  1.
</event>
<event>
 4    1  0.6629728E+001  0.2121483E+02  0.7546771E-02  0.1516220E+00
          2   -1    0    0  502    0  0.00000000000E+00  0.00000000000E+00  0.66823682452E+01  0.66823682452E+01  0.00000000000E+00 0. -1.
         -2   -1    0    0    0  501 -0.00000000000E+00 -0.00000000000E+00 -0.94891449958E+02  0.94891449958E+02  0.00000000000E+00 0.  1.
          1    1    1    2  502    0 -0.11830466275E+02 -0.17609920255E+02 -0.71464649017E+02  0.74547067566E+02  0.00000000000E+00 0.  1.
         -1    1    1    2    0  501  0.11830466275E+02  0.17609920255E+02 -0.16744432696E+02  0.27026750637E+02  0.00000000000E+00 0. -1.
</event>
<event>
 4    1  0.6629728E+001  0.2327560E+02  0.7546771E-02  0.1489066E+00
          2   -1    0    0  502    0  0.00000000000E+00  0.00000000000E+00  0.66577938037E+03  0.66577938037E+03  0.00000000000E+00 0.  1.
         -2   -1    0    0    0  501 -0.00000000000E+00 -0.00000000000E+00 -0.81390283353E+00  0.81390283353E+00  0.00000000000E+00 0. -1.
          1    1    1    2  502    0  0.39269139848E+01 -0.22941948234E+02  0.33756674444E+03  0.33836823224E+03  0.00000000000E+00 0. -1.
         -1    1    1    2    0  501 -0.39269139848E+01  0.22941948234E+02  0.32739873310E+03  0.32822505096E+03  0.00000000000E+00 0.  1.
</event>
<event>
 4    1  0.6629728E+001  0.2036275E+02  0.7546771E-02  0.1528561E+00
          2   -1    0    0  502    0  0.00000000000E+00  0.00000000000E+00  0.11100476950E+04  0.11100476950E+04  0.00000000000E+00 0.  1.
         -2   -1    0    0    0  501 -0.00000000000E+00 -0.00000000000E+00 -0.40023071488E+00  0.40023071488E+00  0.00000000000E+00 0. -1.
          1    1    1    2  502    0 -0.15875214598E+02 -0.12752214156E+02  0.69821928640E+03  0.69851615107E+03  0.00000000000E+00 0.  1.
         -1    1    1    2    0  501  0.15875214598E+02  0.12752214156E+02  0.41142817788E+03  0.41193177464E+03  0.00000000000E+00 0. -1.
</event>
<event>
 4    1  0.6629728E+001  0.3264988E+02  0.7546771E-02  0.1397883E+00
          2   -1    0    0  502    0  0.00000000000E+00  0.00000000000E+00  0.16691423225E+04  0.16691423225E+04  0.00000000000E+00 0. -1.
         -2   -1    0    0    0  501 -0.00000000000E+00 -0.00000000000E+00 -0.76167339301E+00  0.76167339301E+00  0.00000000000E+00 0.  1.
          1    1    1    2  502    0  0.10822580016E+02  0.30804005029E+02  0.49864379163E+03  0.49971156270E+03  0.00000000000E+00 0.  1.
         -1    1    1    2    0  501 -0.10822580016E+02 -0.30804005029E+02  0.11697368574E+04  0.11701924332E+04  0.00000000000E+00 0. -1.
</event>
<event>
 4    1  0.6629728E+001  0.2949297E+02  0.7546771E-02  0.1424054E+00
          2   -1    0    0  502    0  0.00000000000E+00  0.00000000000E+00  0.80718475338E+02  0.80718475338E+02  0.00000000000E+00 0. -1.
         -2   -1    0    0    0  501 -0.00000000000E+00 -0.00000000000E+00 -0.11086054102E+02  0.11086054102E+02  0.00000000000E+00 0.  1.
          1    1    1    2  502    0 -0.21514257272E+02  0.20173543028E+02  0.42490764652E+02  0.51723304080E+02  0.00000000000E+00 0.  1.
         -1    1    1    2    0  501  0.21514257272E+02 -0.20173543028E+02  0.27141656584E+02  0.40081225360E+02  0.00000000000E+00 0. -1.
</event>
<event>
 4    1  0.6629728E+001  0.2240542E+02  0.7546771E-02  0.1500102E+00
          2   -1    0    0  502    0  0.00000000000E+00  0.00000000000E+00  0.53993317107E+03  0.53993317107E+03  0.00000000000E+00 0.  1.
         -2   -1    0    0    0  501 -0.00000000000E+00 -0.00000000000E+00 -0.30569105771E+01  0.30569105771E+01  0.00000000000E+00 0. -1.
          1    1    1    2  502    0  0.17157465505E+02 -0.14409178620E+02  0.49491332226E+03  0.49542022527E+03  0.00000000000E+00 0.  1.
         -1    1    1    2    0  501 -0.17157465505E+02  0.14409178620E+02  0.41962938230E+02  0.47569856379E+02  0.00000000000E+00 0. -1.
</event>
<event>
 4    1  0.6629728E+001  0.2158231E+02  0.7546771E-02  0.1511111E+00
          2   -1    0    0  502    0  0.00000000000E+00  0.00000000000E+00  0.42905088673E+03  0.42905088673E+03  0.00000000000E+00 0. -1.
         -2   -1    0    0    0  501 -0.00000000000E+00 -0.00000000000E+00 -0.10894824632E+01  0.10894824632E+01  0.00000000000E+00 0.  1.
          1    1    1    2  502    0 -0.65026127064E+01  0.20579412497E+02  0.22674780339E+03  0.22777261146E+03  0.00000000000E+00 0. -1.
         -1    1    1    2    0  501  0.65026127064E+01 -0.20579412497E+02  0.20121360088E+03  0.20236775773E+03  0.00000000000E+00 0.  1.
</event>
<event>
 4    1  0.6629728E+001  0.2104693E+02  0.7546771E-02  0.1518596E+00
          2   -1    0    0  502    0  0.00000000000E+00  0.00000000000E+00  0.11257070846E+01  0.11257070846E+01  0.00000000000E+00 0. -1.
         -2   -1    0    0    0  501 -0.00000000000E+00 -0.00000000000E+00 -0.45960363871E+03  0.45960363871E+03  0.00000000000E+00 0.  1.
          1    1    1    2  502    0 -0.21035554052E+02 -0.69189401397E+00 -0.14187850703E+03  0.14343111242E+03  0.00000000000E+00 0. -1.
         -1    1    1    2    0  501  0.21035554052E+02  0.69189401397E+00 -0.31659942459E+03  0.31729823337E+03  0.00000000000E+00 0.  1.
</event>
<event>
 4    1  0.6629728E+001  0.2785722E+02  0.7546771E-02  0.1439182E+00
          2   -1    0    0  502    0  0.00000000000E+00  0.00000000000E+00  0.74377875465E+03  0.74377875465E+03  0.00000000000E+00 0. -1.
         -2   -1    0    0    0  501 -0.00000000000E+00 -0.00000000000E+00 -0.10983906835E+01  0.10983906835E+01  0.00000000000E+00 0.  1.
          1    1    1    2  502    0 -0.30905414203E+01 -0.27685251991E+02  0.45470866680E+03  0.45556118830E+03  0.00000000000E+00 0. -1.
         -1    1    1    2    0  501  0.30905414203E+01  0.27685251991E+02  0.28797169717E+03  0.28931595703E+03  0.00000000000E+00 0.  1.
</event>
<event>
 4    1  0.6629728E+001  0.2553386E+02  0.7546771E-02  0.1462919E+00
          2   -1    0    0  502    0  0.00000000000E+00  0.00000000000E+00  0.18049205910E+01  0.18049205910E+01  0.00000000000E+00 0.  1.
         -2   -1    0    0    0  501 -0.00000000000E+00 -0.00000000000E+00 -0.40770077712E+03  0.40770077712E+03  0.00000000000E+00 0. -1.
          1    1    1    2  502    0 -0.21791340624E+02  0.13308481745E+02 -0.27208061857E+03  0.27327612632E+03  0.00000000000E+00 0.  1.
         -1    1    1    2    0  501  0.21791340624E+02 -0.13308481745E+02 -0.13381523796E+03  0.13622957140E+03  0.00000000000E+00 0. -1.
</event>
<event>
 4    1  0.6629728E+001  0.6536334E+02  0.7546771E-02  0.1242623E+00
          2   -1    0    0  502    0  0.00000000000E+00  0.00000000000E+00  0.17387586448E+04  0.17387586448E+04  0.00000000000E+00 0.  1.
         -2   -1    0    0    0  501 -0.00000000000E+00 -0.00000000000E+00 -0.24768218220E+01  0.24768218220E+01  0.00000000000E+00 0. -1.
          1    1    1    2  502    0 -0.55691578261E+02  0.34217160186E+02  0.94575851124E+03  0.94801451863E+03  0.00000000000E+00 0. -1.
         -1    1    1    2    0  501  0.55691578261E+02 -0.34217160186E+02  0.79052331173E+03  0.79322094799E+03  0.00000000000E+00 0.  1.
</event>
<event>
 4    1  0.6629728E+001  0.2101554E+02  0.7546771E-02  0.1519043E+00
          2   -1    0    0  502    0  0.00000000000E+00  0.00000000000E+00  0.67143039387E+01  0.67143039387E+01  0.00000000000E+00 0.  1.
         -2   -1    0    0    0  501 -0.00000000000E+00 -0.00000000000E+00 -0.65779474506E+02  0.65779474506E+02  0.00000000000E+00 0. -1.
          1    1    1    2  502    0  0.19993998518E+02  0.64724694908E+01 -0.29709711956E+02  0.36391205291E+02  0.00000000000E+00 0.  1.
         -1    1    1    2    0  501 -0.19993998518E+02 -0.64724694908E+01 -0.29355458612E+02  0.36102573154E+02  0.00000000000E+00 0. -1.
</event>
<event>
 4    1  0.6629728E+001  0.2191991E+02  0.7546771E-02  0.1506525E+00
          2   -1    0    0  502    0  0.00000000000E+00  0.00000000000E+00  0.18966462794E+03  0.18966462794E+03  0.00000000000E+00 0. -1.
         -2   -1    0    0    0  501 -0.00000000000E+00 -0.00000000000E+00 -0.25697456901E+01  0.25697456901E+01  0.00000000000E+00 0.  1.
          1    1    1    2  502    0  0.20430205955E+02  0.79428546545E+01  0.82104792903E+02  0.84980464067E+02  0.00000000000E+00 0. -1.
         -1    1    1    2    0  501 -0.20430205955E+02 -0.79428546545E+01  0.10499008935E+03  0.10725390957E+03  0.00000000000E+00 0.  1.
</event>
<event>
 4    1  0.6629728E+001  0.3511372E+02  0.7546771E-02  0.1379765E+00
          2   -1    0    0  502    0  0.00000000000E+00  0.00000000000E+00  0.34876053815E+01  0.34876053815E+01  0.00000000000E+00 0. -1.
         -2   -1    0    0    0  501 -0.00000000000E+00 -0.00000000000E+00 -0.56473512479E+03  0.56473512479E+03  0.00000000000E+00 0.  1.
          1    1    1    2  502    0  0.24789841207E+02 -0.24868398407E+02 -0.10687635204E+03  0.11249679147E+03  0.00000000000E+00 0. -1.
         -1    1    1    2    0  501 -0.24789841207E+02  0.24868398407E+02 -0.45437116737E+03  0.45572593870E+03  0.00000000000E+00 0.  1.
</event>
<event>
 4    1  0.6629728E+001  0.2471396E+02  0.7546771E-02  0.1472029E+00
          2   -1    0    0  502    0  0.00000000000E+00  0.00000000000E+00  0.26132181235E+01  0.26132181235E+01  0.00000000000E+00 0. -1.
         -2   -1    0    0    0  501 -0.00000000000E+00 -0.00000000000E+00 -0.25777097487E+03  0.25777097487E+03  0.00000000000E+00 0.  1.
          1    1    1    2  502    0 -0.69737615125E+01 -0.23709628598E+02 -0.87816712210E+02  0.91228037255E+02  0.00000000000E+00 0. -1.
         -1    1    1    2    0  501  0.69737615125E+01  0.23709628598E+02 -0.16734104454E+03  0.16915615574E+03  0.00000000000E+00 0.  1.
</event>
<event>
 4    1  0.6629728E+001  0.2217010E+02  0.7546771E-02  0.1503191E+00
          2   -1    0    0  502    0  0.00000000000E+00  0.00000000000E+00  0.12060794043E+04  0.12060794043E+04  0.00000000000E+00 0. -1.
         -2   -1    0    0    0  501 -0.00000000000E+00 -0.00000000000E+00 -0.51743988828E+00  0.51743988828E+00  0.00000000000E+00 0.  1.
          1    1    1    2  502    0  0.59031757793E+01 -0.21369739112E+02  0.32473212076E+03  0.32548803893E+03  0.00000000000E+00 0. -1.
         -1    1    1    2    0  501 -0.59031757793E+01  0.21369739112E+02  0.88082984363E+03  0.88110880523E+03  0.00000000000E+00 0.  1.
</event>
<event>
 4    1  0.6629728E+001  0.2143005E+02  0.7546771E-02  0.1513213E+00
          2   -1    0    0  502    0  0.00000000000E+00  0.00000000000E+00  0.45010533700E+02  0.45010533700E+02  0.00000000000E+00 0. -1.
         -2   -1    0    0    0  501 -0.00000000000E+00 -0.00000000000E+00 -0.53522020892E+02  0.53522020892E+02  0.00000000000E+00 0.  1.
          1    1    1    2  502    0  0.15304872316E+02 -0.15000268469E+02  0.40066556349E+02  0.45437606764E+02  0.00000000000E+00 0. -1.
         -1    1    1    2    0  501 -0.15304872316E+02  0.15000268469E+02 -0.48578043540E+02  0.53094947829E+02  0.00000000000E+00 0.  1.
</event>
<event>
 4    1  0.6629728E+001  0.2521917E+02  0.7546771E-02  0.1466366E+00
          2   -1    0    0  502    0  0.00000000000E+00  0.00000000000E+00  0.14079161369E+04  0.14079161369E+04  0.00000000000E+00 0. -1.
         -2   -1    0    0    0  501 -0.00000000000E+00 -0.00000000000E+00 -0.57085513295E+00  0.57085513295E+00  0.00000000000E+00 0.  1.
          1    1    1    2  502    0  0.24687988819E+02  0.51487545502E+01  0.38197300307E+03  0.38280462581E+03  0.00000000000E+00 0.  1.
         -1    1    1    2    0  501 -0.24687988819E+02 -0.51487545502E+01  0.10253722787E+04  0.10256823662E+04  0.00000000000E+00 0. -1.
</event>
<event>
 4    1  0.6629728E+001  0.2025599E+02  0.7546771E-02  0.1530158E+00
          2   -1    0    0  502    0  0.00000000000E+00  0.00000000000E+00  0.21110474760E+04  0.21110474760E+04  0.00000000000E+00 0. -1.
         -2   -1    0    0    0  501 -0.00000000000E+00 -0.00000000000E+00 -0.19574917360E+00  0.19574917360E+00  0.00000000000E+00 0.  1.
          1    1    1    2  502    0 -0.82611785065E+01 -0.18494813923E+02  0.96652897139E+03  0.96674120516E+03  0.00000000000E+00 0.  1.
         -1    1    1    2    0  501  0.82611785065E+01  0.18494813923E+02  0.11443227555E+04  0.11445020201E+04  0.00000000000E+00 0. -1.
</event>
<event>
 4    1  0.6629728E+001  0.8628556E+02  0.7546771E-02  0.1189962E+00
          2   -1    0    0  502    0  0.00000000000E+00  0.00000000000E+00  0.39678540327E+03  0.39678540327E+03  0.00000000000E+00 0. -1.
         -2   -1    0    0    0  501 -0.00000000000E+00 -0.00000000000E+00 -0.29683597474E+02  0.29683597474E+02  0.00000000000E+00 0.  1.
          1    1    1    2  502    0 -0.81922964550E+02 -0.27089227081E+02  0.31288310689E+03  0.32456283972E+03  0.00000000000E+00 0. -1.
         -1    1    1    2    0  501  0.81922964550E+02  0.27089227081E+02  0.54218698900E+02  0.10190616103E+03  0.00000000000E+00 0.  1.
</event>
<event>
 4    1  0.6629728E+001  0.2201136E+02  0.7546771E-02  0.1505300E+00
          2   -1    0    0  502    0  0.00000000000E+00  0.00000000000E+00  0.55077965737E+02  0.55077965737E+02  0.00000000000E+00 0. -1.
         -2   -1    0    0    0  501 -0.00000000000E+00 -0.00000000000E+00 -0.88262093948E+01  0.88262093948E+01  0.00000000000E+00 0.  1.
          1    1    1    2  502    0  0.66627500094E+01  0.20978744112E+02  0.24975910004E+02  0.33291080228E+02  0.00000000000E+00 0. -1.
         -1    1    1    2    0  501 -0.66627500094E+01 -0.20978744112E+02  0.21275846338E+02  0.30613094904E+02  0.00000000000E+00 0.  1.
</event>
<event>
 4    1  0.6629728E+001  0.5032943E+02  0.7546771E-02  0.1296750E+00
          2   -1    0    0  502    0  0.00000000000E+00  0.00000000000E+00  0.23561546627E+04  0.23561546627E+04  0.00000000000E+00 0. -1.
         -2   -1    0    0    0  501 -0.00000000000E+00 -0.00000000000E+00 -0.20239783010E+01  0.20239783010E+01  0.00000000000E+00 0.  1.
          1    1    1    2  502    0  0.49042996580E+02 -0.11306466527E+02  0.19844005846E+04  0.19850387230E+04  0.00000000000E+00 0. -1.
         -1    1    1    2    0  501 -0.49042996580E+02  0.11306466527E+02  0.36973009979E+03  0.37313991798E+03  0.00000000000E+00 0.  1.
</event>
<event>
 4    1  0.6629728E+001  0.2122615E+02  0.7546771E-02  0.1516060E+00
          2   -1    0    0  502    0  0.00000000000E+00  0.00000000000E+00  0.16126860572E+03  0.16126860572E+03  0.00000000000E+00 0. -1.
         -2   -1    0    0    0  501 -0.00000000000E+00 -0.00000000000E+00 -0.91040304441E+01  0.91040304441E+01  0.00000000000E+00 0.  1.
          1    1    1    2  502    0  0.40111238101E+01 -0.20843707072E+02  0.14700351537E+03  0.14852805381E+03  0.00000000000E+00 0. -1.
         -1    1    1    2    0  501 -0.40111238101E+01  0.20843707072E+02  0.51610599067E+01  0.21844582351E+02  0.00000000000E+00 0.  1.
</event>
<event>
 4    1  0.6629728E+001  0.4467677E+02  0.7546771E-02  0.1323064E+00
          2   -1    0    0  502    0  0.00000000000E+00  0.00000000000E+00  0.19720438219E+03  0.19720438219E+03  0.00000000000E+00 0. -1.
         -2   -1    0    0    0  501 -0.00000000000E+00 -0.00000000000E+00 -0.10136186083E+02  0.10136186083E+02  0.00000000000E+00 0.  1.
          1    1    1    2  502    0 -0.85474253382E+01  0.43851511836E+02  0.89594400766E+02  0.10011578406E+03  0.00000000000E+00 0.  1.
         -1    1    1    2    0  501  0.85474253382E+01 -0.43851511836E+02  0.97473795344E+02  0.10722478421E+03  0.00000000000E+00 0. -1.
</event>
<event>
 4    1  0.6629728E+001  0.4133091E+02  0.7546771E-02  0.1340858E+00
          2   -1    0    0  502    0  0.00000000000E+00  0.00000000000E+00  0.23953027641E+04  0.23953027641E+04  0.00000000000E+00 0.  1.
         -2   -1    0    0    0  501 -0.00000000000E+00 -0.00000000000E+00 -0.87970490647E+00  0.87970490647E+00  0.00000000000E+00 0. -1.
          1    1    1    2  502    0 -0.18291628675E-01  0.41330906361E+02  0.17185041755E+04  0.17190011185E+04  0.00000000000E+00 0.  1.
         -1    1    1    2    0  501  0.18291628675E-01 -0.41330906361E+02  0.67591888369E+03  0.67718135052E+03  0.00000000000E+00 0. -1.
</event>
<event>
 4    1  0.6629728E+001  0.2697022E+02  0.7546771E-02  0.1447907E+00
          2   -1    0    0  502    0  0.00000000000E+00  0.00000000000E+00  0.82562905629E+03  0.82562905629E+03  0.00000000000E+00 0. -1.
         -2   -1    0    0    0  501 -0.00000000000E+00 -0.00000000000E+00 -0.17022985345E+01  0.17022985345E+01  0.00000000000E+00 0.  1.
          1    1    1    2  502    0  0.24531682672E+02 -0.11206673990E+02  0.69929123397E+03  0.69981113373E+03  0.00000000000E+00 0. -1.
         -1    1    1    2    0  501 -0.24531682672E+02  0.11206673990E+02  0.12463552379E+03  0.12752022109E+03  0.00000000000E+00 0.  1.
</event>
<event>
 4    1  0.6629728E+001  0.4001915E+02  0.7546771E-02  0.1348374E+00
          2   -1    0    0  502    0  0.00000000000E+00  0.00000000000E+00  0.11611442935E+04  0.11611442935E+04  0.00000000000E+00 0. -1.
         -2   -1    0    0    0  501 -0.00000000000E+00 -0.00000000000E+00 -0.29556157804E+01  0.29556157804E+01  0.00000000000E+00 0.  1.
          1    1    1    2  502    0 -0.26668361363E+02 -0.29838412357E+02  0.15402291121E+03  0.15913701495E+03  0.00000000000E+00 0.  1.
         -1    1    1    2    0  501  0.26668361363E+02  0.29838412357E+02  0.10041657665E+04  0.10049628943E+04  0.00000000000E+00 0. -1.
</event>
<event>
 4    1  0.6629728E+001  0.2131689E+02  0.7546771E-02  0.1514788E+00
          2   -1    0    0  502    0  0.00000000000E+00  0.00000000000E+00  0.14187080675E+04  0.14187080675E+04  0.00000000000E+00 0. -1.
         -2   -1    0    0    0  501 -0.00000000000E+00 -0.00000000000E+00 -0.35674886529E+00  0.35674886529E+00  0.00000000000E+00 0.  1.
          1    1    1    2  502    0  0.34296881507E+01  0.21039181583E+02  0.93597536235E+03  0.93621807761E+03  0.00000000000E+00 0.  1.
         -1    1    1    2    0  501 -0.34296881507E+01 -0.21039181583E+02  0.48237595628E+03  0.48284673874E+03  0.00000000000E+00 0. -1.
</event>
<event>
 4    1  0.6629728E+001  0.2286577E+02  0.7546771E-02  0.1494191E+00
          2   -1    0    0  502    0  0.00000000000E+00  0.00000000000E+00  0.14694592410E+03  0.14694592410E+03  0.00000000000E+00 0.  1.
         -2   -1    0    0    0  501 -0.00000000000E+00 -0.00000000000E+00 -0.91353422062E+01  0.91353422062E+01  0.00000000000E+00 0. -1.
          1    1    1    2  502    0  0.15582293778E+02  0.16734262008E+02  0.79278180580E+01  0.24201109550E+02  0.00000000000E+00 0. -1.
         -1    1    1    2    0  501 -0.15582293778E+02 -0.16734262008E+02  0.12988276384E+03  0.13188015676E+03  0.00000000000E+00 0.  1.
</event>
<event>
 4    1  0.6629728E+001  0.2930028E+02  0.7546771E-02  0.1425776E+00
          2   -1    0    0  502    0  0.00000000000E+00  0.00000000000E+00  0.85629990198E+01  0.85629990198E+01  0.00000000000E+00 0. -1.
         -2   -1    0    0    0  501 -0.00000000000E+00 -0.00000000000E+00 -0.12071295131E+03  0.12071295131E+03  0.00000000000E+00 0.  1.
          1    1    1    2  502    0 -0.11224393473E+02  0.27065098029E+02 -0.82683040171E+02  0.87721101635E+02  0.00000000000E+00 0.  1.
         -1    1    1    2    0  501  0.11224393473E+02 -0.27065098029E+02 -0.29466912117E+02  0.41554848693E+02  0.00000000000E+00 0. -1.
</event>
<event>
 4    1  0.6629728E+001  0.2732080E+02  0.7546771E-02  0.1444412E+00
          2   -1    0    0  502    0  0.00000000000E+00  0.00000000000E+00  0.14048728358E+03  0.14048728358E+03  0.00000000000E+00 0. -1.
         -2   -1    0    0    0  501 -0.00000000000E+00 -0.00000000000E+00 -0.54556766084E+01  0.54556766084E+01  0.00000000000E+00 0.  1.
          1    1    1    2  502    0 -0.11012697281E+02  0.25002933156E+02  0.55720245412E+02  0.62057811084E+02  0.00000000000E+00 0. -1.
         -1    1    1    2    0  501  0.11012697281E+02 -0.25002933156E+02  0.79311361563E+02  0.83885149107E+02  0.00000000000E+00 0.  1.
</event>
<event>
 4    1  0.6629728E+001  0.2090848E+02  0.7546771E-02  0.1520576E+00
          2   -1    0    0  502    0  0.00000000000E+00  0.00000000000E+00  0.24385298166E+03  0.24385298166E+03  0.00000000000E+00 0. -1.
         -2   -1    0    0    0  501 -0.00000000000E+00 -0.00000000000E+00 -0.22741875683E+01  0.22741875683E+01  0.00000000000E+00 0.  1.
          1    1    1    2  502    0 -0.53952322993E+01 -0.20200393430E+02  0.17741227899E+03  0.17864008834E+03  0.00000000000E+00 0. -1.
         -1    1    1    2    0  501  0.53952322993E+01  0.20200393430E+02  0.64166515102E+02  0.67487080887E+02  0.00000000000E+00 0.  1.
</event>
<event>
 4    1  0.6629728E+001  0.2246366E+02  0.7546771E-02  0.1499345E+00
          2   -1    0    0  502    0  0.00000000000E+00  0.00000000000E+00  0.12154531552E+04  0.12154531552E+04  0.00000000000E+00 0. -1.
         -2   -1    0    0    0  501 -0.00000000000E+00 -0.00000000000E+00 -0.43939383302E+00  0.43939383302E+00  0.00000000000E+00 0.  1.
          1    1    1    2  502    0 -0.18685225240E+02 -0.12469087964E+02  0.46475286329E+03  0.46529543274E+03  0.00000000000E+00 0. -1.
         -1    1    1    2    0  501  0.18685225240E+02  0.12469087964E+02  0.75026089811E+03  0.75059711632E+03  0.00000000000E+00 0.  1.
</event>
<event>
 4    1  0.6629728E+001  0.4538912E+02  0.7546771E-02  0.1319505E+00
          2   -1    0    0  502    0  0.00000000000E+00  0.00000000000E+00  0.19145656745E+02  0.19145656745E+02  0.00000000000E+00 0. -1.
         -2   -1    0    0    0  501 -0.00000000000E+00 -0.00000000000E+00 -0.11417709253E+03  0.11417709253E+03  0.00000000000E+00 0.  1.
          1    1    1    2  502    0 -0.14111342426E+02  0.43139802552E+02 -0.63508699527E+02  0.78061049602E+02  0.00000000000E+00 0.  1.
         -1    1    1    2    0  501  0.14111342426E+02 -0.43139802552E+02 -0.31522736253E+02  0.55261699668E+02  0.00000000000E+00 0. -1.
</event>
<event>
 4    1  0.6629728E+001  0.3057763E+02  0.7546771E-02  0.1414642E+00
          2   -1    0    0  502    0  0.00000000000E+00  0.00000000000E+00  0.12679740063E+04  0.12679740063E+04  0.00000000000E+00 0.  1.
         -2   -1    0    0    0  501 -0.00000000000E+00 -0.00000000000E+00 -0.11649203239E+01  0.11649203239E+01  0.00000000000E+00 0. -1.
          1    1    1    2  502    0 -0.10957506757E+02  0.28546879582E+02  0.24897695591E+03  0.25084759489E+03  0.00000000000E+00 0. -1.
         -1    1    1    2    0  501  0.10957506757E+02 -0.28546879582E+02  0.10178321301E+04  0.10182913317E+04  0.00000000000E+00 0.  1.
</event>
<event>
 4    1  0.6629728E+001  0.2049699E+02  0.7546771E-02  0.1526569E+00
          2   -1    0    0  502    0  0.00000000000E+00  0.00000000000E+00  0.11241231405E+03  0.11241231405E+03  0.00000000000E+00 0.  1.
         -2   -1    0    0    0  501 -0.00000000000E+00 -0.00000000000E+00 -0.39041710622E+01  0.39041710622E+01  0.00000000000E+00 0. -1.
          1    1    1    2  502    0  0.19174250556E+02 -0.72439466637E+01  0.66275152138E+02  0.69372346354E+02  0.00000000000E+00 0.  1.
         -1    1    1    2    0  501 -0.19174250556E+02  0.72439466637E+01  0.42232990847E+02  0.46944138756E+02  0.00000000000E+00 0. -1.
</event>
<event>
 4    1  0.6629728E+001  0.2031860E+02  0.7546771E-02  0.1529220E+00
          2   -1    0    0  502    0  0.00000000000E+00  0.00000000000E+00  0.22837569264E+03  0.22837569264E+03  0.00000000000E+00 0. -1.
         -2   -1    0    0    0  501 -0.00000000000E+00 -0.00000000000E+00 -0.34871198683E+01  0.34871198683E+01  0.00000000000E+00 0.  1.
          1    1    1    2  502    0  0.12504691349E+02 -0.16014933124E+02  0.31991464821E+02  0.37898538364E+02  0.00000000000E+00 0.  1.
         -1    1    1    2    0  501 -0.12504691349E+02  0.16014933124E+02  0.19289710795E+03  0.19396427414E+03  0.00000000000E+00 0. -1.
</event>
<event>
 4    1  0.6629728E+001  0.3639391E+02  0.7546771E-02  0.1371020E+00
          2   -1    0    0  502    0  0.00000000000E+00  0.00000000000E+00  0.11177663454E+03  0.11177663454E+03  0.00000000000E+00 0.  1.
         -2   -1    0    0    0  501 -0.00000000000E+00 -0.00000000000E+00 -0.12024971301E+02  0.12024971301E+02  0.00000000000E+00 0. -1.
          1    1    1    2  502    0  0.36294791675E+02  0.26841250422E+01  0.57349686212E+02  0.67922771871E+02  0.00000000000E+00 0.  1.
         -1    1    1    2    0  501 -0.36294791675E+02 -0.26841250422E+01  0.42401977024E+02  0.55878833967E+02  0.00000000000E+00 0. -1.
</event>
<event>
 4    1  0.6629728E+001  0.2016433E+02  0.7546771E-02  0.1531538E+00
          2   -1    0    0  502    0  0.00000000000E+00  0.00000000000E+00  0.20943263899E+02  0.20943263899E+02  0.00000000000E+00 0.  1.
         -2   -1    0    0    0  501 -0.00000000000E+00 -0.00000000000E+00 -0.19829528006E+02  0.19829528006E+02  0.00000000000E+00 0. -1.
          1    1    1    2  502    0 -0.33663672282E+01  0.19881341248E+02  0.35066768172E+01  0.20466971941E+02  0.00000000000E+00 0.  1.
         -1    1    1    2    0  501  0.33663672282E+01 -0.19881341248E+02 -0.23929409242E+01  0.20305819964E+02  0.00000000000E+00 0. -1.
</event>
<event>
 4    1  0.6629728E+001  0.2058761E+02  0.7546771E-02  0.1525235E+00
          2   -1    0    0  502    0  0.00000000000E+00  0.00000000000E+00  0.64364174613E+03  0.64364174613E+03  0.00000000000E+00 0. -1.
         -2   -1    0    0    0  501 -0.00000000000E+00 -0.00000000000E+00 -0.67991194962E+00  0.67991194962E+00  0.00000000000E+00 0.  1.
          1    1    1    2  502    0 -0.20364944912E+02 -0.30197226051E+01  0.37862764918E+03  0.37918695446E+03  0.00000000000E+00 0. -1.
         -1    1    1    2    0  501  0.20364944912E+02  0.30197226051E+01  0.26433418500E+03  0.26513470363E+03  0.00000000000E+00 0.  1.
</event>
<event>
 4    1  0.6629728E+001  0.3423873E+02  0.7546771E-02  0.1385996E+00
          2   -1    0    0  502    0  0.00000000000E+00  0.00000000000E+00  0.15832580862E+04  0.15832580862E+04  0.00000000000E+00 0. -1.
         -2   -1    0    0    0  501 -0.00000000000E+00 -0.00000000000E+00 -0.15911396424E+01  0.15911396424E+01  0.00000000000E+00 0.  1.
          1    1    1    2  502    0  0.15599684912E+02  0.30478526277E+02  0.21141190732E+03  0.21416648965E+03  0.00000000000E+00 0.  1.
         -1    1    1    2    0  501 -0.15599684912E+02 -0.30478526277E+02  0.13702550393E+04  0.13706827362E+04  0.00000000000E+00 0. -1.
</event>
<event>
 4    1  0.6629728E+001  0.2526501E+02  0.7546771E-02  0.1465860E+00
          2   -1    0    0  502    0  0.00000000000E+00  0.00000000000E+00  0.12755650088E+01  0.12755650088E+01  0.00000000000E+00 0. -1.
         -2   -1    0    0    0  501 -0.00000000000E+00 -0.00000000000E+00 -0.59134183371E+03  0.59134183371E+03  0.00000000000E+00 0.  1.
          1    1    1    2  502    0  0.24128540055E+02  0.74922716955E+01 -0.41121940569E+03  0.41199480603E+03  0.00000000000E+00 0.  1.
         -1    1    1    2    0  501 -0.24128540055E+02 -0.74922716955E+01 -0.17884686301E+03  0.18062259268E+03  0.00000000000E+00 0. -1.
</event>
<event>
 4    1  0.6629728E+001  0.4946736E+02  0.7546771E-02  0.1300498E+00
          2   -1    0    0  502    0  0.00000000000E+00  0.00000000000E+00  0.45350545915E+01  0.45350545915E+01  0.00000000000E+00 0. -1.
         -2   -1    0    0    0  501 -0.00000000000E+00 -0.00000000000E+00 -0.57949197684E+03  0.57949197684E+03  0.00000000000E+00 0.  1.
          1    1    1    2  502    0 -0.48193747160E+02  0.11152688372E+02 -0.21084174325E+03  0.21656698830E+03  0.00000000000E+00 0. -1.
         -1    1    1    2    0  501  0.48193747160E+02 -0.11152688372E+02 -0.36411517899E+03  0.36746004313E+03  0.00000000000E+00 0.  1.
</event>
<event>
 4    1  0.6629728E+001  0.6656589E+02  0.7546771E-02  0.1239020E+00
          2   -1    0    0  502    0  0.00000000000E+00  0.00000000000E+00  0.10249005795E+02  0.10249005795E+02  0.00000000000E+00 0. -1.
         -2   -1    0    0    0  501 -0.00000000000E+00 -0.00000000000E+00 -0.44016661177E+03  0.44016661177E+03  0.00000000000E+00 0.  1.
          1    1    1    2  502    0  0.15529361822E+02  0.64729098666E+02 -0.24499633817E+03  0.25387836263E+03  0.00000000000E+00 0. -1.
         -1    1    1    2    0  501 -0.15529361822E+02 -0.64729098666E+02 -0.18492126780E+03  0.19653725494E+03  0.00000000000E+00 0.  1.
</event>
<event>
 4    1  0.6629728E+001  0.2686888E+02  0.7546771E-02  0.1448930E+00
          2   -1    0    0  502    0  0.00000000000E+00  0.00000000000E+00  0.66631388622E+03  0.66631388622E+03  0.00000000000E+00 0. -1.
         -2   -1    0    0    0  501 -0.00000000000E+00 -0.00000000000E+00 -0.11204992895E+01  0.11204992895E+01  0.00000000000E+00 0.  1.
          1    1    1    2  502    0  0.53278428541E+01  0.26335356344E+02  0.39325558275E+03  0.39417241186E+03  0.00000000000E+00 0.  1.
         -1    1    1    2    0  501 -0.53278428541E+01 -0.26335356344E+02  0.27193780417E+03  0.27326197365E+03  0.00000000000E+00 0. -1.
</event>
<event>
 4    1  0.6629728E+001  0.3445477E+02  0.7546771E-02  0.1384437E+00
          2   -1    0    0  502    0  0.00000000000E+00  0.00000000000E+00  0.40193793097E+02  0.40193793097E+02  0.00000000000E+00 0. -1.
         -2   -1    0    0    0  501 -0.00000000000E+00 -0.00000000000E+00 -0.34199156431E+02  0.34199156431E+02  0.00000000000E+00 0.  1.
          1    1    1    2  502    0  0.34452238387E+02  0.41759988542E+00 -0.10739052947E+02  0.36089588218E+02  0.00000000000E+00 0.  1.
         -1    1    1    2    0  501 -0.34452238387E+02 -0.41759988542E+00  0.16733689613E+02  0.38303361310E+02  0.00000000000E+00 0. -1.
</event>
<event>
 4    1  0.6629728E+001  0.2045828E+02  0.7546771E-02  0.1527142E+00
          2   -1    0    0  502    0  0.00000000000E+00  0.00000000000E+00  0.65819277025E+03  0.65819277025E+03  0.00000000000E+00 0. -1.
         -2   -1    0    0    0  501 -0.00000000000E+00 -0.00000000000E+00 -0.64666714167E+00  0.64666714167E+00  0.00000000000E+00 0.  1.
          1    1    1    2  502    0 -0.64813948920E+01  0.19404447199E+02  0.37129113913E+03  0.37185434117E+03  0.00000000000E+00 0. -1.
         -1    1    1    2    0  501  0.64813948920E+01 -0.19404447199E+02  0.28625496398E+03  0.28698509623E+03  0.00000000000E+00 0.  1.
</event>
<event>
 4    1  0.6629728E+001  0.2729645E+02  0.7546771E-02  0.1444653E+00
          2   -1    0    0  502    0  0.00000000000E+00  0.00000000000E+00  0.31228366450E+03  0.31228366450E+03  0.00000000000E+00 0. -1.
         -2   -1    0    0    0  501 -0.00000000000E+00 -0.00000000000E+00 -0.24474695697E+01  0.24474695697E+01  0.00000000000E+00 0.  1.
          1    1    1    2  502    0 -0.24932671553E+02  0.11111166769E+02  0.12997073699E+03  0.13280620698E+03  0.00000000000E+00 0. -1.
         -1    1    1    2    0  501  0.24932671553E+02 -0.11111166769E+02  0.17986545794E+03  0.18192492709E+03  0.00000000000E+00 0.  1.
</event>
<event>
 4    1  0.6629728E+001  0.3370172E+02  0.7546771E-02  0.1389928E+00
          2   -1    0    0  502    0  0.00000000000E+00  0.00000000000E+00  0.14248199989E+04  0.14248199989E+04  0.00000000000E+00 0.  1.
         -2   -1    0    0    0  501 -0.00000000000E+00 -0.00000000000E+00 -0.16199518630E+01  0.16199518630E+01  0.00000000000E+00 0. -1.
          1    1    1    2  502    0 -0.23024695887E+01  0.33622975251E+02  0.12198976934E+04  0.12203631378E+04  0.00000000000E+00 0.  1.
         -1    1    1    2    0  501  0.23024695887E+01 -0.33622975251E+02  0.20330235363E+03  0.20607681291E+03  0.00000000000E+00 0. -1.
</event>
<event>
 4    1  0.6629728E+001  0.2196925E+02  0.7546771E-02  0.1505863E+00
          2   -1    0    0  502    0  0.00000000000E+00  0.00000000000E+00  0.13046535386E+04  0.13046535386E+04  0.00000000000E+00 0. -1.
         -2   -1    0    0    0  501 -0.00000000000E+00 -0.00000000000E+00 -0.65934733819E+00  0.65934733819E+00  0.00000000000E+00 0.  1.
          1    1    1    2  502    0 -0.17394238144E+02  0.13419704609E+02  0.21960305064E+03  0.22069922484E+03  0.00000000000E+00 0.  1.
         -1    1    1    2    0  501  0.17394238144E+02 -0.13419704609E+02  0.10843911406E+04  0.10846136611E+04  0.00000000000E+00 0. -1.
</event>
<event>
 4    1  0.6629728E+001  0.2100815E+02  0.7546771E-02  0.1519148E+00
          2   -1    0    0  502    0  0.00000000000E+00  0.00000000000E+00  0.14419171814E+04  0.14419171814E+04  0.00000000000E+00 0.  1.
         -2   -1    0    0    0  501 -0.00000000000E+00 -0.00000000000E+00 -0.37249273608E+00  0.37249273608E+00  0.00000000000E+00 0. -1.
          1    1    1    2  502    0  0.19990744281E+02  0.64585161237E+01  0.10252732957E+04  0.10254885046E+04  0.00000000000E+00 0.  1.
         -1    1    1    2    0  501 -0.19990744281E+02 -0.64585161237E+01  0.41627139300E+03  0.41680116952E+03  0.00000000000E+00 0. -1.
</event>
<event>
 4    1  0.6629728E+001  0.2040339E+02  0.7546771E-02  0.1527956E+00
          2   -1    0    0  502    0  0.00000000000E+00  0.00000000000E+00  0.34557986863E+03  0.34557986863E+03  0.00000000000E+00 0.  1.
         -2   -1    0    0    0  501 -0.00000000000E+00 -0.00000000000E+00 -0.12261176982E+01  0.12261176982E+01  0.00000000000E+00 0. -1.
          1    1    1    2  502    0  0.36595965662E+01 -0.20072509521E+02  0.14922516703E+03  0.15061357429E+03  0.00000000000E+00 0. -1.
         -1    1    1    2    0  501 -0.36595965662E+01  0.20072509521E+02  0.19512858390E+03  0.19619241203E+03  0.00000000000E+00 0.  1.
</event>
<event>
 4    1  0.6629728E+001  0.3920648E+02  0.7546771E-02  0.1353200E+00
          2   -1    0    0  502    0  0.00000000000E+00  0.00000000000E+00  0.51867873972E+02  0.51867873972E+02  0.00000000000E+00 0. -1.
         -2   -1    0    0    0  501 -0.00000000000E+00 -0.00000000000E+00 -0.30830907649E+02  0.30830907649E+02  0.00000000000E+00 0.  1.
          1    1    1    2  502    0  0.85666457994E+01  0.38259126450E+02  0.18659368446E+02  0.43420274156E+02  0.00000000000E+00 0. -1.
         -1    1    1    2    0  501 -0.85666457994E+01 -0.38259126450E+02  0.23775978771E+01  0.39278507465E+02  0.00000000000E+00 0.  1.
</event>
<event>
 4    1  0.6629728E+001  0.2418971E+02  0.7546771E-02  0.1478076E+00
          2   -1    0    0  502    0  0.00000000000E+00  0.00000000000E+00  0.23782018435E+04  0.23782018435E+04  0.00000000000E+00 0. -1.
         -2   -1    0    0    0  501 -0.00000000000E+00 -0.00000000000E+00 -0.29493969053E+00  0.29493969053E+00  0.00000000000E+00 0.  1.
          1    1    1    2  502    0 -0.23590147930E+02  0.53522900787E+01  0.16731722430E+04  0.16733470940E+04  0.00000000000E+00 0. -1.
         -1    1    1    2    0  501  0.23590147930E+02 -0.53522900787E+01  0.70473466079E+03  0.70514968922E+03  0.00000000000E+00 0.  1.
</event>
<event>
 4    1  0.6629728E+001  0.2430518E+02  0.7546771E-02  0.1476728E+00
          2   -1    0    0  502    0  0.00000000000E+00  0.00000000000E+00  0.10235185419E+02  0.10235185419E+02  0.00000000000E+00 0.  1.
         -2   -1    0    0    0  501 -0.00000000000E+00 -0.00000000000E+00 -0.57919731661E+02  0.57919731661E+02  0.00000000000E+00 0. -1.
          1    1    1    2  502    0 -0.84332379671E+01  0.22795228016E+02 -0.25859489794E+02  0.35488802957E+02  0.00000000000E+00 0.  1.
         -1    1    1    2    0  501  0.84332379671E+01 -0.22795228016E+02 -0.21825056448E+02  0.32666114123E+02  0.00000000000E+00 0. -1.
</event>
<event>
 4    1  0.6629728E+001  0.2216732E+02  0.7546771E-02  0.1503227E+00
          2   -1    0    0  502    0  0.00000000000E+00  0.00000000000E+00  0.44903666066E+03  0.44903666066E+03  0.00000000000E+00 0.  1.
         -2   -1    0    0    0  501 -0.00000000000E+00 -0.00000000000E+00 -0.11004314016E+01  0.11004314016E+01  0.00000000000E+00 0. -1.
          1    1    1    2  502    0  0.11732098668E+02  0.18808188946E+02  0.20719633951E+03  0.20837877343E+03  0.00000000000E+00 0.  1.
         -1    1    1    2    0  501 -0.11732098668E+02 -0.18808188946E+02  0.24073988975E+03  0.24175831863E+03  0.00000000000E+00 0. -1.
</event>
<event>
 4    1  0.6629728E+001  0.2065421E+02  0.7546771E-02  0.1524260E+00
          2   -1    0    0  502    0  0.00000000000E+00  0.00000000000E+00  0.23976865913E+03  0.23976865913E+03  0.00000000000E+00 0.  1.
         -2   -1    0    0    0  501 -0.00000000000E+00 -0.00000000000E+00 -0.18187433061E+01  0.18187433061E+01  0.00000000000E+00 0. -1.
          1    1    1    2  502    0 -0.20400183066E+02  0.32293948309E+01  0.13678617750E+03  0.13833674427E+03  0.00000000000E+00 0.  1.
         -1    1    1    2    0  501  0.20400183066E+02 -0.32293948309E+01  0.10116373832E+03  0.10325065816E+03  0.00000000000E+00 0. -1.
</event>
<event>
 4    1  0.6629728E+001  0.2081577E+02  0.7546771E-02  0.1521911E+00
          2   -1    0    0  502    0  0.00000000000E+00  0.00000000000E+00  0.47179375986E+01  0.47179375986E+01  0.00000000000E+00 0. -1.
         -2   -1    0    0    0  501 -0.00000000000E+00 -0.00000000000E+00 -0.99273534235E+02  0.99273534235E+02  0.00000000000E+00 0.  1.
          1    1    1    2  502    0  0.57403417320E+01  0.20008621193E+02 -0.33049855177E+02  0.39058793792E+02  0.00000000000E+00 0. -1.
         -1    1    1    2    0  501 -0.57403417320E+01 -0.20008621193E+02 -0.61505741459E+02  0.64932678042E+02  0.00000000000E+00 0.  1.
</event>
<event>
 4    1  0.6629728E+001  0.2149809E+02  0.7546771E-02  0.1512271E+00
          2   -1    0    0  502    0  0.00000000000E+00  0.00000000000E+00  0.37213686111E+01  0.37213686111E+01  0.00000000000E+00 0. -1.
         -2   -1    0    0    0  501 -0.00000000000E+00 -0.00000000000E+00 -0.17780955874E+03  0.17780955874E+03  0.00000000000E+00 0.  1.
          1    1    1    2  502    0  0.21215455518E+02 -0.34745300937E+01 -0.13688576308E+03  0.13856363175E+03  0.00000000000E+00 0.  1.
         -1    1    1    2    0  501 -0.21215455518E+02  0.34745300937E+01 -0.37202427050E+02  0.42967295594E+02  0.00000000000E+00 0. -1.
</event>
<event>
 4    1  0.6629728E+001  0.4028836E+02  0.7546771E-02  0.1346804E+00
          2   -1    0    0  502    0  0.00000000000E+00  0.00000000000E+00  0.15777908027E+03  0.15777908027E+03  0.00000000000E+00 0.  1.
         -2   -1    0    0    0  501 -0.00000000000E+00 -0.00000000000E+00 -0.10596577444E+02  0.10596577444E+02  0.00000000000E+00 0. -1.
          1    1    1    2  502    0  0.22600015011E+02  0.33352529488E+02  0.59213138861E+02  0.71619464641E+02  0.00000000000E+00 0.  1.
         -1    1    1    2    0  501 -0.22600015011E+02 -0.33352529488E+02  0.87969363962E+02  0.96756193071E+02  0.00000000000E+00 0. -1.
</event>
<event>
 4    1  0.6629728E+001  0.2026391E+02  0.7546771E-02  0.1530039E+00
          2   -1    0    0  502    0  0.00000000000E+00  0.00000000000E+00  0.22896257750E+03  0.22896257750E+03  0.00000000000E+00 0. -1.
         -2   -1    0    0    0  501 -0.00000000000E+00 -0.00000000000E+00 -0.39045634506E+01  0.39045634506E+01  0.00000000000E+00 0.  1.
          1    1    1    2  502    0 -0.16339015908E+02 -0.11985937774E+02  0.19814419402E+03  0.19917767889E+03  0.00000000000E+00 0. -1.
         -1    1    1    2    0  501  0.16339015908E+02  0.11985937774E+02  0.26913820026E+02  0.33689462055E+02  0.00000000000E+00 0.  1.
</event>
<event>
 4    1  0.6629728E+001  0.2957641E+02  0.7546771E-02  0.1423314E+00
          2   -1    0    0  502    0  0.00000000000E+00  0.00000000000E+00  0.15432489904E+02  0.15432489904E+02  0.00000000000E+00 0. -1.
         -2   -1    0    0    0  501 -0.00000000000E+00 -0.00000000000E+00 -0.12656248935E+03  0.12656248935E+03  0.00000000000E+00 0.  1.
          1    1    1    2  502    0 -0.18513043729E+02  0.23065799498E+02 -0.28098899926E+01  0.29709583915E+02  0.00000000000E+00 0. -1.
         -1    1    1    2    0  501  0.18513043729E+02 -0.23065799498E+02 -0.10832010945E+03  0.11228539534E+03  0.00000000000E+00 0.  1.
</event>
<event>
 4    1  0.6629728E+001  0.2124361E+02  0.7546771E-02  0.1515815E+00
          2   -1    0    0  502    0  0.00000000000E+00  0.00000000000E+00  0.74848719810E+03  0.74848719810E+03  0.00000000000E+00 0. -1.
         -2   -1    0    0    0  501 -0.00000000000E+00 -0.00000000000E+00 -0.75385358577E+00  0.75385358577E+00  0.00000000000E+00 0.  1.
          1    1    1    2  502    0 -0.12684837004E+02  0.17040710932E+02  0.54148287160E+03  0.54189942900E+03  0.00000000000E+00 0.  1.
         -1    1    1    2    0  501  0.12684837004E+02 -0.17040710932E+02  0.20625047291E+03  0.20734162268E+03  0.00000000000E+00 0. -1.
</event>
<event>
 4    1  0.6629728E+001  0.2710293E+02  0.7546771E-02  0.1446577E+00
          2   -1    0    0  502    0  0.00000000000E+00  0.00000000000E+00  0.29488873195E+02  0.29488873195E+02  0.00000000000E+00 0.  1.
         -2   -1    0    0    0  501 -0.00000000000E+00 -0.00000000000E+00 -0.25651492662E+02  0.25651492662E+02  0.00000000000E+00 0. -1.
          1    1    1    2  502    0  0.79139529272E+01  0.25921768637E+02  0.66060439992E+01  0.27896389686E+02  0.00000000000E+00 0. -1.
         -1    1    1    2    0  501 -0.79139529272E+01 -0.25921768637E+02 -0.27686634655E+01  0.27243976171E+02  0.00000000000E+00 0.  1.
</event>
<event>
 4    1  0.6629728E+001  0.2001470E+02  0.7546771E-02  0.1533811E+00
          2   -1    0    0  502    0  0.00000000000E+00  0.00000000000E+00  0.15345370524E+04  0.15345370524E+04  0.00000000000E+00 0. -1.
         -2   -1    0    0    0  501 -0.00000000000E+00 -0.00000000000E+00 -0.26482497359E+00  0.26482497359E+00  0.00000000000E+00 0.  1.
          1    1    1    2  502    0 -0.15133628740E+02 -0.13098151014E+02  0.85877883106E+03  0.85901203074E+03  0.00000000000E+00 0.  1.
         -1    1    1    2    0  501  0.15133628740E+02  0.13098151014E+02  0.67549339641E+03  0.67578984667E+03  0.00000000000E+00 0. -1.
</event>
<event>
 4    1  0.6629728E+001  0.5971970E+02  0.7546771E-02  0.1260788E+00
          2   -1    0    0  502    0  0.00000000000E+00  0.00000000000E+00  0.32072405370E+02  0.32072405370E+02  0.00000000000E+00 0. -1.
         -2   -1    0    0    0  501 -0.00000000000E+00 -0.00000000000E+00 -0.12478746909E+03  0.12478746909E+03  0.00000000000E+00 0.  1.
          1    1    1    2  502    0  0.33111641728E+02  0.49699719470E+02 -0.20477195231E+02  0.63132863533E+02  0.00000000000E+00 0. -1.
         -1    1    1    2    0  501 -0.33111641728E+02 -0.49699719470E+02 -0.72237868488E+02  0.93727010925E+02  0.00000000000E+00 0.  1.
</event>
<event>
 4    1  0.6629728E+001  0.2003917E+02  0.7546771E-02  0.1533438E+00
          2   -1    0    0  502    0  0.00000000000E+00  0.00000000000E+00  0.98995571342E+03  0.98995571342E+03  0.00000000000E+00 0. -1.
         -2   -1    0    0    0  501 -0.00000000000E+00 -0.00000000000E+00 -0.92986563113E+00  0.92986563113E+00  0.00000000000E+00 0.  1.
          1    1    1    2  502    0  0.19376743538E+02  0.51098248196E+01  0.86651155468E+03  0.86674323931E+03  0.00000000000E+00 0. -1.
         -1    1    1    2    0  501 -0.19376743538E+02 -0.51098248196E+01  0.12251429310E+03  0.12414233973E+03  0.00000000000E+00 0.  1.
</event>
<event>
 4    1  0.6629728E+001  0.2143471E+02  0.7546771E-02  0.1513148E+00
          2   -1    0    0  502    0  0.00000000000E+00  0.00000000000E+00  0.19003766271E+01  0.19003766271E+01  0.00000000000E+00 0. -1.
         -2   -1    0    0    0  501 -0.00000000000E+00 -0.00000000000E+00 -0.24193548442E+03  0.24193548442E+03  0.00000000000E+00 0.  1.
          1    1    1    2  502    0  0.45956879927E+01 -0.20936244819E+02 -0.12324323248E+03  0.12509332935E+03  0.00000000000E+00 0. -1.
         -1    1    1    2    0  501 -0.45956879927E+01  0.20936244819E+02 -0.11679187531E+03  0.11874253170E+03  0.00000000000E+00 0.  1.
</event>
<event>
 4    1  0.6629728E+001  0.2948555E+02  0.7546771E-02  0.1424120E+00
          2   -1    0    0  502    0  0.00000000000E+00  0.00000000000E+00  0.38890538014E+03  0.38890538014E+03  0.00000000000E+00 0.  1.
         -2   -1    0    0    0  501 -0.00000000000E+00 -0.00000000000E+00 -0.22424143797E+01  0.22424143797E+01  0.00000000000E+00 0. -1.
          1    1    1    2  502    0  0.62940681526E+01 -0.28805940501E+02  0.20419243613E+03  0.20631032081E+03  0.00000000000E+00 0.  1.
         -1    1    1    2    0  501 -0.62940681526E+01  0.28805940501E+02  0.18247052963E+03  0.18483747371E+03  0.00000000000E+00 0. -1.
</event>
<event>
 4    1  0.6629728E+001  0.2138028E+02  0.7546771E-02  0.1513904E+00
          2   -1    0    0  502    0  0.00000000000E+00  0.00000000000E+00  0.13793958694E+02  0.13793958694E+02  0.00000000000E+00 0. -1.
         -2   -1    0    0    0  501 -0.00000000000E+00 -0.00000000000E+00 -0.40030794077E+02  0.40030794077E+02  0.00000000000E+00 0.  1.
          1    1    1    2  502    0 -0.17612597549E+02  0.12120757898E+02 -0.19517184019E+01  0.21469177189E+02  0.00000000000E+00 0.  1.
         -1    1    1    2    0  501  0.17612597549E+02 -0.12120757898E+02 -0.24285116982E+02  0.32355575582E+02  0.00000000000E+00 0. -1.
</event>
<event>
 4    1  0.6629728E+001  0.2269643E+02  0.7546771E-02  0.1496346E+00
          2   -1    0    0  502    0  0.00000000000E+00  0.00000000000E+00  0.11742057768E+04  0.11742057768E+04  0.00000000000E+00 0. -1.
         -2   -1    0    0    0  501 -0.00000000000E+00 -0.00000000000E+00 -0.98356209018E+00  0.98356209018E+00  0.00000000000E+00 0.  1.
          1    1    1    2  502    0 -0.22294291853E+02 -0.42535233345E+01  0.10239508558E+04  0.10242023643E+04  0.00000000000E+00 0. -1.
         -1    1    1    2    0  501  0.22294291853E+02  0.42535233345E+01  0.14927135886E+03  0.15098697456E+03  0.00000000000E+00 0.  1.
</event>
<event>
 4    1  0.6629728E+001  0.3076755E+02  0.7546771E-02  0.1413041E+00
          2   -1    0    0  502    0  0.00000000000E+00  0.00000000000E+00  0.91768583826E+03  0.91768583826E+03  0.00000000000E+00 0.  1.
         -2   -1    0    0    0  501 -0.00000000000E+00 -0.00000000000E+00 -0.11013367699E+01  0.11013367699E+01  0.00000000000E+00 0. -1.
          1    1    1    2  502    0  0.12408219144E+02  0.28154537214E+02  0.34265411154E+03  0.34403267581E+03  0.00000000000E+00 0. -1.
         -1    1    1    2    0  501 -0.12408219144E+02 -0.28154537214E+02  0.57393038994E+03  0.57475449922E+03  0.00000000000E+00 0.  1.
</event>
<event>
 4    1  0.6629728E+001  0.2775248E+02  0.7546771E-02  0.1440192E+00
          2   -1    0    0  502    0  0.00000000000E+00  0.00000000000E+00  0.28514522244E+01  0.28514522244E+01  0.00000000000E+00 0.  1.
         -2   -1    0    0    0  501 -0.00000000000E+00 -0.00000000000E+00 -0.47169067622E+03  0.47169067622E+03  0.00000000000E+00 0. -1.
          1    1    1    2  502    0  0.37526171590E+01  0.27497596935E+02 -0.79308551328E+02  0.84024081587E+02  0.00000000000E+00 0.  1.
         -1    1    1    2    0  501 -0.37526171590E+01 -0.27497596935E+02 -0.38953067267E+03  0.39051804686E+03  0.00000000000E+00 0. -1.
</event>
<event>
 4    1  0.6629728E+001  0.2641850E+02  0.7546771E-02  0.1453538E+00
          2   -1    0    0  502    0  0.00000000000E+00  0.00000000000E+00  0.40118840094E+03  0.40118840094E+03  0.00000000000E+00 0. -1.
         -2   -1    0    0    0  501 -0.00000000000E+00 -0.00000000000E+00 -0.21778433856E+01  0.21778433856E+01  0.00000000000E+00 0.  1.
          1    1    1    2  502    0  0.26262981985E+02  0.28623725645E+01  0.28996948824E+03  0.29117046812E+03  0.00000000000E+00 0.  1.
         -1    1    1    2    0  501 -0.26262981985E+02 -0.28623725645E+01  0.10904106932E+03  0.11219577620E+03  0.00000000000E+00 0. -1.
</event>
<event>
 4    1  0.6629728E+001  0.4741089E+02  0.7546771E-02  0.1309806E+00
          2   -1    0    0  502    0  0.00000000000E+00  0.00000000000E+00  0.80060284483E+03  0.80060284483E+03  0.00000000000E+00 0. -1.
         -2   -1    0    0    0  501 -0.00000000000E+00 -0.00000000000E+00 -0.28673270843E+01  0.28673270843E+01  0.00000000000E+00 0.  1.
          1    1    1    2  502    0 -0.37349606519E+02 -0.29202733525E+02  0.34089886321E+03  0.34417993505E+03  0.00000000000E+00 0. -1.
         -1    1    1    2    0  501  0.37349606519E+02  0.29202733525E+02  0.45683665453E+03  0.45929023686E+03  0.00000000000E+00 0.  1.
</event>
<event>
 4    1  0.6629728E+001  0.3968695E+02  0.7546771E-02  0.1350330E+00
          2   -1    0    0  502    0  0.00000000000E+00  0.00000000000E+00  0.11424995163E+04  0.11424995163E+04  0.00000000000E+00 0. -1.
         -2   -1    0    0    0  501 -0.00000000000E+00 -0.00000000000E+00 -0.15950245751E+01  0.15950245751E+01  0.00000000000E+00 0.  1.
          1    1    1    2  502    0  0.21096050187E+02  0.33615625672E+02  0.78116857271E+03  0.78217606241E+03  0.00000000000E+00 0. -1.
         -1    1    1    2    0  501 -0.21096050187E+02 -0.33615625672E+02  0.35973591906E+03  0.36191847851E+03  0.00000000000E+00 0.  1.
</event>
<event>
 4    1  0.6629728E+001  0.7021052E+02  0.7546771E-02  0.1228602E+00
          2   -1    0    0  502    0  0.00000000000E+00  0.00000000000E+00  0.18946105228E+03  0.18946105228E+03  0.00000000000E+00 0.  1.
         -2   -1    0    0    0  501 -0.00000000000E+00 -0.00000000000E+00 -0.42107310993E+02  0.42107310993E+02  0.00000000000E+00 0. -1.
          1    1    1    2  502    0  0.53872649755E+02 -0.45025046457E+02  0.14524681570E+03  0.16132623677E+03  0.00000000000E+00 0.  1.
         -1    1    1    2    0  501 -0.53872649755E+02  0.45025046457E+02  0.21069255875E+01  0.70242126502E+02  0.00000000000E+00 0. -1.
</event>
<event>
 4    1  0.6629728E+001  0.2601509E+02  0.7546771E-02  0.1457761E+00
          2   -1    0    0  502    0  0.00000000000E+00  0.00000000000E+00  0.98922510725E+03  0.98922510725E+03  0.00000000000E+00 0.  1.
         -2   -1    0    0    0  501 -0.00000000000E+00 -0.00000000000E+00 -0.11639646811E+01  0.11639646811E+01  0.00000000000E+00 0. -1.
          1    1    1    2  502    0  0.24251553906E+02 -0.94152555441E+01  0.81196657695E+03  0.81238322668E+03  0.00000000000E+00 0.  1.
         -1    1    1    2    0  501 -0.24251553906E+02  0.94152555441E+01  0.17609456562E+03  0.17800584525E+03  0.00000000000E+00 0. -1.
</event>
<event>
 4    1  0.6629728E+001  0.2373852E+02  0.7546771E-02  0.1483427E+00
          2   -1    0    0  502    0  0.00000000000E+00  0.00000000000E+00  0.47162369442E+03  0.47162369442E+03  0.00000000000E+00 0.  1.
         -2   -1    0    0    0  501 -0.00000000000E+00 -0.00000000000E+00 -0.12563778939E+01  0.12563778939E+01  0.00000000000E+00 0. -1.
          1    1    1    2  502    0 -0.81410238096E+01 -0.22298900145E+02  0.28750929478E+03  0.28848762851E+03  0.00000000000E+00 0.  1.
         -1    1    1    2    0  501  0.81410238096E+01  0.22298900145E+02  0.18285802174E+03  0.18439244380E+03  0.00000000000E+00 0. -1.
</event>
<event>
 4    1  0.6629728E+001  0.2079897E+02  0.7546771E-02  0.1522154E+00
          2   -1    0    0  502    0  0.00000000000E+00  0.00000000000E+00  0.23415515289E+00  0.23415515289E+00  0.00000000000E+00 0. -1.
         -2   -1    0    0    0  501 -0.00000000000E+00 -0.00000000000E+00 -0.18490890055E+04  0.18490890055E+04  0.00000000000E+00 0.  1.
          1    1    1    2  502    0  0.10163183002E+02 -0.18146818870E+02 -0.89716440582E+03  0.89740546487E+03  0.00000000000E+00 0.  1.
         -1    1    1    2    0  501 -0.10163183002E+02  0.18146818870E+02 -0.95169044452E+03  0.95191769577E+03  0.00000000000E+00 0. -1.
</event>
<event>
 4    1  0.6629728E+001  0.2060016E+02  0.7546771E-02  0.1525051E+00
          2   -1    0    0  502    0  0.00000000000E+00  0.00000000000E+00  0.12725355169E+03  0.12725355169E+03  0.00000000000E+00 0.  1.
         -2   -1    0    0    0  501 -0.00000000000E+00 -0.00000000000E+00 -0.35478946988E+01  0.35478946988E+01  0.00000000000E+00 0. -1.
          1    1    1    2  502    0 -0.84721447450E+01  0.18777365749E+02  0.45825134376E+02  0.50242508314E+02  0.00000000000E+00 0. -1.
         -1    1    1    2    0  501  0.84721447450E+01 -0.18777365749E+02  0.77880522614E+02  0.80558938075E+02  0.00000000000E+00 0.  1.
</event>
<event>
 4    1  0.6629728E+001  0.3579235E+02  0.7546771E-02  0.1375077E+00
          2   -1    0    0  502    0  0.00000000000E+00  0.00000000000E+00  0.76748240860E+01  0.76748240860E+01  0.00000000000E+00 0.  1.
         -2   -1    0    0    0  501 -0.00000000000E+00 -0.00000000000E+00 -0.57122457149E+03  0.57122457149E+03  0.00000000000E+00 0. -1.
          1    1    1    2  502    0 -0.74350817848E+01 -0.35011593112E+02 -0.52528849233E+03  0.52650649784E+03  0.00000000000E+00 0. -1.
         -1    1    1    2    0  501  0.74350817848E+01  0.35011593112E+02 -0.38261255076E+02  0.52392897738E+02  0.00000000000E+00 0.  1.
</event>
<event>
 4    1  0.6629728E+001  0.2572324E+02  0.7546771E-02  0.1460873E+00
          2   -1    0    0  502    0  0.00000000000E+00  0.00000000000E+00  0.17269396492E+03  0.17269396492E+03  0.00000000000E+00 0. -1.
         -2   -1    0    0    0  501 -0.00000000000E+00 -0.00000000000E+00 -0.39123208088E+01  0.39123208088E+01  0.00000000000E+00 0.  1.
          1    1    1    2  502    0  0.23536893984E+02  0.10377856790E+02  0.97078740293E+02  0.10042891569E+03  0.00000000000E+00 0.  1.
         -1    1    1    2    0  501 -0.23536893984E+02 -0.10377856790E+02  0.71702903822E+02  0.76177370042E+02  0.00000000000E+00 0. -1.
</event>
<event>
 4    1  0.6629728E+001  0.2045436E+02  0.7546771E-02  0.1527200E+00
          2   -1    0    0  502    0  0.00000000000E+00  0.00000000000E+00  0.26266815135E+01  0.26266815135E+01  0.00000000000E+00 0. -1.
         -2   -1    0    0    0  501 -0.00000000000E+00 -0.00000000000E+00 -0.17733309641E+03  0.17733309641E+03  0.00000000000E+00 0.  1.
          1    1    1    2  502    0 -0.16131286845E+02  0.12576259795E+02 -0.11606188261E+03  0.11785050412E+03  0.00000000000E+00 0. -1.
         -1    1    1    2    0  501  0.16131286845E+02 -0.12576259795E+02 -0.58644532292E+02  0.62109273812E+02  0.00000000000E+00 0.  1.
</event>
<event>
 4    1  0.6629728E+001  0.2993015E+02  0.7546771E-02  0.1420205E+00
          2   -1    0    0  502    0  0.00000000000E+00  0.00000000000E+00  0.53851749664E+03  0.53851749664E+03  0.00000000000E+00 0. -1.
         -2   -1    0    0    0  501 -0.00000000000E+00 -0.00000000000E+00 -0.16685182277E+01  0.16685182277E+01  0.00000000000E+00 0.  1.
          1    1    1    2  502    0 -0.24790970684E+02  0.16769669446E+02  0.28326368185E+03  0.28484052994E+03  0.00000000000E+00 0. -1.
         -1    1    1    2    0  501  0.24790970684E+02 -0.16769669446E+02  0.25358529656E+03  0.25534548493E+03  0.00000000000E+00 0.  1.
</event>
<event>
 4    1  0.6629728E+001  0.2985313E+02  0.7546771E-02  0.1420877E+00
          2   -1    0    0  502    0  0.00000000000E+00  0.00000000000E+00  0.92719855740E+01  0.92719855740E+01  0.00000000000E+00 0. -1.
         -2   -1    0    0    0  501 -0.00000000000E+00 -0.00000000000E+00 -0.10380783886E+03  0.10380783886E+03  0.00000000000E+00 0.  1.
          1    1    1    2  502    0 -0.26371998707E+02  0.13990252463E+02 -0.31879856905E+02  0.43675333497E+02  0.00000000000E+00 0.  1.
         -1    1    1    2    0  501  0.26371998707E+02 -0.13990252463E+02 -0.62655996384E+02  0.69404490940E+02  0.00000000000E+00 0. -1.
</event>
<event>
 4    1  0.6629728E+001  0.2085887E+02  0.7546771E-02  0.1521289E+00
          2   -1    0    0  502    0  0.00000000000E+00  0.00000000000E+00  0.48235128559E+03  0.48235128559E+03  0.00000000000E+00 0. -1.
         -2   -1    0    0    0  501 -0.00000000000E+00 -0.00000000000E+00 -0.21194030841E+01  0.21194030841E+01  0.00000000000E+00 0.  1.
          1    1    1    2  502    0  0.15485780659E+02 -0.13974364253E+02  0.56528185295E+02  0.60253862878E+02  0.00000000000E+00 0.  1.
         -1    1    1    2    0  501 -0.15485780659E+02  0.13974364253E+02  0.42370369721E+03  0.42421682580E+03  0.00000000000E+00 0. -1.
</event>
<event>
 4    1  0.6629728E+001  0.2647163E+02  0.7546771E-02  0.1452989E+00
          2   -1    0    0  502    0  0.00000000000E+00  0.00000000000E+00  0.75535928943E+03  0.75535928943E+03  0.00000000000E+00 0.  1.
         -2   -1    0    0    0  501 -0.00000000000E+00 -0.00000000000E+00 -0.15522297930E+01  0.15522297930E+01  0.00000000000E+00 0. -1.
          1    1    1    2  502    0  0.10037026882E+02  0.24495006110E+02  0.61696004579E+03  0.61752768791E+03  0.00000000000E+00 0.  1.
         -1    1    1    2    0  501 -0.10037026882E+02 -0.24495006110E+02  0.13684701384E+03  0.13938383131E+03  0.00000000000E+00 0. -1.
</event>
<event>
 4    1  0.6629728E+001  0.2073672E+02  0.7546771E-02  0.1523057E+00
          2   -1    0    0  502    0  0.00000000000E+00  0.00000000000E+00  0.10718020997E+03  0.10718020997E+03  0.00000000000E+00 0.  1.
         -2   -1    0    0    0  501 -0.00000000000E+00 -0.00000000000E+00 -0.79285148998E+01  0.79285148998E+01  0.00000000000E+00 0. -1.
          1    1    1    2  502    0 -0.92020361016E+00 -0.20716292849E+02  0.90076902807E+02  0.92433002675E+02  0.00000000000E+00 0.  1.
         -1    1    1    2    0  501  0.92020361016E+00  0.20716292849E+02  0.91747922653E+01  0.22675722198E+02  0.00000000000E+00 0. -1.
</event>
<event>
 4    1  0.6629728E+001  0.5799970E+02  0.7546771E-02  0.1266785E+00
          2   -1    0    0  502    0  0.00000000000E+00  0.00000000000E+00  0.53508015433E+03  0.53508015433E+03  0.00000000000E+00 0.  1.
         -2   -1    0    0    0  501 -0.00000000000E+00 -0.00000000000E+00 -0.12633722323E+02  0.12633722323E+02  0.00000000000E+00 0. -1.
          1    1    1    2  502    0 -0.25367712660E+02  0.52157876990E+02  0.45532887711E+03  0.45900800789E+03  0.00000000000E+00 0.  1.
         -1    1    1    2    0  501  0.25367712660E+02 -0.52157876990E+02  0.67117554904E+02  0.88705868769E+02  0.00000000000E+00 0. -1.
</event>
<event>
 4    1  0.6629728E+001  0.2179174E+02  0.7546771E-02  0.1508254E+00
          2   -1    0    0  502    0  0.00000000000E+00  0.00000000000E+00  0.12159651248E+02  0.12159651248E+02  0.00000000000E+00 0. -1.
         -2   -1    0    0    0  501 -0.00000000000E+00 -0.00000000000E+00 -0.39169543324E+02  0.39169543324E+02  0.00000000000E+00 0.  1.
          1    1    1    2  502    0  0.21768614400E+02 -0.10036128104E+01 -0.14900439869E+02  0.26398918915E+02  0.00000000000E+00 0.  1.
         -1    1    1    2    0  501 -0.21768614400E+02  0.10036128104E+01 -0.12109452207E+02  0.24930275657E+02  0.00000000000E+00 0. -1.
</event>
<event>
 4    1  0.6629728E+001  0.3635009E+02  0.7546771E-02  0.1371312E+00
          2   -1    0    0  502    0  0.00000000000E+00  0.00000000000E+00  0.74259691695E+02  0.74259691695E+02  0.00000000000E+00 0. -1.
         -2   -1    0    0    0  501 -0.00000000000E+00 -0.00000000000E+00 -0.23531240857E+02  0.23531240857E+02  0.00000000000E+00 0.  1.
          1    1    1    2  502    0  0.31861604023E+02 -0.17497640167E+02  0.49508938295E+02  0.61420389069E+02  0.00000000000E+00 0. -1.
         -1    1    1    2    0  501 -0.31861604023E+02  0.17497640167E+02  0.12195125431E+01  0.36370543482E+02  0.00000000000E+00 0.  1.
</event>
<event>
 4    1  0.6629728E+001  0.3068003E+02  0.7546771E-02  0.1413777E+00
          2   -1    0    0  502    0  0.00000000000E+00  0.00000000000E+00  0.22507993356E+03  0.22507993356E+03  0.00000000000E+00 0.  1.
         -2   -1    0    0    0  501 -0.00000000000E+00 -0.00000000000E+00 -0.43255958124E+01  0.43255958124E+01  0.00000000000E+00 0. -1.
          1    1    1    2  502    0  0.14036328536E+02  0.27280865676E+02  0.89471839385E+02  0.94585803341E+02  0.00000000000E+00 0. -1.
         -1    1    1    2    0  501 -0.14036328536E+02 -0.27280865676E+02  0.13128249837E+03  0.13481972603E+03  0.00000000000E+00 0.  1.
</event>
<event>
 4    1  0.6629728E+001  0.2824556E+02  0.7546771E-02  0.1435482E+00
          2   -1    0    0  502    0  0.00000000000E+00  0.00000000000E+00  0.22736669378E+02  0.22736669378E+02  0.00000000000E+00 0. -1.
         -2   -1    0    0    0  501 -0.00000000000E+00 -0.00000000000E+00 -0.52930070754E+02  0.52930070754E+02  0.00000000000E+00 0.  1.
          1    1    1    2  502    0  0.22325033015E+02  0.17303316808E+02 -0.37061722391E+02  0.46598102303E+02  0.00000000000E+00 0.  1.
         -1    1    1    2    0  501 -0.22325033015E+02 -0.17303316808E+02  0.68683210146E+01  0.29068637829E+02  0.00000000000E+00 0. -1.
</event>
<event>
 4    1  0.6629728E+001  0.2072964E+02  0.7546771E-02  0.1523160E+00
          2   -1    0    0  502    0  0.00000000000E+00  0.00000000000E+00  0.66498357816E+03  0.66498357816E+03  0.00000000000E+00 0. -1.
         -2   -1    0    0    0  501 -0.00000000000E+00 -0.00000000000E+00 -0.64641515552E+00  0.64641515552E+00  0.00000000000E+00 0.  1.
          1    1    1    2  502    0 -0.99433433060E+01  0.18189224171E+02  0.33812123292E+03  0.33875608644E+03  0.00000000000E+00 0.  1.
         -1    1    1    2    0  501  0.99433433060E+01 -0.18189224171E+02  0.32621593008E+03  0.32687390687E+03  0.00000000000E+00 0. -1.
</event>
<event>
 4    1  0.6629728E+001  0.2312056E+02  0.7546771E-02  0.1490990E+00
          2   -1    0    0  502    0  0.00000000000E+00  0.00000000000E+00  0.22549857792E+04  0.22549857792E+04  0.00000000000E+00 0. -1.
         -2   -1    0    0    0  501 -0.00000000000E+00 -0.00000000000E+00 -0.30312839327E+00  0.30312839327E+00  0.00000000000E+00 0.  1.
          1    1    1    2  502    0  0.19000261518E+02 -0.13173851430E+02  0.60088128278E+03  0.60132593183E+03  0.00000000000E+00 0.  1.
         -1    1    1    2    0  501 -0.19000261518E+02  0.13173851430E+02  0.16538013680E+04  0.16539629758E+04  0.00000000000E+00 0. -1.
</event>
<event>
 4    1  0.6629728E+001  0.3102544E+02  0.7546771E-02  0.1410890E+00
          2   -1    0    0  502    0  0.00000000000E+00  0.00000000000E+00  0.48865577019E+02  0.48865577019E+02  0.00000000000E+00 0.  1.
         -2   -1    0    0    0  501 -0.00000000000E+00 -0.00000000000E+00 -0.23222568464E+02  0.23222568464E+02  0.00000000000E+00 0. -1.
          1    1    1    2  502    0  0.11601471373E+02  0.28774705469E+02 -0.12196190355E+01  0.31049400694E+02  0.00000000000E+00 0. -1.
         -1    1    1    2    0  501 -0.11601471373E+02 -0.28774705469E+02  0.26862627590E+02  0.41038744789E+02  0.00000000000E+00 0.  1.
</event>
<event>
 4    1  0.6629728E+001  0.2403626E+02  0.7546771E-02  0.1479880E+00
          2   -1    0    0  502    0  0.00000000000E+00  0.00000000000E+00  0.39674199637E+02  0.39674199637E+02  0.00000000000E+00 0.  1.
         -2   -1    0    0    0  501 -0.00000000000E+00 -0.00000000000E+00 -0.15359380151E+02  0.15359380151E+02  0.00000000000E+00 0. -1.
          1    1    1    2  502    0 -0.23805145569E+02 -0.33251698939E+01  0.58883509873E+01  0.24747007652E+02  0.00000000000E+00 0. -1.
         -1    1    1    2    0  501  0.23805145569E+02  0.33251698939E+01  0.18426468498E+02  0.30286572135E+02  0.00000000000E+00 0.  1.
</event>
<event>
 4    1  0.6629728E+001  0.2261928E+02  0.7546771E-02  0.1497335E+00
          2   -1    0    0  502    0  0.00000000000E+00  0.00000000000E+00  0.14605900519E+02  0.14605900519E+02  0.00000000000E+00 0. -1.
         -2   -1    0    0    0  501 -0.00000000000E+00 -0.00000000000E+00 -0.93343164505E+02  0.93343164505E+02  0.00000000000E+00 0.  1.
          1    1    1    2  502    0  0.16761218869E+02  0.15188595300E+02  0.32926793009E+01  0.22857681906E+02  0.00000000000E+00 0. -1.
         -1    1    1    2    0  501 -0.16761218869E+02 -0.15188595300E+02 -0.82029943287E+02  0.85091383118E+02  0.00000000000E+00 0.  1.
</event>
<event>
 4    1  0.6629728E+001  0.2166915E+02  0.7546771E-02  0.1509922E+00
          2   -1    0    0  502    0  0.00000000000E+00  0.00000000000E+00  0.42338557045E+03  0.42338557045E+03  0.00000000000E+00 0. -1.
         -2   -1    0    0    0  501 -0.00000000000E+00 -0.00000000000E+00 -0.15593843394E+01  0.15593843394E+01  0.00000000000E+00 0.  1.
          1    1    1    2  502    0  0.16167128918E+02 -0.14428300680E+02  0.96730996436E+02  0.99128389422E+02  0.00000000000E+00 0.  1.
         -1    1    1    2    0  501 -0.16167128918E+02  0.14428300680E+02  0.32509518967E+03  0.32581656536E+03  0.00000000000E+00 0. -1.
</event>
<event>
 4    1  0.6629728E+001  0.2359461E+02  0.7546771E-02  0.1485164E+00
          2   -1    0    0  502    0  0.00000000000E+00  0.00000000000E+00  0.16439232404E+02  0.16439232404E+02  0.00000000000E+00 0.  1.
         -2   -1    0    0    0  501 -0.00000000000E+00 -0.00000000000E+00 -0.34456569242E+02  0.34456569242E+02  0.00000000000E+00 0. -1.
          1    1    1    2  502    0 -0.22269195242E+02  0.77966996653E+01 -0.56727139181E+01  0.24266958310E+02  0.00000000000E+00 0.  1.
         -1    1    1    2    0  501  0.22269195242E+02 -0.77966996653E+01 -0.12344622919E+02  0.26628843336E+02  0.00000000000E+00 0. -1.
</event>
<event>
 4    1  0.6629728E+001  0.2857693E+02  0.7546771E-02  0.1432380E+00
          2   -1    0    0  502    0  0.00000000000E+00  0.00000000000E+00  0.26850854482E+04  0.26850854482E+04  0.00000000000E+00 0. -1.
         -2   -1    0    0    0  501 -0.00000000000E+00 -0.00000000000E+00 -0.30420735827E+00  0.30420735827E+00  0.00000000000E+00 0.  1.
          1    1    1    2  502    0  0.63893202391E+01  0.27853500060E+02  0.13223552861E+04  0.13226640328E+04  0.00000000000E+00 0.  1.
         -1    1    1    2    0  501 -0.63893202391E+01 -0.27853500060E+02  0.13624259547E+04  0.13627256227E+04  0.00000000000E+00 0. -1.
</event>
<event>
 4    1  0.6629728E+001  0.2111337E+02  0.7546771E-02  0.1517652E+00
          2   -1    0    0  502    0  0.00000000000E+00  0.00000000000E+00  0.49468802291E+02  0.49468802291E+02  0.00000000000E+00 0. -1.
         -2   -1    0    0    0  501 -0.00000000000E+00 -0.00000000000E+00 -0.99440817239E+01  0.99440817239E+01  0.00000000000E+00 0.  1.
          1    1    1    2  502    0  0.27782791841E+01 -0.20929774432E+02  0.10663714023E+02  0.23653521720E+02  0.00000000000E+00 0.  1.
         -1    1    1    2    0  501 -0.27782791841E+01  0.20929774432E+02  0.28861006544E+02  0.35759362295E+02  0.00000000000E+00 0. -1.
</event>
<event>
 4    1  0.6629728E+001  0.7629347E+02  0.7546771E-02  0.1212724E+00
          2   -1    0    0  502    0  0.00000000000E+00  0.00000000000E+00  0.12048764963E+03  0.12048764963E+03  0.00000000000E+00 0.  1.
         -2   -1    0    0    0  501 -0.00000000000E+00 -0.00000000000E+00 -0.54733536798E+02  0.54733536798E+02  0.00000000000E+00 0. -1.
          1    1    1    2  502    0  0.74540050220E+02 -0.16262678114E+02  0.28622817201E+01  0.76347144301E+02  0.00000000000E+00 0. -1.
         -1    1    1    2    0  501 -0.74540050220E+02  0.16262678114E+02  0.62891831117E+02  0.98874042132E+02  0.00000000000E+00 0.  1.
</event>
<event>
 4    1  0.6629728E+001  0.3642508E+02  0.7546771E-02  0.1370812E+00
          2   -1    0    0  502    0  0.00000000000E+00  0.00000000000E+00  0.53610270347E+02  0.53610270347E+02  0.00000000000E+00 0. -1.
         -2   -1    0    0    0  501 -0.00000000000E+00 -0.00000000000E+00 -0.37468006492E+02  0.37468006492E+02  0.00000000000E+00 0.  1.
          1    1    1    2  502    0  0.19551526784E+02 -0.30733108516E+02  0.34604092008E+02  0.50241709190E+02  0.00000000000E+00 0. -1.
         -1    1    1    2    0  501 -0.19551526784E+02  0.30733108516E+02 -0.18461828153E+02  0.40836567650E+02  0.00000000000E+00 0.  1.
</event>
<event>
 4    1  0.6629728E+001  0.2495404E+02  0.7546771E-02  0.1469318E+00
          2   -1    0    0  502    0  0.00000000000E+00  0.00000000000E+00  0.14183052704E+01  0.14183052704E+01  0.00000000000E+00 0. -1.
         -2   -1    0    0    0  501 -0.00000000000E+00 -0.00000000000E+00 -0.45525450158E+03  0.45525450158E+03  0.00000000000E+00 0.  1.
          1    1    1    2  502    0  0.58464508348E+01 -0.24259490903E+02 -0.26999997519E+03  0.27115067857E+03  0.00000000000E+00 0. -1.
         -1    1    1    2    0  501 -0.58464508348E+01  0.24259490903E+02 -0.18383622113E+03  0.18552212829E+03  0.00000000000E+00 0.  1.
</event>
<event>
 4    1  0.6629728E+001  0.3595060E+02  0.7546771E-02  0.1374001E+00
          2   -1    0    0  502    0  0.00000000000E+00  0.00000000000E+00  0.10654861219E+03  0.10654861219E+03  0.00000000000E+00 0. -1.
         -2   -1    0    0    0  501 -0.00000000000E+00 -0.00000000000E+00 -0.16513446114E+02  0.16513446114E+02  0.00000000000E+00 0.  1.
          1    1    1    2  502    0 -0.21736213773E+02 -0.28635336937E+02  0.76718959254E+02  0.84724519590E+02  0.00000000000E+00 0. -1.
         -1    1    1    2    0  501  0.21736213773E+02  0.28635336937E+02  0.13316206824E+02  0.38337538717E+02  0.00000000000E+00 0.  1.
</event>
<event>
 4    1  0.6629728E+001  0.2474508E+02  0.7546771E-02  0.1471675E+00
          2   -1    0    0  502    0  0.00000000000E+00  0.00000000000E+00  0.52808985259E+03  0.52808985259E+03  0.00000000000E+00 0.  1.
         -2   -1    0    0    0  501 -0.00000000000E+00 -0.00000000000E+00 -0.13195578653E+01  0.13195578653E+01  0.00000000000E+00 0. -1.
          1    1    1    2  502    0  0.24552020638E+02 -0.30849962790E+01  0.17119400418E+03  0.17297313661E+03  0.00000000000E+00 0. -1.
         -1    1    1    2    0  501 -0.24552020638E+02  0.30849962790E+01  0.35557629054E+03  0.35643627384E+03  0.00000000000E+00 0.  1.
</event>
<event>
 4    1  0.6629728E+001  0.2834681E+02  0.7546771E-02  0.1434529E+00
          2   -1    0    0  502    0  0.00000000000E+00  0.00000000000E+00  0.17201464117E+04  0.17201464117E+04  0.00000000000E+00 0. -1.
         -2   -1    0    0    0  501 -0.00000000000E+00 -0.00000000000E+00 -0.71301586488E+00  0.71301586488E+00  0.00000000000E+00 0.  1.
          1    1    1    2  502    0  0.13035306280E+02 -0.25171862015E+02  0.35444202939E+03  0.35557375331E+03  0.00000000000E+00 0.  1.
         -1    1    1    2    0  501 -0.13035306280E+02  0.25171862015E+02  0.13649913665E+04  0.13652856743E+04  0.00000000000E+00 0. -1.
</event>
<event>
 4    1  0.6629728E+001  0.2543074E+02  0.7546771E-02  0.1464042E+00
          2   -1    0    0  502    0  0.00000000000E+00  0.00000000000E+00  0.13164074165E+02  0.13164074165E+02  0.00000000000E+00 0.  1.
         -2   -1    0    0    0  501 -0.00000000000E+00 -0.00000000000E+00 -0.52207518315E+02  0.52207518315E+02  0.00000000000E+00 0. -1.
          1    1    1    2  502    0  0.90918684132E+01 -0.23749959947E+02 -0.27460332221E+02  0.37427162789E+02  0.00000000000E+00 0. -1.
         -1    1    1    2    0  501 -0.90918684132E+01  0.23749959947E+02 -0.11583111930E+02  0.27944429690E+02  0.00000000000E+00 0.  1.
</event>
<event>
 4    1  0.6629728E+001  0.4748230E+02  0.7546771E-02  0.1309474E+00
          2   -1    0    0  502    0  0.00000000000E+00  0.00000000000E+00  0.53923013597E+02  0.53923013597E+02  0.00000000000E+00 0.  1.
         -2   -1    0    0    0  501 -0.00000000000E+00 -0.00000000000E+00 -0.52933159405E+02  0.52933159405E+02  0.00000000000E+00 0. -1.
          1    1    1    2  502    0  0.32161473744E+02 -0.34931483738E+02 -0.23995846556E+02  0.53201218045E+02  0.00000000000E+00 0. -1.
         -1    1    1    2    0  501 -0.32161473744E+02  0.34931483738E+02  0.24985700749E+02  0.53654954957E+02  0.00000000000E+00 0.  1.
</event>
<event>
 4    1  0.6629728E+001  0.2102550E+02  0.7546771E-02  0.1518901E+00
          2   -1    0    0  502    0  0.00000000000E+00  0.00000000000E+00  0.87463302537E+01  0.87463302537E+01  0.00000000000E+00 0.  1.
         -2   -1    0    0    0  501 -0.00000000000E+00 -0.00000000000E+00 -0.54325429058E+02  0.54325429058E+02  0.00000000000E+00 0. -1.
          1    1    1    2  502    0 -0.16750769948E+02  0.12707606545E+02 -0.14469023662E+02  0.25523013217E+02  0.00000000000E+00 0.  1.
         -1    1    1    2    0  501  0.16750769948E+02 -0.12707606545E+02 -0.31110075143E+02  0.37548746095E+02  0.00000000000E+00 0. -1.
</event>
<event>
 4    1  0.6629728E+001  0.4794123E+02  0.7546771E-02  0.1307354E+00
          2   -1    0    0  502    0  0.00000000000E+00  0.00000000000E+00  0.37312955872E+03  0.37312955872E+03  0.00000000000E+00 0.  1.
         -2   -1    0    0    0  501 -0.00000000000E+00 -0.00000000000E+00 -0.75755996875E+01  0.75755996875E+01  0.00000000000E+00 0. -1.
          1    1    1    2  502    0 -0.46771880457E+02  0.10523932955E+02  0.26507098791E+03  0.26937147325E+03  0.00000000000E+00 0.  1.
         -1    1    1    2    0  501  0.46771880457E+02 -0.10523932955E+02  0.10048297112E+03  0.11133368516E+03  0.00000000000E+00 0. -1.
</event>
<event>
 4    1  0.6629728E+001  0.3297989E+02  0.7546771E-02  0.1395350E+00
          2   -1    0    0  502    0  0.00000000000E+00  0.00000000000E+00  0.13490695557E+02  0.13490695557E+02  0.00000000000E+00 0. -1.
         -2   -1    0    0    0  501 -0.00000000000E+00 -0.00000000000E+00 -0.80679742674E+02  0.80679742674E+02  0.00000000000E+00 0.  1.
          1    1    1    2  502    0  0.25777877343E+02 -0.20571197053E+02 -0.34832769652E+02  0.47968687183E+02  0.00000000000E+00 0. -1.
         -1    1    1    2    0  501 -0.25777877343E+02  0.20571197053E+02 -0.32356277465E+02  0.46201751048E+02  0.00000000000E+00 0.  1.
</event>
<event>
 4    1  0.6629728E+001  0.2922382E+02  0.7546771E-02  0.1426463E+00
          2   -1    0    0  502    0  0.00000000000E+00  0.00000000000E+00  0.11675302084E+04  0.11675302084E+04  0.00000000000E+00 0. -1.
         -2   -1    0    0    0  501 -0.00000000000E+00 -0.00000000000E+00 -0.10576458362E+01  0.10576458362E+01  0.00000000000E+00 0.  1.
          1    1    1    2  502    0  0.28092726094E+02  0.80517293203E+01  0.90770789403E+03  0.90817820525E+03  0.00000000000E+00 0. -1.
         -1    1    1    2    0  501 -0.28092726094E+02 -0.80517293203E+01  0.25876466856E+03  0.26040964901E+03  0.00000000000E+00 0.  1.
</event>
<event>
 4    1  0.6629728E+001  0.2103208E+02  0.7546771E-02  0.1518807E+00
          2   -1    0    0  502    0  0.00000000000E+00  0.00000000000E+00  0.36316793328E+02  0.36316793328E+02  0.00000000000E+00 0. -1.
         -2   -1    0    0    0  501 -0.00000000000E+00 -0.00000000000E+00 -0.17703238799E+02  0.17703238799E+02  0.00000000000E+00 0.  1.
          1    1    1    2  502    0  0.12974677971E+02  0.16553126109E+02  0.24393151520E+02  0.32208292310E+02  0.00000000000E+00 0. -1.
         -1    1    1    2    0  501 -0.12974677971E+02 -0.16553126109E+02 -0.57795969920E+01  0.21811739817E+02  0.00000000000E+00 0.  1.
</event>
<event>
 4    1  0.6629728E+001  0.2292686E+02  0.7546771E-02  0.1493419E+00
          2   -1    0    0  502    0  0.00000000000E+00  0.00000000000E+00  0.48907396572E+03  0.48907396572E+03  0.00000000000E+00 0. -1.
         -2   -1    0    0    0  501 -0.00000000000E+00 -0.00000000000E+00 -0.15826537578E+01  0.15826537578E+01  0.00000000000E+00 0.  1.
          1    1    1    2  502    0 -0.21418263669E+02  0.81791836755E+01  0.10477032626E+03  0.10724953300E+03  0.00000000000E+00 0.  1.
         -1    1    1    2    0  501  0.21418263669E+02 -0.81791836755E+01  0.38272098570E+03  0.38340708648E+03  0.00000000000E+00 0. -1.
</event>
<event>
 4    1  0.6629728E+001  0.2236733E+02  0.7546771E-02  0.1500599E+00
          2   -1    0    0  502    0  0.00000000000E+00  0.00000000000E+00  0.16447363664E+04  0.16447363664E+04  0.00000000000E+00 0.  1.
         -2   -1    0    0    0  501 -0.00000000000E+00 -0.00000000000E+00 -0.14202878468E+01  0.14202878468E+01  0.00000000000E+00 0. -1.
          1    1    1    2  502    0 -0.19143537457E+02 -0.11568160619E+02  0.92022652186E+02  0.94701984572E+02  0.00000000000E+00 0. -1.
         -1    1    1    2    0  501  0.19143537457E+02  0.11568160619E+02  0.15512934263E+04  0.15514546697E+04  0.00000000000E+00 0.  1.
</event>
<event>
 4    1  0.6629728E+001  0.2585574E+02  0.7546771E-02  0.1459454E+00
          2   -1    0    0  502    0  0.00000000000E+00  0.00000000000E+00  0.11742837254E+04  0.11742837254E+04  0.00000000000E+00 0. -1.
         -2   -1    0    0    0  501 -0.00000000000E+00 -0.00000000000E+00 -0.57987726846E+00  0.57987726846E+00  0.00000000000E+00 0.  1.
          1    1    1    2  502    0  0.17443676781E+02 -0.19085010173E+02  0.50751404614E+03  0.50817224098E+03  0.00000000000E+00 0.  1.
         -1    1    1    2    0  501 -0.17443676781E+02  0.19085010173E+02  0.66618980203E+03  0.66669136172E+03  0.00000000000E+00 0. -1.
</event>
<event>
 4    1  0.6629728E+001  0.2167696E+02  0.7546771E-02  0.1509815E+00
          2   -1    0    0  502    0  0.00000000000E+00  0.00000000000E+00  0.28681218383E+01  0.28681218383E+01  0.00000000000E+00 0.  1.
         -2   -1    0    0    0  501 -0.00000000000E+00 -0.00000000000E+00 -0.16433771185E+03  0.16433771185E+03  0.00000000000E+00 0. -1.
          1    1    1    2  502    0  0.18118663639E+02 -0.11899767974E+02 -0.76097576830E+02  0.79124785303E+02  0.00000000000E+00 0.  1.
         -1    1    1    2    0  501 -0.18118663639E+02  0.11899767974E+02 -0.85372013183E+02  0.88081048386E+02  0.00000000000E+00 0. -1.
</event>
<event>
 4    1  0.6629728E+001  0.2202014E+02  0.7546771E-02  0.1505183E+00
          2   -1    0    0  502    0  0.00000000000E+00  0.00000000000E+00  0.13303416577E+01  0.13303416577E+01  0.00000000000E+00 0.  1.
         -2   -1    0    0    0  501 -0.00000000000E+00 -0.00000000000E+00 -0.46771186294E+03  0.46771186294E+03  0.00000000000E+00 0. -1.
          1    1    1    2  502    0  0.16361325058E+02 -0.14737495250E+02 -0.12301308311E+03  0.12496841737E+03  0.00000000000E+00 0. -1.
         -1    1    1    2    0  501 -0.16361325058E+02  0.14737495250E+02 -0.34336843817E+03  0.34407378723E+03  0.00000000000E+00 0.  1.
</event>
<event>
 4    1  0.6629728E+001  0.2507932E+02  0.7546771E-02  0.1467918E+00
          2   -1    0    0  502    0  0.00000000000E+00  0.00000000000E+00  0.77171709255E+02  0.77171709255E+02  0.00000000000E+00 0.  1.
         -2   -1    0    0    0  501 -0.00000000000E+00 -0.00000000000E+00 -0.99749011356E+01  0.99749011356E+01  0.00000000000E+00 0. -1.
          1    1    1    2  502    0 -0.14099462849E+02 -0.20740720147E+02  0.14962495496E+02  0.29203571636E+02  0.00000000000E+00 0. -1.
         -1    1    1    2    0  501  0.14099462849E+02  0.20740720147E+02  0.52234312623E+02  0.57943038754E+02  0.00000000000E+00 0.  1.
</event>
<event>
 4    1  0.6629728E+001  0.6009278E+02  0.7546771E-02  0.1259518E+00
          2   -1    0    0  502    0  0.00000000000E+00  0.00000000000E+00  0.27713462910E+04  0.27713462910E+04  0.00000000000E+00 0.  1.
         -2   -1    0    0    0  501 -0.00000000000E+00 -0.00000000000E+00 -0.18543384399E+01  0.18543384399E+01  0.00000000000E+00 0. -1.
          1    1    1    2  502    0 -0.58974914532E+02 -0.11536982523E+02  0.62868851553E+03  0.63155395025E+03  0.00000000000E+00 0. -1.
         -1    1    1    2    0  501  0.58974914532E+02  0.11536982523E+02  0.21408034370E+04  0.21416466792E+04  0.00000000000E+00 0.  1.
</event>
<event>
 4    1  0.6629728E+001  0.2092252E+02  0.7546771E-02  0.1520374E+00
          2   -1    0    0  502    0  0.00000000000E+00  0.00000000000E+00  0.63565907786E+03  0.63565907786E+03  0.00000000000E+00 0.  1.
         -2   -1    0    0    0  501 -0.00000000000E+00 -0.00000000000E+00 -0.75968616781E+00  0.75968616781E+00  0.00000000000E+00 0. -1.
          1    1    1    2  502    0  0.19980542749E+02  0.62072182135E+01  0.22015000096E+03  0.22114197831E+03  0.00000000000E+00 0. -1.
         -1    1    1    2    0  501 -0.19980542749E+02 -0.62072182135E+01  0.41474939073E+03  0.41527678572E+03  0.00000000000E+00 0.  1.
</event>
<event>
 4    1  0.6629728E+001  0.2387733E+02  0.7546771E-02  0.1481766E+00
          2   -1    0    0  502    0  0.00000000000E+00  0.00000000000E+00  0.73365603858E+03  0.73365603858E+03  0.00000000000E+00 0.  1.
         -2   -1    0    0    0  501 -0.00000000000E+00 -0.00000000000E+00 -0.13435353169E+01  0.13435353169E+01  0.00000000000E+00 0. -1.
          1    1    1    2  502    0  0.19135582007E+02  0.14281322000E+02  0.60477599695E+03  0.60524716699E+03  0.00000000000E+00 0.  1.
         -1    1    1    2    0  501 -0.19135582007E+02 -0.14281322000E+02  0.12753650631E+03  0.12975240691E+03  0.00000000000E+00 0. -1.
</event>
<event>
 4    1  0.6629728E+001  0.3517091E+02  0.7546771E-02  0.1379366E+00
          2   -1    0    0  502    0  0.00000000000E+00  0.00000000000E+00  0.13014405507E+04  0.13014405507E+04  0.00000000000E+00 0. -1.
         -2   -1    0    0    0  501 -0.00000000000E+00 -0.00000000000E+00 -0.14107275215E+01  0.14107275215E+01  0.00000000000E+00 0.  1.
          1    1    1    2  502    0 -0.29301887254E+02  0.19452301650E+02  0.27793243500E+03  0.28014894442E+03  0.00000000000E+00 0.  1.
         -1    1    1    2    0  501  0.29301887254E+02 -0.19452301650E+02  0.10220973882E+04  0.10227023338E+04  0.00000000000E+00 0. -1.
</event>
<event>
 4    1  0.6629728E+001  0.1007019E+03  0.7546771E-02  0.1162597E+00
          2   -1    0    0  502    0  0.00000000000E+00  0.00000000000E+00  0.19536840114E+03  0.19536840114E+03  0.00000000000E+00 0.  1.
         -2   -1    0    0    0  501 -0.00000000000E+00 -0.00000000000E+00 -0.51922583986E+02  0.51922583986E+02  0.00000000000E+00 0. -1.
          1    1    1    2  502    0  0.59675906516E+02 -0.81115066401E+02  0.73906737997E+02  0.12491226416E+03  0.00000000000E+00 0.  1.
         -1    1    1    2    0  501 -0.59675906516E+02  0.81115066401E+02  0.69539079160E+02  0.12237872097E+03  0.00000000000E+00 0. -1.
</event>
<event>
 4    1  0.6629728E+001  0.2067648E+02  0.7546771E-02  0.1523934E+00
          2   -1    0    0  502    0  0.00000000000E+00  0.00000000000E+00  0.15437635941E+04  0.15437635941E+04  0.00000000000E+00 0. -1.
         -2   -1    0    0    0  501 -0.00000000000E+00 -0.00000000000E+00 -0.27761541985E+00  0.27761541985E+00  0.00000000000E+00 0.  1.
          1    1    1    2  502    0  0.37109604949E+01 -0.20340742140E+02  0.81005704318E+03  0.81032088102E+03  0.00000000000E+00 0.  1.
         -1    1    1    2    0  501 -0.37109604949E+01  0.20340742140E+02  0.73342893545E+03  0.73372032845E+03  0.00000000000E+00 0. -1.
</event>
<event>
 4    1  0.6629728E+001  0.2454082E+02  0.7546771E-02  0.1474006E+00
          2   -1    0    0  502    0  0.00000000000E+00  0.00000000000E+00  0.11232275521E+04  0.11232275521E+04  0.00000000000E+00 0.  1.
         -2   -1    0    0    0  501 -0.00000000000E+00 -0.00000000000E+00 -0.54528716875E+00  0.54528716875E+00  0.00000000000E+00 0. -1.
          1    1    1    2  502    0 -0.12547363410E+02 -0.21090655788E+02  0.63395654951E+03  0.63443136647E+03  0.00000000000E+00 0.  1.
         -1    1    1    2    0  501  0.12547363410E+02  0.21090655788E+02  0.48872571537E+03  0.48934147275E+03  0.00000000000E+00 0. -1.
</event>
<event>
 4    1  0.6629728E+001  0.4210849E+02  0.7546771E-02  0.1336554E+00
          2   -1    0    0  502    0  0.00000000000E+00  0.00000000000E+00  0.11719743571E+04  0.11719743571E+04  0.00000000000E+00 0.  1.
         -2   -1    0    0    0  501 -0.00000000000E+00 -0.00000000000E+00 -0.15646132370E+01  0.15646132370E+01  0.00000000000E+00 0. -1.
          1    1    1    2  502    0  0.20286045850E+02 -0.36899878852E+02  0.69184106421E+03  0.69312133342E+03  0.00000000000E+00 0. -1.
         -1    1    1    2    0  501 -0.20286045850E+02  0.36899878852E+02  0.47856867968E+03  0.48041763695E+03  0.00000000000E+00 0.  1.
</event>
<event>
 4    1  0.6629728E+001  0.4014902E+02  0.7546771E-02  0.1347615E+00
          2   -1    0    0  502    0  0.00000000000E+00  0.00000000000E+00  0.76839335171E+02  0.76839335171E+02  0.00000000000E+00 0.  1.
         -2   -1    0    0    0  501 -0.00000000000E+00 -0.00000000000E+00 -0.26545161411E+02  0.26545161411E+02  0.00000000000E+00 0. -1.
          1    1    1    2  502    0  0.77300717492E+00 -0.40141582419E+02  0.14745242386E+01  0.40176092404E+02  0.00000000000E+00 0. -1.
         -1    1    1    2    0  501 -0.77300717492E+00  0.40141582419E+02  0.48819649521E+02  0.63208404177E+02  0.00000000000E+00 0.  1.
</event>
<event>
 4    1  0.6629728E+001  0.2947045E+02  0.7546771E-02  0.1424255E+00
          2   -1    0    0  502    0  0.00000000000E+00  0.00000000000E+00  0.24535689279E+03  0.24535689279E+03  0.00000000000E+00 0. -1.
         -2   -1    0    0    0  501 -0.00000000000E+00 -0.00000000000E+00 -0.41867573065E+01  0.41867573065E+01  0.00000000000E+00 0.  1.
          1    1    1    2  502    0  0.23711332930E+02 -0.17500852708E+02  0.16963351454E+03  0.17217443599E+03  0.00000000000E+00 0. -1.
         -1    1    1    2    0  501 -0.23711332930E+02  0.17500852708E+02  0.71536620948E+02  0.77369214106E+02  0.00000000000E+00 0.  1.
</event>
<event>
 4    1  0.6629728E+001  0.3381056E+02  0.7546771E-02  0.1389124E+00
          2   -1    0    0  502    0  0.00000000000E+00  0.00000000000E+00  0.12451243980E+03  0.12451243980E+03  0.00000000000E+00 0.  1.
         -2   -1    0    0    0  501 -0.00000000000E+00 -0.00000000000E+00 -0.98150805918E+01  0.98150805918E+01  0.00000000000E+00 0. -1.
          1    1    1    2  502    0  0.10877411452E+02 -0.32013063356E+02  0.74419127127E+02  0.81739591311E+02  0.00000000000E+00 0.  1.
         -1    1    1    2    0  501 -0.10877411452E+02  0.32013063356E+02  0.40278232078E+02  0.52587929078E+02  0.00000000000E+00 0. -1.
</event>
<event>
 4    1  0.6629728E+001  0.4206585E+02  0.7546771E-02  0.1336787E+00
          2   -1    0    0  502    0  0.00000000000E+00  0.00000000000E+00  0.38342337061E+03  0.38342337061E+03  0.00000000000E+00 0. -1.
         -2   -1    0    0    0  501 -0.00000000000E+00 -0.00000000000E+00 -0.48025812263E+01  0.48025812263E+01  0.00000000000E+00 0.  1.
          1    1    1    2  502    0  0.38878951431E+02 -0.16061233595E+02  0.22766340439E+03  0.23151708747E+03  0.00000000000E+00 0. -1.
         -1    1    1    2    0  501 -0.38878951431E+02  0.16061233595E+02  0.15095738499E+03  0.15670886437E+03  0.00000000000E+00 0.  1.
</event>
<event>
 4    1  0.6629728E+001  0.2148138E+02  0.7546771E-02  0.1512502E+00
          2   -1    0    0  502    0  0.00000000000E+00  0.00000000000E+00  0.10047185151E+03  0.10047185151E+03  0.00000000000E+00 0.  1.
         -2   -1    0    0    0  501 -0.00000000000E+00 -0.00000000000E+00 -0.48844089288E+01  0.48844089288E+01  0.00000000000E+00 0. -1.
          1    1    1    2  502    0 -0.13232957778E+02  0.16921539879E+02  0.34922915141E+02  0.41000727864E+02  0.00000000000E+00 0. -1.
         -1    1    1    2    0  501  0.13232957778E+02 -0.16921539879E+02  0.60664527440E+02  0.64355532575E+02  0.00000000000E+00 0.  1.
</event>
<event>
 4    1  0.6629728E+001  0.2862112E+02  0.7546771E-02  0.1431970E+00
          2   -1    0    0  502    0  0.00000000000E+00  0.00000000000E+00  0.36298643809E+02  0.36298643809E+02  0.00000000000E+00 0.  1.
         -2   -1    0    0    0  501 -0.00000000000E+00 -0.00000000000E+00 -0.49639927502E+02  0.49639927502E+02  0.00000000000E+00 0. -1.
          1    1    1    2  502    0  0.19174712939E+02  0.21248497806E+02  0.25062017291E+02  0.38043041229E+02  0.00000000000E+00 0.  1.
         -1    1    1    2    0  501 -0.19174712939E+02 -0.21248497806E+02 -0.38403300985E+02  0.47895530082E+02  0.00000000000E+00 0. -1.
</event>
<event>
 4    1  0.6629728E+001  0.2009911E+02  0.7546771E-02  0.1532526E+00
          2   -1    0    0  502    0  0.00000000000E+00  0.00000000000E+00  0.50704920256E+02  0.50704920256E+02  0.00000000000E+00 0.  1.
         -2   -1    0    0    0  501 -0.00000000000E+00 -0.00000000000E+00 -0.80576947374E+01  0.80576947374E+01  0.00000000000E+00 0. -1.
          1    1    1    2  502    0 -0.10335535263E+02  0.17238070260E+02  0.24437956695E+02  0.31641556265E+02  0.00000000000E+00 0.  1.
         -1    1    1    2    0  501  0.10335535263E+02 -0.17238070260E+02  0.18209268823E+02  0.27121058728E+02  0.00000000000E+00 0. -1.
</event>
<event>
 4    1  0.6629728E+001  0.3296247E+02  0.7546771E-02  0.1395483E+00
          2   -1    0    0  502    0  0.00000000000E+00  0.00000000000E+00  0.17269400051E+02  0.17269400051E+02  0.00000000000E+00 0.  1.
         -2   -1    0    0    0  501 -0.00000000000E+00 -0.00000000000E+00 -0.66176886631E+02  0.66176886631E+02  0.00000000000E+00 0. -1.
          1    1    1    2  502    0 -0.19838321664E+02  0.26324237903E+02 -0.33715223233E+02  0.47151254333E+02  0.00000000000E+00 0.  1.
         -1    1    1    2    0  501  0.19838321664E+02 -0.26324237903E+02 -0.15192263348E+02  0.36295032349E+02  0.00000000000E+00 0. -1.
</event>
<event>
 4    1  0.6629728E+001  0.4016803E+02  0.7546771E-02  0.1347504E+00
          2   -1    0    0  502    0  0.00000000000E+00  0.00000000000E+00  0.66550692949E+03  0.66550692949E+03  0.00000000000E+00 0. -1.
         -2   -1    0    0    0  501 -0.00000000000E+00 -0.00000000000E+00 -0.28734033247E+01  0.28734033247E+01  0.00000000000E+00 0.  1.
          1    1    1    2  502    0  0.34079960807E+02 -0.21260927654E+02  0.19921497771E+03  0.20322420653E+03  0.00000000000E+00 0. -1.
         -1    1    1    2    0  501 -0.34079960807E+02  0.21260927654E+02  0.46341854846E+03  0.46515612629E+03  0.00000000000E+00 0.  1.
</event>
<event>
 4    1  0.6629728E+001  0.3122938E+02  0.7546771E-02  0.1409206E+00
          2   -1    0    0  502    0  0.00000000000E+00  0.00000000000E+00  0.98666063916E+03  0.98666063916E+03  0.00000000000E+00 0. -1.
         -2   -1    0    0    0  501 -0.00000000000E+00 -0.00000000000E+00 -0.10800598649E+01  0.10800598649E+01  0.00000000000E+00 0.  1.
          1    1    1    2  502    0 -0.30474780105E+02  0.68236190680E+01  0.34896414502E+03  0.35035874259E+03  0.00000000000E+00 0.  1.
         -1    1    1    2    0  501  0.30474780105E+02 -0.68236190680E+01  0.63661643428E+03  0.63738195644E+03  0.00000000000E+00 0. -1.
</event>
<event>
 4    1  0.6629728E+001  0.2151726E+02  0.7546771E-02  0.1512006E+00
          2   -1    0    0  502    0  0.00000000000E+00  0.00000000000E+00  0.18123553109E+04  0.18123553109E+04  0.00000000000E+00 0.  1.
         -2   -1    0    0    0  501 -0.00000000000E+00 -0.00000000000E+00 -0.34017559789E+00  0.34017559789E+00  0.00000000000E+00 0. -1.
          1    1    1    2  502    0 -0.13624848688E+02 -0.16654006073E+02  0.13582939036E+04  0.13584643245E+04  0.00000000000E+00 0. -1.
         -1    1    1    2    0  501  0.13624848688E+02  0.16654006073E+02  0.45372123172E+03  0.45423116200E+03  0.00000000000E+00 0.  1.
</event>
<event>
 4    1  0.6629728E+001  0.3085345E+02  0.7546771E-02  0.1412322E+00
          2   -1    0    0  502    0  0.00000000000E+00  0.00000000000E+00  0.61140125688E+03  0.61140125688E+03  0.00000000000E+00 0. -1.
         -2   -1    0    0    0  501 -0.00000000000E+00 -0.00000000000E+00 -0.17836358285E+01  0.17836358285E+01  0.00000000000E+00 0.  1.
          1    1    1    2  502    0  0.26014985974E+02  0.16587815189E+02  0.19551420420E+03  0.19793367362E+03  0.00000000000E+00 0.  1.
         -1    1    1    2    0  501 -0.26014985974E+02 -0.16587815189E+02  0.41410341685E+03  0.41525121909E+03  0.00000000000E+00 0. -1.
</event>
<event>
 4    1  0.6629728E+001  0.2427075E+02  0.7546771E-02  0.1477129E+00
          2   -1    0    0  502    0  0.00000000000E+00  0.00000000000E+00  0.10705218161E+04  0.10705218161E+04  0.00000000000E+00 0. -1.
         -2   -1    0    0    0  501 -0.00000000000E+00 -0.00000000000E+00 -0.98567997617E+00  0.98567997617E+00  0.00000000000E+00 0.  1.
          1    1    1    2  502    0 -0.24200192756E+02  0.18492613678E+01  0.89084978311E+03  0.89118034379E+03  0.00000000000E+00 0. -1.
         -1    1    1    2    0  501  0.24200192756E+02 -0.18492613678E+01  0.17868635304E+03  0.18032715230E+03  0.00000000000E+00 0.  1.
</event>
<event>
 4    1  0.6629728E+001  0.2080668E+02  0.7546771E-02  0.1522043E+00
          2   -1    0    0  502    0  0.00000000000E+00  0.00000000000E+00  0.25440952186E+03  0.25440952186E+03  0.00000000000E+00 0.  1.
         -2   -1    0    0    0  501 -0.00000000000E+00 -0.00000000000E+00 -0.17576271215E+01  0.17576271215E+01  0.00000000000E+00 0. -1.
          1    1    1    2  502    0 -0.12803998394E+01  0.20767244919E+02  0.14918225288E+03  0.15062623430E+03  0.00000000000E+00 0. -1.
         -1    1    1    2    0  501  0.12803998394E+01 -0.20767244919E+02  0.10346964185E+03  0.10554091467E+03  0.00000000000E+00 0.  1.
</event>
<event>
 4    1  0.6629728E+001  0.2123743E+02  0.7546771E-02  0.1515902E+00
          2   -1    0    0  502    0  0.00000000000E+00  0.00000000000E+00  0.81814780561E+03  0.81814780561E+03  0.00000000000E+00 0. -1.
         -2   -1    0    0    0  501 -0.00000000000E+00 -0.00000000000E+00 -0.55128009817E+00  0.55128009817E+00  0.00000000000E+00 0.  1.
          1    1    1    2  502    0 -0.20773368954E+02  0.44153972613E+01  0.40886482625E+03  0.40941601671E+03  0.00000000000E+00 0. -1.
         -1    1    1    2    0  501  0.20773368954E+02 -0.44153972613E+01  0.40873169926E+03  0.40928306900E+03  0.00000000000E+00 0.  1.
</event>
<event>
 4    1  0.6629728E+001  0.2470707E+02  0.7546771E-02  0.1472107E+00
          2   -1    0    0  502    0  0.00000000000E+00  0.00000000000E+00  0.93144156748E+03  0.93144156748E+03  0.00000000000E+00 0. -1.
         -2   -1    0    0    0  501 -0.00000000000E+00 -0.00000000000E+00 -0.65538114271E+00  0.65538114271E+00  0.00000000000E+00 0.  1.
          1    1    1    2  502    0  0.13516137657E+02  0.20682195348E+02  0.46728477053E+03  0.46793749150E+03  0.00000000000E+00 0.  1.
         -1    1    1    2    0  501 -0.13516137657E+02 -0.20682195348E+02  0.46350141582E+03  0.46415945713E+03  0.00000000000E+00 0. -1.
</event>
<event>
 4    1  0.6629728E+001  0.2914619E+02  0.7546771E-02  0.1427164E+00
          2   -1    0    0  502    0  0.00000000000E+00  0.00000000000E+00  0.19610327491E+02  0.19610327491E+02  0.00000000000E+00 0.  1.
         -2   -1    0    0    0  501 -0.00000000000E+00 -0.00000000000E+00 -0.45845083622E+02  0.45845083622E+02  0.00000000000E+00 0. -1.
          1    1    1    2  502    0 -0.28598536859E+02 -0.56235205947E+01 -0.54350868422E+01  0.29648616550E+02  0.00000000000E+00 0.  1.
         -1    1    1    2    0  501  0.28598536859E+02  0.56235205947E+01 -0.20799669289E+02  0.35806794563E+02  0.00000000000E+00 0. -1.
</event>
<event>
 4    1  0.6629728E+001  0.2468759E+02  0.7546771E-02  0.1472329E+00
          2   -1    0    0  502    0  0.00000000000E+00  0.00000000000E+00  0.10990399182E+04  0.10990399182E+04  0.00000000000E+00 0. -1.
         -2   -1    0    0    0  501 -0.00000000000E+00 -0.00000000000E+00 -0.73912165911E+00  0.73912165911E+00  0.00000000000E+00 0.  1.
          1    1    1    2  502    0  0.24559891561E+02  0.25077781533E+01  0.82393666344E+03  0.82430643731E+03  0.00000000000E+00 0. -1.
         -1    1    1    2    0  501 -0.24559891561E+02 -0.25077781533E+01  0.27436413310E+03  0.27547260255E+03  0.00000000000E+00 0.  1.
</event>
<event>
 4    1  0.6629728E+001  0.2241654E+02  0.7546771E-02  0.1499958E+00
          2   -1    0    0  502    0  0.00000000000E+00  0.00000000000E+00  0.46306421898E+01  0.46306421898E+01  0.00000000000E+00 0. -1.
         -2   -1    0    0    0  501 -0.00000000000E+00 -0.00000000000E+00 -0.30430818130E+03  0.30430818130E+03  0.00000000000E+00 0.  1.
          1    1    1    2  502    0 -0.38028464556E+00 -0.22413310051E+02 -0.25935491593E+02  0.34280472693E+02  0.00000000000E+00 0. -1.
         -1    1    1    2    0  501  0.38028464556E+00  0.22413310051E+02 -0.27374204752E+03  0.27465835080E+03  0.00000000000E+00 0.  1.
</event>
<event>
 4    1  0.6629728E+001  0.2342411E+02  0.7546771E-02  0.1487240E+00
          2   -1    0    0  502    0  0.00000000000E+00  0.00000000000E+00  0.11068926938E+04  0.11068926938E+04  0.00000000000E+00 0. -1.
         -2   -1    0    0    0  501 -0.00000000000E+00 -0.00000000000E+00 -0.53010490164E+00  0.53010490164E+00  0.00000000000E+00 0.  1.
          1    1    1    2  502    0  0.19448431205E+02 -0.13055547788E+02  0.69424028219E+03  0.69463534190E+03  0.00000000000E+00 0. -1.
         -1    1    1    2    0  501 -0.19448431205E+02  0.13055547788E+02  0.41212230676E+03  0.41278745685E+03  0.00000000000E+00 0.  1.
</event>
<event>
 4    1  0.6629728E+001  0.1097748E+03  0.7546771E-02  0.1147868E+00
          2   -1    0    0  502    0  0.00000000000E+00  0.00000000000E+00  0.34032485427E+03  0.34032485427E+03  0.00000000000E+00 0.  1.
         -2   -1    0    0    0  501 -0.00000000000E+00 -0.00000000000E+00 -0.35540919514E+02  0.35540919514E+02  0.00000000000E+00 0. -1.
          1    1    1    2  502    0  0.49669780691E+02  0.97894964497E+02  0.14093572224E+03  0.17864318904E+03  0.00000000000E+00 0.  1.
         -1    1    1    2    0  501 -0.49669780691E+02 -0.97894964497E+02  0.16384821252E+03  0.19722258474E+03  0.00000000000E+00 0. -1.
</event>
<event>
 4    1  0.6629728E+001  0.2676879E+02  0.7546771E-02  0.1449945E+00
          2   -1    0    0  502    0  0.00000000000E+00  0.00000000000E+00  0.21881872313E+01  0.21881872313E+01  0.00000000000E+00 0.  1.
         -2   -1    0    0    0  501 -0.00000000000E+00 -0.00000000000E+00 -0.40406080231E+03  0.40406080231E+03  0.00000000000E+00 0. -1.
          1    1    1    2  502    0  0.12007020131E+02  0.23924873463E+02 -0.11250132424E+03  0.11564218978E+03  0.00000000000E+00 0.  1.
         -1    1    1    2    0  501 -0.12007020131E+02 -0.23924873463E+02 -0.28937129084E+03  0.29060679976E+03  0.00000000000E+00 0. -1.
</event>
<event>
 4    1  0.6629728E+001  0.2881105E+02  0.7546771E-02  0.1430217E+00
          2   -1    0    0  502    0  0.00000000000E+00  0.00000000000E+00  0.11118029244E+02  0.11118029244E+02  0.00000000000E+00 0. -1.
         -2   -1    0    0    0  501 -0.00000000000E+00 -0.00000000000E+00 -0.79524947171E+02  0.79524947171E+02  0.00000000000E+00 0.  1.
          1    1    1    2  502    0 -0.14090572728E+02 -0.25130310801E+02 -0.22994309177E+02  0.36862108124E+02  0.00000000000E+00 0. -1.
         -1    1    1    2    0  501  0.14090572728E+02  0.25130310801E+02 -0.45412608749E+02  0.53780868291E+02  0.00000000000E+00 0.  1.
</event>
<event>
 4    1  0.6629728E+001  0.2403189E+02  0.7546771E-02  0.1479932E+00
          2   -1    0    0  502    0  0.00000000000E+00  0.00000000000E+00  0.17983853071E+03  0.17983853071E+03  0.00000000000E+00 0. -1.
         -2   -1    0    0    0  501 -0.00000000000E+00 -0.00000000000E+00 -0.38151060647E+01  0.38151060647E+01  0.00000000000E+00 0.  1.
          1    1    1    2  502    0  0.24005775781E+02 -0.11199968072E+01  0.51483149472E+02  0.56815898684E+02  0.00000000000E+00 0. -1.
         -1    1    1    2    0  501 -0.24005775781E+02  0.11199968072E+01  0.12454027518E+03  0.12683773809E+03  0.00000000000E+00 0.  1.
</event>
<event>
 4    1  0.6629728E+001  0.2822695E+02  0.7546771E-02  0.1435658E+00
          2   -1    0    0  502    0  0.00000000000E+00  0.00000000000E+00  0.61947682540E+03  0.61947682540E+03  0.00000000000E+00 0.  1.
         -2   -1    0    0    0  501 -0.00000000000E+00 -0.00000000000E+00 -0.12892363112E+01  0.12892363112E+01  0.00000000000E+00 0. -1.
          1    1    1    2  502    0 -0.61276022486E+01  0.27553826390E+02  0.29399009918E+03  0.29534207163E+03  0.00000000000E+00 0. -1.
         -1    1    1    2    0  501  0.61276022486E+01 -0.27553826390E+02  0.32419748991E+03  0.32542399008E+03  0.00000000000E+00 0.  1.
</event>
<event>
 4    1  0.6629728E+001  0.3490955E+02  0.7546771E-02  0.1381200E+00
          2   -1    0    0  502    0  0.00000000000E+00  0.00000000000E+00  0.91760732815E+03  0.91760732815E+03  0.00000000000E+00 0.  1.
         -2   -1    0    0    0  501 -0.00000000000E+00 -0.00000000000E+00 -0.13317113073E+01  0.13317113073E+01  0.00000000000E+00 0. -1.
          1    1    1    2  502    0  0.18585335040E+02 -0.29551003320E+02  0.43421893212E+03  0.43561996911E+03  0.00000000000E+00 0. -1.
         -1    1    1    2    0  501 -0.18585335040E+02  0.29551003320E+02  0.48205668472E+03  0.48331907034E+03  0.00000000000E+00 0.  1.
</event>
<event>
 4    1  0.6629728E+001  0.2013517E+02  0.7546771E-02  0.1531979E+00
          2   -1    0    0  502    0  0.00000000000E+00  0.00000000000E+00  0.78890866851E+00  0.78890866851E+00  0.00000000000E+00 0.  1.
         -2   -1    0    0    0  501 -0.00000000000E+00 -0.00000000000E+00 -0.53140785045E+03  0.53140785045E+03  0.00000000000E+00 0. -1.
          1    1    1    2  502    0 -0.60759442645E+01  0.19196564924E+02 -0.21701855658E+03  0.21795063455E+03  0.00000000000E+00 0. -1.
         -1    1    1    2    0  501  0.60759442645E+01 -0.19196564924E+02 -0.31360038521E+03  0.31424612457E+03  0.00000000000E+00 0.  1.
</event>
<event>
 4    1  0.6629728E+001  0.2446134E+02  0.7546771E-02  0.1474920E+00
          2   -1    0    0  502    0  0.00000000000E+00  0.00000000000E+00  0.12073593890E+04  0.12073593890E+04  0.00000000000E+00 0.  1.
         -2   -1    0    0    0  501 -0.00000000000E+00 -0.00000000000E+00 -0.49782116951E+00  0.49782116951E+00  0.00000000000E+00 0. -1.
          1    1    1    2  502    0 -0.23708368194E+02 -0.60224995408E+01  0.56301460480E+03  0.56354574121E+03  0.00000000000E+00 0. -1.
         -1    1    1    2    0  501  0.23708368194E+02  0.60224995408E+01  0.64384696306E+03  0.64431146898E+03  0.00000000000E+00 0.  1.
</event>
<event>
 4    1  0.6629728E+001  0.3716063E+02  0.7546771E-02  0.1365979E+00
          2   -1    0    0  502    0  0.00000000000E+00  0.00000000000E+00  0.68561434211E+03  0.68561434211E+03  0.00000000000E+00 0.  1.
         -2   -1    0    0    0  501 -0.00000000000E+00 -0.00000000000E+00 -0.24936848410E+02  0.24936848410E+02  0.00000000000E+00 0. -1.
          1    1    1    2  502    0  0.70799023190E+01  0.36479956102E+02  0.67096468120E+03  0.67199294315E+03  0.00000000000E+00 0.  1.
         -1    1    1    2    0  501 -0.70799023190E+01 -0.36479956102E+02 -0.10287187502E+02  0.38558247377E+02  0.00000000000E+00 0. -1.
</event>
<event>
 4    1  0.6629728E+001  0.2051380E+02  0.7546771E-02  0.1526321E+00
          2   -1    0    0  502    0  0.00000000000E+00  0.00000000000E+00  0.16405783083E+03  0.16405783083E+03  0.00000000000E+00 0. -1.
         -2   -1    0    0    0  501 -0.00000000000E+00 -0.00000000000E+00 -0.29025380463E+01  0.29025380463E+01  0.00000000000E+00 0.  1.
          1    1    1    2  502    0 -0.44685628665E+01  0.20021189381E+02  0.52111712045E+02  0.56003987453E+02  0.00000000000E+00 0. -1.
         -1    1    1    2    0  501  0.44685628665E+01 -0.20021189381E+02  0.10904358073E+03  0.11095638142E+03  0.00000000000E+00 0.  1.
</event>
<event>
 4    1  0.6629728E+001  0.4372360E+02  0.7546771E-02  0.1327946E+00
          2   -1    0    0  502    0  0.00000000000E+00  0.00000000000E+00  0.83032945942E+03  0.83032945942E+03  0.00000000000E+00 0.  1.
         -2   -1    0    0    0  501 -0.00000000000E+00 -0.00000000000E+00 -0.27954579686E+01  0.27954579686E+01  0.00000000000E+00 0. -1.
          1    1    1    2  502    0  0.21028109170E+02 -0.38334990496E+02  0.58871194765E+03  0.59033338900E+03  0.00000000000E+00 0.  1.
         -1    1    1    2    0  501 -0.21028109170E+02  0.38334990496E+02  0.23882205380E+03  0.24279152838E+03  0.00000000000E+00 0. -1.
</event>
<event>
 4    1  0.6629728E+001  0.2013518E+02  0.7546771E-02  0.1531979E+00
          2   -1    0    0  502    0  0.00000000000E+00  0.00000000000E+00  0.50901679814E+02  0.50901679814E+02  0.00000000000E+00 0. -1.
         -2   -1    0    0    0  501 -0.00000000000E+00 -0.00000000000E+00 -0.80500389245E+01  0.80500389245E+01  0.00000000000E+00 0.  1.
          1    1    1    2  502    0 -0.11066217661E+02 -0.16821540602E+02  0.18394016580E+02  0.27272059832E+02  0.00000000000E+00 0. -1.
         -1    1    1    2    0  501  0.11066217661E+02  0.16821540602E+02  0.24457624310E+02  0.31679658907E+02  0.00000000000E+00 0.  1.
</event>
<event>
 4    1  0.6629728E+001  0.2776702E+02  0.7546771E-02  0.1440052E+00
          2   -1    0    0  502    0  0.00000000000E+00  0.00000000000E+00  0.84726352388E+03  0.84726352388E+03  0.00000000000E+00 0. -1.
         -2   -1    0    0    0  501 -0.00000000000E+00 -0.00000000000E+00 -0.93542538663E+00  0.93542538663E+00  0.00000000000E+00 0.  1.
          1    1    1    2  502    0  0.24326952626E+02  0.13386805063E+02  0.35324049765E+03  0.35433015163E+03  0.00000000000E+00 0.  1.
         -1    1    1    2    0  501 -0.24326952626E+02 -0.13386805063E+02  0.49308760084E+03  0.49386879763E+03  0.00000000000E+00 0. -1.
</event>
<event>
 4    1  0.6629728E+001  0.2562723E+02  0.7546771E-02  0.1461907E+00
          2   -1    0    0  502    0  0.00000000000E+00  0.00000000000E+00  0.10810506209E+04  0.10810506209E+04  0.00000000000E+00 0. -1.
         -2   -1    0    0    0  501 -0.00000000000E+00 -0.00000000000E+00 -0.75052130950E+00  0.75052130950E+00  0.00000000000E+00 0.  1.
          1    1    1    2  502    0 -0.20167073693E+02  0.15812785734E+02  0.30404096240E+03  0.30511909457E+03  0.00000000000E+00 0.  1.
         -1    1    1    2    0  501  0.20167073693E+02 -0.15812785734E+02  0.77625913715E+03  0.77668204760E+03  0.00000000000E+00 0. -1.
</event>
<event>
 4    1  0.6629728E+001  0.2842505E+02  0.7546771E-02  0.1433795E+00
          2   -1    0    0  502    0  0.00000000000E+00  0.00000000000E+00  0.15425289082E+03  0.15425289082E+03  0.00000000000E+00 0. -1.
         -2   -1    0    0    0  501 -0.00000000000E+00 -0.00000000000E+00 -0.55611267604E+01  0.55611267604E+01  0.00000000000E+00 0.  1.
          1    1    1    2  502    0  0.20823234969E+02  0.19348803442E+02  0.93606086435E+02  0.97826799635E+02  0.00000000000E+00 0. -1.
         -1    1    1    2    0  501 -0.20823234969E+02 -0.19348803442E+02  0.55085677622E+02  0.61987217942E+02  0.00000000000E+00 0.  1.
</event>
<event>
 4    1  0.6629728E+001  0.2507419E+02  0.7546771E-02  0.1467975E+00
          2   -1    0    0  502    0  0.00000000000E+00  0.00000000000E+00  0.48335739193E+00  0.48335739193E+00  0.00000000000E+00 0.  1.
         -2   -1    0    0    0  501 -0.00000000000E+00 -0.00000000000E+00 -0.13746694005E+04  0.13746694005E+04  0.00000000000E+00 0. -1.
          1    1    1    2  502    0  0.24136080920E+02 -0.67944380387E+01 -0.84656192211E+03  0.84693317491E+03  0.00000000000E+00 0.  1.
         -1    1    1    2    0  501 -0.24136080920E+02  0.67944380387E+01 -0.52762412103E+03  0.52821958302E+03  0.00000000000E+00 0. -1.
</event>
<event>
 4    1  0.6629728E+001  0.2131556E+02  0.7546771E-02  0.1514807E+00
          2   -1    0    0  502    0  0.00000000000E+00  0.00000000000E+00  0.54192962478E+03  0.54192962478E+03  0.00000000000E+00 0.  1.
         -2   -1    0    0    0  501 -0.00000000000E+00 -0.00000000000E+00 -0.83963065966E+00  0.83963065966E+00  0.00000000000E+00 0. -1.
          1    1    1    2  502    0 -0.12582190843E+02  0.17205859124E+02  0.26014981052E+03  0.26102160261E+03  0.00000000000E+00 0. -1.
         -1    1    1    2    0  501  0.12582190843E+02 -0.17205859124E+02  0.28094018360E+03  0.28174765283E+03  0.00000000000E+00 0.  1.
</event>
<event>
 4    1  0.6629728E+001  0.2057082E+02  0.7546771E-02  0.1525482E+00
          2   -1    0    0  502    0  0.00000000000E+00  0.00000000000E+00  0.15151568919E+04  0.15151568919E+04  0.00000000000E+00 0.  1.
         -2   -1    0    0    0  501 -0.00000000000E+00 -0.00000000000E+00 -0.27954176583E+00  0.27954176583E+00  0.00000000000E+00 0. -1.
          1    1    1    2  502    0  0.36705342040E+01 -0.20240695632E+02  0.73441509487E+03  0.73470313063E+03  0.00000000000E+00 0.  1.
         -1    1    1    2    0  501 -0.36705342040E+01  0.20240695632E+02  0.78046225526E+03  0.78073330304E+03  0.00000000000E+00 0. -1.
</event>
<event>
 4    1  0.6629728E+001  0.2392625E+02  0.7546771E-02  0.1481184E+00
          2   -1    0    0  502    0  0.00000000000E+00  0.00000000000E+00  0.66092748923E+01  0.66092748923E+01  0.00000000000E+00 0. -1.
         -2   -1    0    0    0  501 -0.00000000000E+00 -0.00000000000E+00 -0.12166464657E+03  0.12166464657E+03  0.00000000000E+00 0.  1.
          1    1    1    2  502    0 -0.22605025682E+02 -0.78408156277E+01 -0.23103397602E+02  0.33260074512E+02  0.00000000000E+00 0. -1.
         -1    1    1    2    0  501  0.22605025682E+02  0.78408156277E+01 -0.91951974073E+02  0.95013846947E+02  0.00000000000E+00 0.  1.
</event>
<event>
 4    1  0.6629728E+001  0.2195027E+02  0.7546771E-02  0.1506118E+00
          2   -1    0    0  502    0  0.00000000000E+00  0.00000000000E+00  0.81712068609E+03  0.81712068609E+03  0.00000000000E+00 0. -1.
         -2   -1    0    0    0  501 -0.00000000000E+00 -0.00000000000E+00 -0.59006753657E+00  0.59006753657E+00  0.00000000000E+00 0.  1.
          1    1    1    2  502    0 -0.15211604116E+02  0.15824715521E+02  0.41915224746E+03  0.41972660277E+03  0.00000000000E+00 0. -1.
         -1    1    1    2    0  501  0.15211604116E+02 -0.15824715521E+02  0.39737837109E+03  0.39798415086E+03  0.00000000000E+00 0.  1.
</event>
<event>
 4    1  0.6629728E+001  0.2109754E+02  0.7546771E-02  0.1517877E+00
          2   -1    0    0  502    0  0.00000000000E+00  0.00000000000E+00  0.14072788427E+02  0.14072788427E+02  0.00000000000E+00 0.  1.
         -2   -1    0    0    0  501 -0.00000000000E+00 -0.00000000000E+00 -0.35456300556E+02  0.35456300556E+02  0.00000000000E+00 0. -1.
          1    1    1    2  502    0  0.19921114952E+02 -0.69466130363E+01 -0.25552516042E+01  0.21251719092E+02  0.00000000000E+00 0.  1.
         -1    1    1    2    0  501 -0.19921114952E+02  0.69466130363E+01 -0.18828260524E+02  0.28277369891E+02  0.00000000000E+00 0. -1.
</event>
<event>
 4    1  0.6629728E+001  0.2937417E+02  0.7546771E-02  0.1425114E+00
          2   -1    0    0  502    0  0.00000000000E+00  0.00000000000E+00  0.15570481252E+02  0.15570481252E+02  0.00000000000E+00 0. -1.
         -2   -1    0    0    0  501 -0.00000000000E+00 -0.00000000000E+00 -0.60265689345E+02  0.60265689345E+02  0.00000000000E+00 0.  1.
          1    1    1    2  502    0 -0.20993682442E+02 -0.20545240847E+02 -0.33104903910E+02  0.44258064653E+02  0.00000000000E+00 0.  1.
         -1    1    1    2    0  501  0.20993682442E+02  0.20545240847E+02 -0.11590304183E+02  0.31578105944E+02  0.00000000000E+00 0. -1.
</event>
<event>
 4    1  0.6629728E+001  0.5123050E+02  0.7546771E-02  0.1292924E+00
          2   -1    0    0  502    0  0.00000000000E+00  0.00000000000E+00  0.10749406652E+03  0.10749406652E+03  0.00000000000E+00 0. -1.
         -2   -1    0    0    0  501 -0.00000000000E+00 -0.00000000000E+00 -0.33345880738E+02  0.33345880738E+02  0.00000000000E+00 0.  1.
          1    1    1    2  502    0  0.45663374376E+02 -0.23225432687E+02  0.73515907910E+02  0.89605542232E+02  0.00000000000E+00 0. -1.
         -1    1    1    2    0  501 -0.45663374376E+02  0.23225432687E+02  0.63227787024E+00  0.51234405024E+02  0.00000000000E+00 0.  1.
</event>
<event>
 4    1  0.6629728E+001  0.2502946E+02  0.7546771E-02  0.1468474E+00
          2   -1    0    0  502    0  0.00000000000E+00  0.00000000000E+00  0.28261187975E+03  0.28261187975E+03  0.00000000000E+00 0.  1.
         -2   -1    0    0    0  501 -0.00000000000E+00 -0.00000000000E+00 -0.25015598635E+01  0.25015598635E+01  0.00000000000E+00 0. -1.
          1    1    1    2  502    0  0.11490051133E+02  0.22236292897E+02  0.18815854507E+03  0.18981599532E+03  0.00000000000E+00 0.  1.
         -1    1    1    2    0  501 -0.11490051133E+02 -0.22236292897E+02  0.91951774820E+02  0.95297444296E+02  0.00000000000E+00 0. -1.
</event>
<event>
 4    1  0.6629728E+001  0.2316602E+02  0.7546771E-02  0.1490424E+00
          2   -1    0    0  502    0  0.00000000000E+00  0.00000000000E+00  0.23082146933E+04  0.23082146933E+04  0.00000000000E+00 0.  1.
         -2   -1    0    0    0  501 -0.00000000000E+00 -0.00000000000E+00 -0.24567946789E+00  0.24567946789E+00  0.00000000000E+00 0. -1.
          1    1    1    2  502    0 -0.13652713414E+02 -0.18715450353E+02  0.88666969020E+03  0.88697226799E+03  0.00000000000E+00 0. -1.
         -1    1    1    2    0  501  0.13652713414E+02  0.18715450353E+02  0.14212993236E+04  0.14214881048E+04  0.00000000000E+00 0.  1.
</event>
<event>
 4    1  0.6629728E+001  0.2876948E+02  0.7546771E-02  0.1430600E+00
          2   -1    0    0  502    0  0.00000000000E+00  0.00000000000E+00  0.29712446527E+01  0.29712446527E+01  0.00000000000E+00 0.  1.
         -2   -1    0    0    0  501 -0.00000000000E+00 -0.00000000000E+00 -0.32785489829E+03  0.32785489829E+03  0.00000000000E+00 0. -1.
          1    1    1    2  502    0  0.25561956823E+02 -0.13201120969E+02 -0.22657906058E+03  0.22839823538E+03  0.00000000000E+00 0. -1.
         -1    1    1    2    0  501 -0.25561956823E+02  0.13201120969E+02 -0.98304593055E+02  0.10242790756E+03  0.00000000000E+00 0.  1.
</event>
<event>
 4    1  0.6629728E+001  0.3000117E+02  0.7546771E-02  0.1419586E+00
          2   -1    0    0  502    0  0.00000000000E+00  0.00000000000E+00  0.99747914562E+03  0.99747914562E+03  0.00000000000E+00 0.  1.
         -2   -1    0    0    0  501 -0.00000000000E+00 -0.00000000000E+00 -0.96108650318E+00  0.96108650318E+00  0.00000000000E+00 0. -1.
          1    1    1    2  502    0 -0.14282295086E+02 -0.26383448484E+02  0.62167842454E+03  0.62240190701E+03  0.00000000000E+00 0.  1.
         -1    1    1    2    0  501  0.14282295086E+02  0.26383448484E+02  0.37483963458E+03  0.37603832512E+03  0.00000000000E+00 0. -1.
</event>
<event>
 4    1  0.6629728E+001  0.2814571E+02  0.7546771E-02  0.1436427E+00
          2   -1    0    0  502    0  0.00000000000E+00  0.00000000000E+00  0.46315468410E+03  0.46315468410E+03  0.00000000000E+00 0. -1.
         -2   -1    0    0    0  501 -0.00000000000E+00 -0.00000000000E+00 -0.17298305628E+01  0.17298305628E+01  0.00000000000E+00 0.  1.
          1    1    1    2  502    0 -0.43345519774E+01  0.27809938019E+02  0.20607890484E+03  0.20799205757E+03  0.00000000000E+00 0.  1.
         -1    1    1    2    0  501  0.43345519774E+01 -0.27809938019E+02  0.25534594869E+03  0.25689245709E+03  0.00000000000E+00 0. -1.
</event>
<event>
 4    1  0.6629728E+001  0.3815471E+02  0.7546771E-02  0.1359652E+00
          2   -1    0    0  502    0  0.00000000000E+00  0.00000000000E+00  0.19590891317E+04  0.19590891317E+04  0.00000000000E+00 0.  1.
         -2   -1    0    0    0  501 -0.00000000000E+00 -0.00000000000E+00 -0.74345622444E+00  0.74345622444E+00  0.00000000000E+00 0. -1.
          1    1    1    2  502    0 -0.23446590648E+02  0.30100480719E+02  0.10008911387E+04  0.10016181174E+04  0.00000000000E+00 0.  1.
         -1    1    1    2    0  501  0.23446590648E+02 -0.30100480719E+02  0.95745453679E+03  0.95821447055E+03  0.00000000000E+00 0. -1.
</event>
<event>
 4    1  0.6629728E+001  0.2694129E+02  0.7546771E-02  0.1448199E+00
          2   -1    0    0  502    0  0.00000000000E+00  0.00000000000E+00  0.55416368013E+03  0.55416368013E+03  0.00000000000E+00 0.  1.
         -2   -1    0    0    0  501 -0.00000000000E+00 -0.00000000000E+00 -0.20210203451E+01  0.20210203451E+01  0.00000000000E+00 0. -1.
          1    1    1    2  502    0 -0.25629845132E+02  0.83032693369E+01  0.44104380301E+03  0.44186589529E+03  0.00000000000E+00 0.  1.
         -1    1    1    2    0  501  0.25629845132E+02 -0.83032693369E+01  0.11109885677E+03  0.11431880518E+03  0.00000000000E+00 0. -1.
</event>
<event>
 4    1  0.6629728E+001  0.2077368E+02  0.7546771E-02  0.1522521E+00
          2   -1    0    0  502    0  0.00000000000E+00  0.00000000000E+00  0.12273532731E+04  0.12273532731E+04  0.00000000000E+00 0.  1.
         -2   -1    0    0    0  501 -0.00000000000E+00 -0.00000000000E+00 -0.22625162602E+01  0.22625162602E+01  0.00000000000E+00 0. -1.
          1    1    1    2  502    0 -0.87387836818E+01  0.18846208796E+02  0.47525638877E+02  0.51867449108E+02  0.00000000000E+00 0. -1.
         -1    1    1    2    0  501  0.87387836818E+01 -0.18846208796E+02  0.11775651180E+04  0.11777483403E+04  0.00000000000E+00 0.  1.
</event>
<event>
 4    1  0.6629728E+001  0.2274277E+02  0.7546771E-02  0.1495754E+00
          2   -1    0    0  502    0  0.00000000000E+00  0.00000000000E+00  0.53544450324E+02  0.53544450324E+02  0.00000000000E+00 0. -1.
         -2   -1    0    0    0  501 -0.00000000000E+00 -0.00000000000E+00 -0.40737553421E+02  0.40737553421E+02  0.00000000000E+00 0.  1.
          1    1    1    2  502    0  0.15725739338E+02  0.16429696106E+02  0.47577677686E+02  0.52733947375E+02  0.00000000000E+00 0. -1.
         -1    1    1    2    0  501 -0.15725739338E+02 -0.16429696106E+02 -0.34770780783E+02  0.41548056370E+02  0.00000000000E+00 0.  1.
</event>
<event>
 4    1  0.6629728E+001  0.2097932E+02  0.7546771E-02  0.1519560E+00
          2   -1    0    0  502    0  0.00000000000E+00  0.00000000000E+00  0.87726736593E+02  0.87726736593E+02  0.00000000000E+00 0. -1.
         -2   -1    0    0    0  501 -0.00000000000E+00 -0.00000000000E+00 -0.53829580502E+01  0.53829580502E+01  0.00000000000E+00 0.  1.
          1    1    1    2  502    0  0.18649664632E+02 -0.96084289115E+01  0.53309233244E+02  0.57288796864E+02  0.00000000000E+00 0.  1.
         -1    1    1    2    0  501 -0.18649664632E+02  0.96084289115E+01  0.29034545299E+02  0.35820897780E+02  0.00000000000E+00 0. -1.
</event>
<event>
 4    1  0.6629728E+001  0.2471305E+02  0.7546771E-02  0.1472039E+00
          2   -1    0    0  502    0  0.00000000000E+00  0.00000000000E+00  0.14618813965E+02  0.14618813965E+02  0.00000000000E+00 0.  1.
         -2   -1    0    0    0  501 -0.00000000000E+00 -0.00000000000E+00 -0.43240050201E+02  0.43240050201E+02  0.00000000000E+00 0. -1.
          1    1    1    2  502    0 -0.24672085154E+02 -0.14223051637E+01 -0.19631458857E+02  0.31561510019E+02  0.00000000000E+00 0. -1.
         -1    1    1    2    0  501  0.24672085154E+02  0.14223051637E+01 -0.89897773781E+01  0.26297354147E+02  0.00000000000E+00 0.  1.
</event>
<event>
 4    1  0.6629728E+001  0.2247242E+02  0.7546771E-02  0.1499231E+00
          2   -1    0    0  502    0  0.00000000000E+00  0.00000000000E+00  0.15149729203E+02  0.15149729203E+02  0.00000000000E+00 0.  1.
         -2   -1    0    0    0  501 -0.00000000000E+00 -0.00000000000E+00 -0.48419870610E+02  0.48419870610E+02  0.00000000000E+00 0. -1.
          1    1    1    2  502    0  0.22003225519E+02  0.45681235806E+01 -0.34376339470E+02  0.41069969584E+02  0.00000000000E+00 0. -1.
         -1    1    1    2    0  501 -0.22003225519E+02 -0.45681235806E+01  0.11061980634E+01  0.22499630229E+02  0.00000000000E+00 0.  1.
</event>
<event>
 4    1  0.6629728E+001  0.2380346E+02  0.7546771E-02  0.1482648E+00
          2   -1    0    0  502    0  0.00000000000E+00  0.00000000000E+00  0.21596642346E+03  0.21596642346E+03  0.00000000000E+00 0.  1.
         -2   -1    0    0    0  501 -0.00000000000E+00 -0.00000000000E+00 -0.27048443141E+01  0.27048443141E+01  0.00000000000E+00 0. -1.
          1    1    1    2  502    0  0.19519999301E+02  0.13622563892E+02  0.12558246347E+03  0.12781846404E+03  0.00000000000E+00 0. -1.
         -1    1    1    2    0  501 -0.19519999301E+02 -0.13622563892E+02  0.87679115678E+02  0.90852803731E+02  0.00000000000E+00 0.  1.
</event>
<event>
 4    1  0.6629728E+001  0.2269376E+02  0.7546771E-02  0.1496380E+00
          2   -1    0    0  502    0  0.00000000000E+00  0.00000000000E+00  0.43947803900E+01  0.43947803900E+01  0.00000000000E+00 0. -1.
         -2   -1    0    0    0  501 -0.00000000000E+00 -0.00000000000E+00 -0.11826019917E+03  0.11826019917E+03  0.00000000000E+00 0.  1.
          1    1    1    2  502    0  0.15994077652E+02 -0.16099572240E+02 -0.62777618508E+02  0.66753547710E+02  0.00000000000E+00 0.  1.
         -1    1    1    2    0  501 -0.15994077652E+02  0.16099572240E+02 -0.51087800269E+02  0.55901431847E+02  0.00000000000E+00 0. -1.
</event>
<event>
 4    1  0.6629728E+001  0.3830984E+02  0.7546771E-02  0.1358685E+00
          2   -1    0    0  502    0  0.00000000000E+00  0.00000000000E+00  0.11627557076E+03  0.11627557076E+03  0.00000000000E+00 0. -1.
         -2   -1    0    0    0  501 -0.00000000000E+00 -0.00000000000E+00 -0.13983100982E+02  0.13983100982E+02  0.00000000000E+00 0.  1.
          1    1    1    2  502    0 -0.37967384660E+02 -0.51109351187E+01  0.71465185559E+02  0.81085860067E+02  0.00000000000E+00 0. -1.
         -1    1    1    2    0  501  0.37967384660E+02  0.51109351187E+01  0.30827284218E+02  0.49172811675E+02  0.00000000000E+00 0.  1.
</event>
<event>
 4    1  0.6629728E+001  0.4145735E+02  0.7546771E-02  0.1340151E+00
          2   -1    0    0  502    0  0.00000000000E+00  0.00000000000E+00  0.11997109387E+04  0.11997109387E+04  0.00000000000E+00 0.  1.
         -2   -1    0    0    0  501 -0.00000000000E+00 -0.00000000000E+00 -0.14329117975E+01  0.14329117975E+01  0.00000000000E+00 0. -1.
          1    1    1    2  502    0  0.20819797473E+02  0.35850354417E+02  0.60792696152E+03  0.60933890604E+03  0.00000000000E+00 0. -1.
         -1    1    1    2    0  501 -0.20819797473E+02 -0.35850354417E+02  0.59035106535E+03  0.59180494441E+03  0.00000000000E+00 0.  1.
</event>
<event>
 4    1  0.6629728E+001  0.2660936E+02  0.7546771E-02  0.1451572E+00
          2   -1    0    0  502    0  0.00000000000E+00  0.00000000000E+00  0.37301362648E+03  0.37301362648E+03  0.00000000000E+00 0. -1.
         -2   -1    0    0    0  501 -0.00000000000E+00 -0.00000000000E+00 -0.24788502429E+01  0.24788502429E+01  0.00000000000E+00 0.  1.
          1    1    1    2  502    0 -0.91181406599E+01  0.24998349197E+02  0.27613307428E+03  0.27741220712E+03  0.00000000000E+00 0. -1.
         -1    1    1    2    0  501  0.91181406599E+01 -0.24998349197E+02  0.94401701962E+02  0.98080269601E+02  0.00000000000E+00 0.  1.
</event>
<event>
 4    1  0.6629728E+001  0.5137830E+02  0.7546771E-02  0.1292305E+00
          2   -1    0    0  502    0  0.00000000000E+00  0.00000000000E+00  0.96635184460E+03  0.96635184460E+03  0.00000000000E+00 0.  1.
         -2   -1    0    0    0  501 -0.00000000000E+00 -0.00000000000E+00 -0.30076383595E+01  0.30076383595E+01  0.00000000000E+00 0. -1.
          1    1    1    2  502    0  0.16359174147E+01 -0.51352249708E+02  0.33484990927E+03  0.33876864009E+03  0.00000000000E+00 0. -1.
         -1    1    1    2    0  501 -0.16359174147E+01  0.51352249708E+02  0.62849429698E+03  0.63059084287E+03  0.00000000000E+00 0.  1.
</event>
<event>
 4    1  0.6629728E+001  0.2662990E+02  0.7546771E-02  0.1451362E+00
          2   -1    0    0  502    0  0.00000000000E+00  0.00000000000E+00  0.34362147783E+03  0.34362147783E+03  0.00000000000E+00 0. -1.
         -2   -1    0    0    0  501 -0.00000000000E+00 -0.00000000000E+00 -0.22304598669E+01  0.22304598669E+01  0.00000000000E+00 0.  1.
          1    1    1    2  502    0 -0.20652744408E+02  0.16811179329E+02  0.21797068296E+03  0.21959137104E+03  0.00000000000E+00 0.  1.
         -1    1    1    2    0  501  0.20652744408E+02 -0.16811179329E+02  0.12342033500E+03  0.12626056666E+03  0.00000000000E+00 0. -1.
</event>
<event>
 4    1  0.6629728E+001  0.2534978E+02  0.7546771E-02  0.1464928E+00
          2   -1    0    0  502    0  0.00000000000E+00  0.00000000000E+00  0.22867893577E+04  0.22867893577E+04  0.00000000000E+00 0. -1.
         -2   -1    0    0    0  501 -0.00000000000E+00 -0.00000000000E+00 -0.34682888512E+00  0.34682888512E+00  0.00000000000E+00 0.  1.
          1    1    1    2  502    0 -0.21781122014E+02  0.12968958184E+02  0.64504965344E+03  0.64554757110E+03  0.00000000000E+00 0.  1.
         -1    1    1    2    0  501  0.21781122014E+02 -0.12968958184E+02  0.16413928754E+04  0.16415886155E+04  0.00000000000E+00 0. -1.
</event>
<event>
 4    1  0.6629728E+001  0.2641337E+02  0.7546771E-02  0.1453592E+00
          2   -1    0    0  502    0  0.00000000000E+00  0.00000000000E+00  0.77719097378E+02  0.77719097378E+02  0.00000000000E+00 0.  1.
         -2   -1    0    0    0  501 -0.00000000000E+00 -0.00000000000E+00 -0.90652515653E+01  0.90652515653E+01  0.00000000000E+00 0. -1.
          1    1    1    2  502    0  0.17890868896E+02  0.19431497127E+02  0.30039918566E+02  0.40000787216E+02  0.00000000000E+00 0. -1.
         -1    1    1    2    0  501 -0.17890868896E+02 -0.19431497127E+02  0.38613927246E+02  0.46783561727E+02  0.00000000000E+00 0.  1.
</event>
<event>
 4    1  0.6629728E+001  0.5058897E+02  0.7546771E-02  0.1295639E+00
          2   -1    0    0  502    0  0.00000000000E+00  0.00000000000E+00  0.36036269175E+02  0.36036269175E+02  0.00000000000E+00 0. -1.
         -2   -1    0    0    0  501 -0.00000000000E+00 -0.00000000000E+00 -0.90268161644E+02  0.90268161644E+02  0.00000000000E+00 0.  1.
          1    1    1    2  502    0 -0.30708453956E+02  0.40202423318E+02  0.20470506911E+01  0.50630370348E+02  0.00000000000E+00 0. -1.
         -1    1    1    2    0  501  0.30708453956E+02 -0.40202423318E+02 -0.56278943160E+02  0.75674060472E+02  0.00000000000E+00 0.  1.
</event>
<event>
 4    1  0.6629728E+001  0.2124834E+02  0.7546771E-02  0.1515749E+00
          2   -1    0    0  502    0  0.00000000000E+00  0.00000000000E+00  0.98599195216E+01  0.98599195216E+01  0.00000000000E+00 0.  1.
         -2   -1    0    0    0  501 -0.00000000000E+00 -0.00000000000E+00 -0.51335685555E+02  0.51335685555E+02  0.00000000000E+00 0. -1.
          1    1    1    2  502    0 -0.20396492319E+02 -0.59561042170E+01 -0.10681705974E+02  0.23782155472E+02  0.00000000000E+00 0.  1.
         -1    1    1    2    0  501  0.20396492319E+02  0.59561042170E+01 -0.30794060059E+02  0.37413449604E+02  0.00000000000E+00 0. -1.
</event>
<event>
 4    1  0.6629728E+001  0.2049328E+02  0.7546771E-02  0.1526624E+00
          2   -1    0    0  502    0  0.00000000000E+00  0.00000000000E+00  0.17256799519E+03  0.17256799519E+03  0.00000000000E+00 0.  1.
         -2   -1    0    0    0  501 -0.00000000000E+00 -0.00000000000E+00 -0.25620154327E+01  0.25620154327E+01  0.00000000000E+00 0. -1.
          1    1    1    2  502    0 -0.19012836674E+02  0.76476398399E+01  0.65404524468E+02  0.68539960421E+02  0.00000000000E+00 0. -1.
         -1    1    1    2    0  501  0.19012836674E+02 -0.76476398399E+01  0.10460145529E+03  0.10659005020E+03  0.00000000000E+00 0.  1.
</event>
<event>
 4    1  0.6629728E+001  0.2960298E+02  0.7546771E-02  0.1423078E+00
          2   -1    0    0  502    0  0.00000000000E+00  0.00000000000E+00  0.22617134638E+02  0.22617134638E+02  0.00000000000E+00 0.  1.
         -2   -1    0    0    0  501 -0.00000000000E+00 -0.00000000000E+00 -0.63932944665E+02  0.63932944665E+02  0.00000000000E+00 0. -1.
          1    1    1    2  502    0  0.28171484122E+02  0.90941796185E+01  0.65038521761E+01  0.30309020336E+02  0.00000000000E+00 0.  1.
         -1    1    1    2    0  501 -0.28171484122E+02 -0.90941796185E+01 -0.47819662203E+02  0.56241058968E+02  0.00000000000E+00 0. -1.
</event>
<event>
 4    1  0.6629728E+001  0.2171173E+02  0.7546771E-02  0.1509341E+00
          2   -1    0    0  502    0  0.00000000000E+00  0.00000000000E+00  0.11884717771E+01  0.11884717771E+01  0.00000000000E+00 0. -1.
         -2   -1    0    0    0  501 -0.00000000000E+00 -0.00000000000E+00 -0.52008813282E+03  0.52008813282E+03  0.00000000000E+00 0.  1.
          1    1    1    2  502    0  0.18654499251E+02  0.11108955860E+02 -0.38643014811E+03  0.38703960858E+03  0.00000000000E+00 0.  1.
         -1    1    1    2    0  501 -0.18654499251E+02 -0.11108955860E+02 -0.13246951293E+03  0.13423699602E+03  0.00000000000E+00 0. -1.
</event>
<event>
 4    1  0.6629728E+001  0.2384427E+02  0.7546771E-02  0.1482160E+00
          2   -1    0    0  502    0  0.00000000000E+00  0.00000000000E+00  0.21152181870E+04  0.21152181870E+04  0.00000000000E+00 0. -1.
         -2   -1    0    0    0  501 -0.00000000000E+00 -0.00000000000E+00 -0.34327260222E+00  0.34327260222E+00  0.00000000000E+00 0.  1.
          1    1    1    2  502    0  0.71502584018E+01 -0.22746933679E+02  0.15501616958E+04  0.15503450687E+04  0.00000000000E+00 0. -1.
         -1    1    1    2    0  501 -0.71502584018E+01  0.22746933679E+02  0.56471321864E+03  0.56521639085E+03  0.00000000000E+00 0.  1.
</event>
<event>
 4    1  0.6629728E+001  0.2503634E+02  0.7546771E-02  0.1468397E+00
          2   -1    0    0  502    0  0.00000000000E+00  0.00000000000E+00  0.83999978961E+03  0.83999978961E+03  0.00000000000E+00 0.  1.
         -2   -1    0    0    0  501 -0.00000000000E+00 -0.00000000000E+00 -0.76770604093E+00  0.76770604093E+00  0.00000000000E+00 0. -1.
          1    1    1    2  502    0  0.18057250018E+02  0.17342255181E+02  0.48995653842E+03  0.49059578844E+03  0.00000000000E+00 0.  1.
         -1    1    1    2    0  501 -0.18057250018E+02 -0.17342255181E+02  0.34927554515E+03  0.35017170722E+03  0.00000000000E+00 0. -1.
</event>
<event>
 4    1  0.6629728E+001  0.2670819E+02  0.7546771E-02  0.1450562E+00
          2   -1    0    0  502    0  0.00000000000E+00  0.00000000000E+00  0.49078808163E+01  0.49078808163E+01  0.00000000000E+00 0.  1.
         -2   -1    0    0    0  501 -0.00000000000E+00 -0.00000000000E+00 -0.16444009679E+03  0.16444009679E+03  0.00000000000E+00 0. -1.
          1    1    1    2  502    0 -0.21042144511E+01  0.26625165372E+02 -0.10862153130E+03  0.11185689166E+03  0.00000000000E+00 0.  1.
         -1    1    1    2    0  501  0.21042144511E+01 -0.26625165372E+02 -0.50910684674E+02  0.57491085949E+02  0.00000000000E+00 0. -1.
</event>
<event>
 4    1  0.6629728E+001  0.2954865E+02  0.7546771E-02  0.1423560E+00
          2   -1    0    0  502    0  0.00000000000E+00  0.00000000000E+00  0.45836196510E+02  0.45836196510E+02  0.00000000000E+00 0. -1.
         -2   -1    0    0    0  501 -0.00000000000E+00 -0.00000000000E+00 -0.24283119963E+02  0.24283119963E+02  0.00000000000E+00 0.  1.
          1    1    1    2  502    0 -0.22343735278E+02  0.19335988028E+02  0.27054012554E+02  0.40062982096E+02  0.00000000000E+00 0. -1.
         -1    1    1    2    0  501  0.22343735278E+02 -0.19335988028E+02 -0.55009360068E+01  0.30056334376E+02  0.00000000000E+00 0.  1.
</event>
<event>
 4    1  0.6629728E+001  0.3700193E+02  0.7546771E-02  0.1367010E+00
          2   -1    0    0  502    0  0.00000000000E+00  0.00000000000E+00  0.13885164175E+04  0.13885164175E+04  0.00000000000E+00 0. -1.
         -2   -1    0    0    0  501 -0.00000000000E+00 -0.00000000000E+00 -0.11556302945E+01  0.11556302945E+01  0.00000000000E+00 0.  1.
          1    1    1    2  502    0  0.44884617079E+01  0.36728691091E+02  0.95985330650E+03  0.96056624604E+03  0.00000000000E+00 0.  1.
         -1    1    1    2    0  501 -0.44884617079E+01 -0.36728691091E+02  0.42750748073E+03  0.42910580177E+03  0.00000000000E+00 0. -1.
</event>
<event>
 4    1  0.6629728E+001  0.2858786E+02  0.7546771E-02  0.1432278E+00
          2   -1    0    0  502    0  0.00000000000E+00  0.00000000000E+00  0.26904392456E+02  0.26904392456E+02  0.00000000000E+00 0. -1.
         -2   -1    0    0    0  501 -0.00000000000E+00 -0.00000000000E+00 -0.32936764077E+02  0.32936764077E+02  0.00000000000E+00 0.  1.
          1    1    1    2  502    0  0.10419121334E+02 -0.26621565318E+02  0.53255714791E+01  0.29079675736E+02  0.00000000000E+00 0. -1.
         -1    1    1    2    0  501 -0.10419121334E+02  0.26621565318E+02 -0.11357943101E+02  0.30761480797E+02  0.00000000000E+00 0.  1.
</event>
<event>
 4    1  0.6629728E+001  0.2141588E+02  0.7546771E-02  0.1513409E+00
          2   -1    0    0  502    0  0.00000000000E+00  0.00000000000E+00  0.77141593837E+01  0.77141593837E+01  0.00000000000E+00 0. -1.
         -2   -1    0    0    0  501 -0.00000000000E+00 -0.00000000000E+00 -0.99576358351E+02  0.99576358351E+02  0.00000000000E+00 0.  1.
          1    1    1    2  502    0  0.20845614084E+02 -0.49091891241E+01 -0.11878916710E+02  0.24489761669E+02  0.00000000000E+00 0. -1.
         -1    1    1    2    0  501 -0.20845614084E+02  0.49091891241E+01 -0.79983282257E+02  0.82800756065E+02  0.00000000000E+00 0.  1.
</event>
<event>
 4    1  0.6629728E+001  0.2726323E+02  0.7546771E-02  0.1444982E+00
          2   -1    0    0  502    0  0.00000000000E+00  0.00000000000E+00  0.36243510164E+02  0.36243510164E+02  0.00000000000E+00 0.  1.
         -2   -1    0    0    0  501 -0.00000000000E+00 -0.00000000000E+00 -0.29917361014E+02  0.29917361014E+02  0.00000000000E+00 0. -1.
          1    1    1    2  502    0 -0.10136477263E+02 -0.25308802110E+02  0.21714980925E+02  0.34854325873E+02  0.00000000000E+00 0.  1.
         -1    1    1    2    0  501  0.10136477263E+02  0.25308802110E+02 -0.15388831774E+02  0.31306545304E+02  0.00000000000E+00 0. -1.
</event>
<event>
 4    1  0.6629728E+001  0.3947521E+02  0.7546771E-02  0.1351589E+00
          2   -1    0    0  502    0  0.00000000000E+00  0.00000000000E+00  0.72345214159E+03  0.72345214159E+03  0.00000000000E+00 0. -1.
         -2   -1    0    0    0  501 -0.00000000000E+00 -0.00000000000E+00 -0.45647636275E+01  0.45647636275E+01  0.00000000000E+00 0.  1.
          1    1    1    2  502    0 -0.31692945652E+02  0.23534000793E+02  0.62397836843E+03  0.62522579622E+03  0.00000000000E+00 0. -1.
         -1    1    1    2    0  501  0.31692945652E+02 -0.23534000793E+02  0.94909009540E+02  0.10279110900E+03  0.00000000000E+00 0.  1.
</event>
<event>
 4    1  0.6629728E+001  0.2710108E+02  0.7546771E-02  0.1446595E+00
          2   -1    0    0  502    0  0.00000000000E+00  0.00000000000E+00  0.15100184898E+04  0.15100184898E+04  0.00000000000E+00 0. -1.
         -2   -1    0    0    0  501 -0.00000000000E+00 -0.00000000000E+00 -0.15202307888E+01  0.15202307888E+01  0.00000000000E+00 0.  1.
          1    1    1    2  502    0 -0.86669968533E+01  0.25677849752E+02  0.13774956077E+04  0.13777621777E+04  0.00000000000E+00 0. -1.
         -1    1    1    2    0  501  0.86669968533E+01 -0.25677849752E+02  0.13100265129E+03  0.13377654296E+03  0.00000000000E+00 0.  1.
</event>
<event>
 4    1  0.6629728E+001  0.2373551E+02  0.7546771E-02  0.1483463E+00
          2   -1    0    0  502    0  0.00000000000E+00  0.00000000000E+00  0.75977004243E+03  0.75977004243E+03  0.00000000000E+00 0. -1.
         -2   -1    0    0    0  501 -0.00000000000E+00 -0.00000000000E+00 -0.76569956020E+00  0.76569956020E+00  0.00000000000E+00 0.  1.
          1    1    1    2  502    0  0.23376716326E+02  0.41114007405E+01  0.44709570663E+03  0.44772530124E+03  0.00000000000E+00 0. -1.
         -1    1    1    2    0  501 -0.23376716326E+02 -0.41114007405E+01  0.31190863624E+03  0.31281044075E+03  0.00000000000E+00 0.  1.
</event>
<event>
 4    1  0.6629728E+001  0.2972906E+02  0.7546771E-02  0.1421966E+00
          2   -1    0    0  502    0  0.00000000000E+00  0.00000000000E+00  0.24951598086E+04  0.24951598086E+04  0.00000000000E+00 0.  1.
         -2   -1    0    0    0  501 -0.00000000000E+00 -0.00000000000E+00 -0.52599894601E+00  0.52599894601E+00  0.00000000000E+00 0. -1.
          1    1    1    2  502    0 -0.19382030700E+02  0.22542262884E+02  0.19604358206E+04  0.19606612209E+04  0.00000000000E+00 0. -1.
         -1    1    1    2    0  501  0.19382030700E+02 -0.22542262884E+02  0.53419798911E+03  0.53502458664E+03  0.00000000000E+00 0.  1.
</event>
<event>
 4    1  0.6629728E+001  0.2053725E+02  0.7546771E-02  0.1525975E+00
          2   -1    0    0  502    0  0.00000000000E+00  0.00000000000E+00  0.19120152049E+03  0.19120152049E+03  0.00000000000E+00 0.  1.
         -2   -1    0    0    0  501 -0.00000000000E+00 -0.00000000000E+00 -0.23999875617E+01  0.23999875617E+01  0.00000000000E+00 0. -1.
          1    1    1    2  502    0  0.12010456830E+02  0.16659155484E+02  0.66875499269E+02  0.69957922619E+02  0.00000000000E+00 0.  1.
         -1    1    1    2    0  501 -0.12010456830E+02 -0.16659155484E+02  0.12192603366E+03  0.12364358543E+03  0.00000000000E+00 0. -1.
</event>
<event>
 4    1  0.6629728E+001  0.2172395E+02  0.7546771E-02  0.1509175E+00
          2   -1    0    0  502    0  0.00000000000E+00  0.00000000000E+00  0.94821403861E+03  0.94821403861E+03  0.00000000000E+00 0. -1.
         -2   -1    0    0    0  501 -0.00000000000E+00 -0.00000000000E+00 -0.54828881152E+00  0.54828881152E+00  0.00000000000E+00 0.  1.
          1    1    1    2  502    0  0.59115803283E+01  0.20904141998E+02  0.32974323852E+03  0.33045806585E+03  0.00000000000E+00 0.  1.
         -1    1    1    2    0  501 -0.59115803283E+01 -0.20904141998E+02  0.61792251128E+03  0.61830426157E+03  0.00000000000E+00 0. -1.
</event>
<event>
 4    1  0.6629728E+001  0.2125338E+02  0.7546771E-02  0.1515678E+00
          2   -1    0    0  502    0  0.00000000000E+00  0.00000000000E+00  0.52229512347E+03  0.52229512347E+03  0.00000000000E+00 0. -1.
         -2   -1    0    0    0  501 -0.00000000000E+00 -0.00000000000E+00 -0.89015782001E+00  0.89015782001E+00  0.00000000000E+00 0.  1.
          1    1    1    2  502    0  0.11505090443E+02 -0.17870059939E+02  0.30481200458E+03  0.30555206477E+03  0.00000000000E+00 0. -1.
         -1    1    1    2    0  501 -0.11505090443E+02  0.17870059939E+02  0.21659296106E+03  0.21763321651E+03  0.00000000000E+00 0.  1.
</event>
<event>
 4    1  0.6629728E+001  0.2300317E+02  0.7546771E-02  0.1492458E+00
          2   -1    0    0  502    0  0.00000000000E+00  0.00000000000E+00  0.57775275794E+02  0.57775275794E+02  0.00000000000E+00 0. -1.
         -2   -1    0    0    0  501 -0.00000000000E+00 -0.00000000000E+00 -0.11238291479E+02  0.11238291479E+02  0.00000000000E+00 0.  1.
          1    1    1    2  502    0  0.16102167444E+02  0.16427603673E+02  0.38112260914E+02  0.44516181224E+02  0.00000000000E+00 0. -1.
         -1    1    1    2    0  501 -0.16102167444E+02 -0.16427603673E+02  0.84247234014E+01  0.24497386048E+02  0.00000000000E+00 0.  1.
</event>
<event>
 4    1  0.6629728E+001  0.3270852E+02  0.7546771E-02  0.1397431E+00
          2   -1    0    0  502    0  0.00000000000E+00  0.00000000000E+00  0.34857362627E+02  0.34857362627E+02  0.00000000000E+00 0.  1.
         -2   -1    0    0    0  501 -0.00000000000E+00 -0.00000000000E+00 -0.56611943144E+02  0.56611943144E+02  0.00000000000E+00 0. -1.
          1    1    1    2  502    0 -0.30285844902E+02  0.12353726464E+02  0.20068902656E+02  0.38374572477E+02  0.00000000000E+00 0.  1.
         -1    1    1    2    0  501  0.30285844902E+02 -0.12353726464E+02 -0.41823483172E+02  0.53094733295E+02  0.00000000000E+00 0. -1.
</event>
<event>
 4    1  0.6629728E+001  0.3413471E+02  0.7546771E-02  0.1386751E+00
          2   -1    0    0  502    0  0.00000000000E+00  0.00000000000E+00  0.11859150073E+04  0.11859150073E+04  0.00000000000E+00 0. -1.
         -2   -1    0    0    0  501 -0.00000000000E+00 -0.00000000000E+00 -0.12287813708E+01  0.12287813708E+01  0.00000000000E+00 0.  1.
          1    1    1    2  502    0  0.24225801242E+02 -0.24047645731E+02  0.32661408412E+03  0.32839296377E+03  0.00000000000E+00 0.  1.
         -1    1    1    2    0  501 -0.24225801242E+02  0.24047645731E+02  0.85807214179E+03  0.85875082487E+03  0.00000000000E+00 0. -1.
</event>
<event>
 4    1  0.6629728E+001  0.2493766E+02  0.7546771E-02  0.1469502E+00
          2   -1    0    0  502    0  0.00000000000E+00  0.00000000000E+00  0.57737481902E+03  0.57737481902E+03  0.00000000000E+00 0.  1.
         -2   -1    0    0    0  501 -0.00000000000E+00 -0.00000000000E+00 -0.11510010024E+01  0.11510010024E+01  0.00000000000E+00 0. -1.
          1    1    1    2  502    0  0.23207016370E+02  0.91280424672E+01  0.21481280996E+03  0.21625547413E+03  0.00000000000E+00 0. -1.
         -1    1    1    2    0  501 -0.23207016370E+02 -0.91280424672E+01  0.36141100805E+03  0.36227034589E+03  0.00000000000E+00 0.  1.
</event>
<event>
 4    1  0.6629728E+001  0.2495581E+02  0.7546771E-02  0.1469298E+00
          2   -1    0    0  502    0  0.00000000000E+00  0.00000000000E+00  0.98729825250E+02  0.98729825250E+02  0.00000000000E+00 0. -1.
         -2   -1    0    0    0  501 -0.00000000000E+00 -0.00000000000E+00 -0.94258592960E+01  0.94258592960E+01  0.00000000000E+00 0.  1.
          1    1    1    2  502    0 -0.19270347949E+02 -0.15857049128E+02  0.13550299005E+02  0.28397234377E+02  0.00000000000E+00 0.  1.
         -1    1    1    2    0  501  0.19270347949E+02  0.15857049128E+02  0.75753666948E+02  0.79758450168E+02  0.00000000000E+00 0. -1.
</event>
<event>
 4    1  0.6629728E+001  0.3801881E+02  0.7546771E-02  0.1360504E+00
          2   -1    0    0  502    0  0.00000000000E+00  0.00000000000E+00  0.95923789574E+03  0.95923789574E+03  0.00000000000E+00 0. -1.
         -2   -1    0    0    0  501 -0.00000000000E+00 -0.00000000000E+00 -0.16245663142E+01  0.16245663142E+01  0.00000000000E+00 0.  1.
          1    1    1    2  502    0 -0.28342035986E+02 -0.25340860603E+02  0.60812968644E+03  0.60931695016E+03  0.00000000000E+00 0.  1.
         -1    1    1    2    0  501  0.28342035986E+02  0.25340860603E+02  0.34948364299E+03  0.35154551190E+03  0.00000000000E+00 0. -1.
</event>
<event>
 4    1  0.6629728E+001  0.2543574E+02  0.7546771E-02  0.1463987E+00
          2   -1    0    0  502    0  0.00000000000E+00  0.00000000000E+00  0.21362009176E+03  0.21362009176E+03  0.00000000000E+00 0.  1.
         -2   -1    0    0    0  501 -0.00000000000E+00 -0.00000000000E+00 -0.13554361856E+02  0.13554361856E+02  0.00000000000E+00 0. -1.
          1    1    1    2  502    0 -0.23467501250E+02  0.98108778073E+01  0.20012870766E+03  0.20173863430E+03  0.00000000000E+00 0.  1.
         -1    1    1    2    0  501  0.23467501250E+02 -0.98108778073E+01 -0.62977755836E-01  0.25435819320E+02  0.00000000000E+00 0. -1.
</event>
<event>
 4    1  0.6629728E+001  0.2115210E+02  0.7546771E-02  0.1517104E+00
          2   -1    0    0  502    0  0.00000000000E+00  0.00000000000E+00  0.29914878681E+03  0.29914878681E+03  0.00000000000E+00 0. -1.
         -2   -1    0    0    0  501 -0.00000000000E+00 -0.00000000000E+00 -0.16590080398E+01  0.16590080398E+01  0.00000000000E+00 0.  1.
          1    1    1    2  502    0  0.48511063848E+01 -0.20588295096E+02  0.10154370613E+03  0.10372335987E+03  0.00000000000E+00 0.  1.
         -1    1    1    2    0  501 -0.48511063848E+01  0.20588295096E+02  0.19594607264E+03  0.19708443498E+03  0.00000000000E+00 0. -1.
</event>
<event>
 4    1  0.6629728E+001  0.2656296E+02  0.7546771E-02  0.1452048E+00
          2   -1    0    0  502    0  0.00000000000E+00  0.00000000000E+00  0.99805539292E+01  0.99805539292E+01  0.00000000000E+00 0. -1.
         -2   -1    0    0    0  501 -0.00000000000E+00 -0.00000000000E+00 -0.87238074234E+02  0.87238074234E+02  0.00000000000E+00 0.  1.
          1    1    1    2  502    0 -0.16729949391E+02 -0.20632491490E+02 -0.17462019848E+02  0.31788567896E+02  0.00000000000E+00 0. -1.
         -1    1    1    2    0  501  0.16729949391E+02  0.20632491490E+02 -0.59795500457E+02  0.65430060267E+02  0.00000000000E+00 0.  1.
</event>
<event>
 4    1  0.6629728E+001  0.3351775E+02  0.7546771E-02  0.1391294E+00
          2   -1    0    0  502    0  0.00000000000E+00  0.00000000000E+00  0.19211616125E+03  0.19211616125E+03  0.00000000000E+00 0.  1.
         -2   -1    0    0    0  501 -0.00000000000E+00 -0.00000000000E+00 -0.58557280053E+01  0.58557280053E+01  0.00000000000E+00 0. -1.
          1    1    1    2  502    0 -0.30311509111E+02 -0.14305656591E+02  0.89467150504E+02  0.95539575121E+02  0.00000000000E+00 0.  1.
         -1    1    1    2    0  501  0.30311509111E+02  0.14305656591E+02  0.96793282739E+02  0.10243231413E+03  0.00000000000E+00 0. -1.
</event>
<event>
 4    1  0.6629728E+001  0.2383841E+02  0.7546771E-02  0.1482230E+00
          2   -1    0    0  502    0  0.00000000000E+00  0.00000000000E+00  0.13605182973E+04  0.13605182973E+04  0.00000000000E+00 0.  1.
         -2   -1    0    0    0  501 -0.00000000000E+00 -0.00000000000E+00 -0.50989418891E+00  0.50989418891E+00  0.00000000000E+00 0. -1.
          1    1    1    2  502    0  0.13499409188E+02  0.19647787728E+02  0.39061551172E+03  0.39134223847E+03  0.00000000000E+00 0. -1.
         -1    1    1    2    0  501 -0.13499409188E+02 -0.19647787728E+02  0.96939289136E+03  0.96968595299E+03  0.00000000000E+00 0.  1.
</event>
<event>
 4    1  0.6629728E+001  0.2659576E+02  0.7546771E-02  0.1451712E+00
          2   -1    0    0  502    0  0.00000000000E+00  0.00000000000E+00  0.46358736605E+01  0.46358736605E+01  0.00000000000E+00 0. -1.
         -2   -1    0    0    0  501 -0.00000000000E+00 -0.00000000000E+00 -0.17281611417E+03  0.17281611417E+03  0.00000000000E+00 0.  1.
          1    1    1    2  502    0 -0.14772920152E+02  0.22115492957E+02 -0.11445275494E+03  0.11750220131E+03  0.00000000000E+00 0.  1.
         -1    1    1    2    0  501  0.14772920152E+02 -0.22115492957E+02 -0.53727485561E+02  0.59949786515E+02  0.00000000000E+00 0. -1.
</event>
<event>
 4    1  0.6629728E+001  0.2072593E+02  0.7546771E-02  0.1523214E+00
          2   -1    0    0  502    0  0.00000000000E+00  0.00000000000E+00  0.11596007695E+04  0.11596007695E+04  0.00000000000E+00 0. -1.
         -2   -1    0    0    0  501 -0.00000000000E+00 -0.00000000000E+00 -0.38048404128E+00  0.38048404128E+00  0.00000000000E+00 0.  1.
          1    1    1    2  502    0 -0.19802265906E+02 -0.61183528282E+01  0.48538221532E+03  0.48582451453E+03  0.00000000000E+00 0.  1.
         -1    1    1    2    0  501  0.19802265906E+02  0.61183528282E+01  0.67383807017E+03  0.67415673904E+03  0.00000000000E+00 0. -1.
</event>
<event>
 4    1  0.6629728E+001  0.2293706E+02  0.7546771E-02  0.1493290E+00
          2   -1    0    0  502    0  0.00000000000E+00  0.00000000000E+00  0.36039095747E+02  0.36039095747E+02  0.00000000000E+00 0.  1.
         -2   -1    0    0    0  501 -0.00000000000E+00 -0.00000000000E+00 -0.22043555178E+02  0.22043555178E+02  0.00000000000E+00 0. -1.
          1    1    1    2  502    0 -0.22780689311E+01 -0.22823650938E+02 -0.98800411125E+01  0.24974464010E+02  0.00000000000E+00 0. -1.
         -1    1    1    2    0  501  0.22780689311E+01  0.22823650938E+02  0.23875581682E+02  0.33108186916E+02  0.00000000000E+00 0.  1.
</event>
<event>
 4    1  0.6629728E+001  0.2512342E+02  0.7546771E-02  0.1467427E+00
          2   -1    0    0  502    0  0.00000000000E+00  0.00000000000E+00  0.79468583252E+00  0.79468583252E+00  0.00000000000E+00 0. -1.
         -2   -1    0    0    0  501 -0.00000000000E+00 -0.00000000000E+00 -0.82589927206E+03  0.82589927206E+03  0.00000000000E+00 0.  1.
          1    1    1    2  502    0  0.16180743422E+02 -0.19219001398E+02 -0.49345638474E+03  0.49409552731E+03  0.00000000000E+00 0. -1.
         -1    1    1    2    0  501 -0.16180743422E+02  0.19219001398E+02 -0.33164820149E+03  0.33259843058E+03  0.00000000000E+00 0.  1.
</event>
<event>
 4    1  0.6629728E+001  0.2126333E+02  0.7546771E-02  0.1515538E+00
          2   -1    0    0  502    0  0.00000000000E+00  0.00000000000E+00  0.20619524270E+03  0.20619524270E+03  0.00000000000E+00 0. -1.
         -2   -1    0    0    0  501 -0.00000000000E+00 -0.00000000000E+00 -0.36157923341E+01  0.36157923341E+01  0.00000000000E+00 0.  1.
          1    1    1    2  502    0 -0.15692558498E+02 -0.14348269322E+02  0.16710239245E+03  0.16844981088E+03  0.00000000000E+00 0. -1.
         -1    1    1    2    0  501  0.15692558498E+02  0.14348269322E+02  0.35477057917E+02  0.41361224150E+02  0.00000000000E+00 0.  1.
</event>
<event>
 4    1  0.6629728E+001  0.2021082E+02  0.7546771E-02  0.1530837E+00
          2   -1    0    0  502    0  0.00000000000E+00  0.00000000000E+00  0.10566471348E+03  0.10566471348E+03  0.00000000000E+00 0. -1.
         -2   -1    0    0    0  501 -0.00000000000E+00 -0.00000000000E+00 -0.40051671922E+01  0.40051671922E+01  0.00000000000E+00 0.  1.
          1    1    1    2  502    0  0.19813197772E+02 -0.39892800580E+01  0.61059152077E+02  0.64317161114E+02  0.00000000000E+00 0. -1.
         -1    1    1    2    0  501 -0.19813197772E+02  0.39892800580E+01  0.40600394212E+02  0.45352719560E+02  0.00000000000E+00 0.  1.
</event>
<event>
 4    1  0.6629728E+001  0.3462714E+02  0.7546771E-02  0.1383204E+00
          2   -1    0    0  502    0  0.00000000000E+00  0.00000000000E+00  0.15119076337E+02  0.15119076337E+02  0.00000000000E+00 0.  1.
         -2   -1    0    0    0  501 -0.00000000000E+00 -0.00000000000E+00 -0.86764394930E+02  0.86764394930E+02  0.00000000000E+00 0. -1.
          1    1    1    2  502    0 -0.13623460467E+02 -0.31834579346E+02 -0.20887330924E+02  0.40439086418E+02  0.00000000000E+00 0.  1.
         -1    1    1    2    0  501  0.13623460467E+02  0.31834579346E+02 -0.50757987669E+02  0.61444384849E+02  0.00000000000E+00 0. -1.
</event>
<event>
 4    1  0.6629728E+001  0.3689927E+02  0.7546771E-02  0.1367681E+00
          2   -1    0    0  502    0  0.00000000000E+00  0.00000000000E+00  0.15171318626E+04  0.15171318626E+04  0.00000000000E+00 0.  1.
         -2   -1    0    0    0  501 -0.00000000000E+00 -0.00000000000E+00 -0.93791002845E+00  0.93791002845E+00  0.00000000000E+00 0. -1.
          1    1    1    2  502    0 -0.10769017200E+02  0.35292838861E+02  0.60045486313E+03  0.60158756541E+03  0.00000000000E+00 0. -1.
         -1    1    1    2    0  501  0.10769017200E+02 -0.35292838861E+02  0.91573908946E+03  0.91648220723E+03  0.00000000000E+00 0.  1.
</event>
<event>
 4    1  0.6629728E+001  0.2012930E+02  0.7546771E-02  0.1532068E+00
          2   -1    0    0  502    0  0.00000000000E+00  0.00000000000E+00  0.48139525007E+02  0.48139525007E+02  0.00000000000E+00 0. -1.
         -2   -1    0    0    0  501 -0.00000000000E+00 -0.00000000000E+00 -0.17639949134E+02  0.17639949134E+02  0.00000000000E+00 0.  1.
          1    1    1    2  502    0 -0.20120562101E+02  0.59309970733E+00 -0.85321600213E+01  0.21862903311E+02  0.00000000000E+00 0.  1.
         -1    1    1    2    0  501  0.20120562101E+02 -0.59309970733E+00  0.39031735894E+02  0.43916570830E+02  0.00000000000E+00 0. -1.
</event>
<event>
 4    1  0.6629728E+001  0.2100101E+02  0.7546771E-02  0.1519250E+00
          2   -1    0    0  502    0  0.00000000000E+00  0.00000000000E+00  0.17102307451E+04  0.17102307451E+04  0.00000000000E+00 0. -1.
         -2   -1    0    0    0  501 -0.00000000000E+00 -0.00000000000E+00 -0.26582003322E+00  0.26582003322E+00  0.00000000000E+00 0.  1.
          1    1    1    2  502    0 -0.20109379101E+02  0.60543746516E+01  0.70721557047E+03  0.70752731798E+03  0.00000000000E+00 0. -1.
         -1    1    1    2    0  501  0.20109379101E+02 -0.60543746516E+01  0.10027493546E+04  0.10029692471E+04  0.00000000000E+00 0.  1.
</event>
<event>
 4    1  0.6629728E+001  0.2480052E+02  0.7546771E-02  0.1471047E+00
          2   -1    0    0  502    0  0.00000000000E+00  0.00000000000E+00  0.13259371610E+01  0.13259371610E+01  0.00000000000E+00 0.  1.
         -2   -1    0    0    0  501 -0.00000000000E+00 -0.00000000000E+00 -0.47023239240E+03  0.47023239240E+03  0.00000000000E+00 0. -1.
          1    1    1    2  502    0 -0.55008841715E+01  0.24182761085E+02 -0.26187384734E+03  0.26304558081E+03  0.00000000000E+00 0. -1.
         -1    1    1    2    0  501  0.55008841715E+01 -0.24182761085E+02 -0.20703260789E+03  0.20851274875E+03  0.00000000000E+00 0.  1.
</event>
<event>
 4    1  0.6629728E+001  0.2958363E+02  0.7546771E-02  0.1423250E+00
          2   -1    0    0  502    0  0.00000000000E+00  0.00000000000E+00  0.22082277454E+03  0.22082277454E+03  0.00000000000E+00 0. -1.
         -2   -1    0    0    0  501 -0.00000000000E+00 -0.00000000000E+00 -0.40734816210E+01  0.40734816210E+01  0.00000000000E+00 0.  1.
          1    1    1    2  502    0  0.17013293711E+02 -0.24202043031E+02  0.12686677528E+03  0.13027037161E+03  0.00000000000E+00 0. -1.
         -1    1    1    2    0  501 -0.17013293711E+02  0.24202043031E+02  0.89882517642E+02  0.94625884553E+02  0.00000000000E+00 0.  1.
</event>
<event>
 4    1  0.6629728E+001  0.2534254E+02  0.7546771E-02  0.1465008E+00
          2   -1    0    0  502    0  0.00000000000E+00  0.00000000000E+00  0.53166962962E+03  0.53166962962E+03  0.00000000000E+00 0. -1.
         -2   -1    0    0    0  501 -0.00000000000E+00 -0.00000000000E+00 -0.12121532474E+01  0.12121532474E+01  0.00000000000E+00 0.  1.
          1    1    1    2  502    0  0.98934965001E+01  0.23331591490E+02  0.24958863387E+03  0.25087194062E+03  0.00000000000E+00 0.  1.
         -1    1    1    2    0  501 -0.98934965001E+01 -0.23331591490E+02  0.28086884250E+03  0.28200984224E+03  0.00000000000E+00 0. -1.
</event>
<event>
 4    1  0.6629728E+001  0.2167860E+02  0.7546771E-02  0.1509793E+00
          2   -1    0    0  502    0  0.00000000000E+00  0.00000000000E+00  0.21437439272E+03  0.21437439272E+03  0.00000000000E+00 0.  1.
         -2   -1    0    0    0  501 -0.00000000000E+00 -0.00000000000E+00 -0.24601077406E+01  0.24601077406E+01  0.00000000000E+00 0. -1.
          1    1    1    2  502    0  0.20511607808E+02  0.70167992096E+01  0.70182425252E+02  0.73454301033E+02  0.00000000000E+00 0.  1.
         -1    1    1    2    0  501 -0.20511607808E+02 -0.70167992096E+01  0.14173185972E+03  0.14338019942E+03  0.00000000000E+00 0. -1.
</event>
<event>
 4    1  0.6629728E+001  0.2347859E+02  0.7546771E-02  0.1486574E+00
          2   -1    0    0  502    0  0.00000000000E+00  0.00000000000E+00  0.21846636678E+04  0.21846636678E+04  0.00000000000E+00 0.  1.
         -2   -1    0    0    0  501 -0.00000000000E+00 -0.00000000000E+00 -0.28265538219E+00  0.28265538219E+00  0.00000000000E+00 0. -1.
          1    1    1    2  502    0 -0.10736030508E+02 -0.20880181650E+02  0.14500595342E+04  0.14502495982E+04  0.00000000000E+00 0. -1.
         -1    1    1    2    0  501  0.10736030508E+02  0.20880181650E+02  0.73432147827E+03  0.73469672504E+03  0.00000000000E+00 0.  1.
</event>
<event>
 4    1  0.6629728E+001  0.2402257E+02  0.7546771E-02  0.1480042E+00
          2   -1    0    0  502    0  0.00000000000E+00  0.00000000000E+00  0.80411424191E+02  0.80411424191E+02  0.00000000000E+00 0. -1.
         -2   -1    0    0    0  501 -0.00000000000E+00 -0.00000000000E+00 -0.75685432428E+01  0.75685432428E+01  0.00000000000E+00 0.  1.
          1    1    1    2  502    0 -0.58881170079E+01 -0.23289779649E+02  0.26411357687E+02  0.35702150816E+02  0.00000000000E+00 0. -1.
         -1    1    1    2    0  501  0.58881170079E+01  0.23289779649E+02  0.46431523261E+02  0.52277816618E+02  0.00000000000E+00 0.  1.
</event>
<event>
 4    1  0.6629728E+001  0.3081231E+02  0.7546771E-02  0.1412666E+00
          2   -1    0    0  502    0  0.00000000000E+00  0.00000000000E+00  0.78402175786E+01  0.78402175786E+01  0.00000000000E+00 0.  1.
         -2   -1    0    0    0  501 -0.00000000000E+00 -0.00000000000E+00 -0.20114669810E+03  0.20114669810E+03  0.00000000000E+00 0. -1.
          1    1    1    2  502    0  0.10965255819E+02  0.28795165952E+02 -0.30732462033E+02  0.43518761931E+02  0.00000000000E+00 0.  1.
         -1    1    1    2    0  501 -0.10965255819E+02 -0.28795165952E+02 -0.16257401849E+03  0.16546815375E+03  0.00000000000E+00 0. -1.
</event>
<event>
 4    1  0.6629728E+001  0.1291325E+03  0.7546771E-02  0.1121157E+00
          2   -1    0    0  502    0  0.00000000000E+00  0.00000000000E+00  0.42948495454E+03  0.42948495454E+03  0.00000000000E+00 0.  1.
         -2   -1    0    0    0  501 -0.00000000000E+00 -0.00000000000E+00 -0.50127759352E+02  0.50127759352E+02  0.00000000000E+00 0. -1.
          1    1    1    2  502    0  0.30454945161E+02  0.12548984078E+03  0.30354448483E+03  0.32987036559E+03  0.00000000000E+00 0.  1.
         -1    1    1    2    0  501 -0.30454945161E+02 -0.12548984078E+03  0.75812710359E+02  0.14974234830E+03  0.00000000000E+00 0. -1.
</event>
<event>
 4    1  0.6629728E+001  0.2584265E+02  0.7546771E-02  0.1459593E+00
          2   -1    0    0  502    0  0.00000000000E+00  0.00000000000E+00  0.26578607261E+04  0.26578607261E+04  0.00000000000E+00 0.  1.
         -2   -1    0    0    0  501 -0.00000000000E+00 -0.00000000000E+00 -0.25178810936E+00  0.25178810936E+00  0.00000000000E+00 0. -1.
          1    1    1    2  502    0  0.36393025934E+01  0.25585117598E+02  0.13890472322E+04  0.13892876074E+04  0.00000000000E+00 0.  1.
         -1    1    1    2    0  501 -0.36393025934E+01 -0.25585117598E+02  0.12685617058E+04  0.12688249068E+04  0.00000000000E+00 0. -1.
</event>
<event>
 4    1  0.6629728E+001  0.2344950E+02  0.7546771E-02  0.1486930E+00
          2   -1    0    0  502    0  0.00000000000E+00  0.00000000000E+00  0.64902685760E+02  0.64902685760E+02  0.00000000000E+00 0. -1.
         -2   -1    0    0    0  501 -0.00000000000E+00 -0.00000000000E+00 -0.85980164499E+01  0.85980164499E+01  0.00000000000E+00 0.  1.
          1    1    1    2  502    0 -0.23271602320E+02  0.28829776306E+01  0.32595082503E+02  0.40153685235E+02  0.00000000000E+00 0.  1.
         -1    1    1    2    0  501  0.23271602320E+02 -0.28829776306E+01  0.23709586806E+02  0.33347016974E+02  0.00000000000E+00 0. -1.
</event>
<event>
 4    1  0.6629728E+001  0.2131172E+02  0.7546771E-02  0.1514860E+00
          2   -1    0    0  502    0  0.00000000000E+00  0.00000000000E+00  0.54490502329E+03  0.54490502329E+03  0.00000000000E+00 0.  1.
         -2   -1    0    0    0  501 -0.00000000000E+00 -0.00000000000E+00 -0.10778367500E+01  0.10778367500E+01  0.00000000000E+00 0. -1.
          1    1    1    2  502    0  0.21257089123E+02  0.15250300412E+01  0.40188523952E+03  0.40244991651E+03  0.00000000000E+00 0.  1.
         -1    1    1    2    0  501 -0.21257089123E+02 -0.15250300412E+01  0.14194194702E+03  0.14353294353E+03  0.00000000000E+00 0. -1.
</event>
<event>
 4    1  0.6629728E+001  0.3226223E+02  0.7546771E-02  0.1400905E+00
          2   -1    0    0  502    0  0.00000000000E+00  0.00000000000E+00  0.58900768033E+03  0.58900768033E+03  0.00000000000E+00 0. -1.
         -2   -1    0    0    0  501 -0.00000000000E+00 -0.00000000000E+00 -0.17676276926E+01  0.17676276926E+01  0.00000000000E+00 0.  1.
          1    1    1    2  502    0  0.73767806355E+00  0.32253795945E+02  0.29859023359E+03  0.30032811909E+03  0.00000000000E+00 0. -1.
         -1    1    1    2    0  501 -0.73767806355E+00 -0.32253795945E+02  0.28864981905E+03  0.29044718893E+03  0.00000000000E+00 0.  1.
</event>
<event>
 4    1  0.6629728E+001  0.2132400E+02  0.7546771E-02  0.1514689E+00
          2   -1    0    0  502    0  0.00000000000E+00  0.00000000000E+00  0.20790427055E+03  0.20790427055E+03  0.00000000000E+00 0.  1.
         -2   -1    0    0    0  501 -0.00000000000E+00 -0.00000000000E+00 -0.23269967466E+01  0.23269967466E+01  0.00000000000E+00 0. -1.
          1    1    1    2  502    0 -0.12535615305E+02  0.17250260384E+02  0.77017674330E+02  0.79915175615E+02  0.00000000000E+00 0.  1.
         -1    1    1    2    0  501  0.12535615305E+02 -0.17250260384E+02  0.12855959947E+03  0.13031609168E+03  0.00000000000E+00 0. -1.
</event>
<event>
 4    1  0.6629728E+001  0.2105675E+02  0.7546771E-02  0.1518456E+00
          2   -1    0    0  502    0  0.00000000000E+00  0.00000000000E+00  0.27876724496E+02  0.27876724496E+02  0.00000000000E+00 0.  1.
         -2   -1    0    0    0  501 -0.00000000000E+00 -0.00000000000E+00 -0.18465842252E+02  0.18465842252E+02  0.00000000000E+00 0. -1.
          1    1    1    2  502    0 -0.16993274318E+02  0.12434433562E+02 -0.39230532098E+01  0.21419076930E+02  0.00000000000E+00 0. -1.
         -1    1    1    2    0  501  0.16993274318E+02 -0.12434433562E+02  0.13333935454E+02  0.24923489819E+02  0.00000000000E+00 0.  1.
</event>
<event>
 4    1  0.6629728E+001  0.2658860E+02  0.7546771E-02  0.1451785E+00
          2   -1    0    0  502    0  0.00000000000E+00  0.00000000000E+00  0.70289103118E+03  0.70289103118E+03  0.00000000000E+00 0. -1.
         -2   -1    0    0    0  501 -0.00000000000E+00 -0.00000000000E+00 -0.15975175240E+01  0.15975175240E+01  0.00000000000E+00 0.  1.
          1    1    1    2  502    0 -0.19191048652E+02  0.18402650852E+02  0.13626610069E+03  0.13883588911E+03  0.00000000000E+00 0.  1.
         -1    1    1    2    0  501  0.19191048652E+02 -0.18402650852E+02  0.56502741296E+03  0.56565265960E+03  0.00000000000E+00 0. -1.
</event>
<event>
 4    1  0.6629728E+001  0.3060442E+02  0.7546771E-02  0.1414415E+00
          2   -1    0    0  502    0  0.00000000000E+00  0.00000000000E+00  0.27769129151E+03  0.27769129151E+03  0.00000000000E+00 0. -1.
         -2   -1    0    0    0  501 -0.00000000000E+00 -0.00000000000E+00 -0.37485483580E+01  0.37485483580E+01  0.00000000000E+00 0.  1.
          1    1    1    2  502    0  0.18330408758E+02  0.24507681399E+02  0.92425898318E+02  0.97361065179E+02  0.00000000000E+00 0.  1.
         -1    1    1    2    0  501 -0.18330408758E+02 -0.24507681399E+02  0.18151684484E+03  0.18407877469E+03  0.00000000000E+00 0. -1.
</event>
<event>
 4    1  0.6629728E+001  0.4900970E+02  0.7546771E-02  0.1302524E+00
          2   -1    0    0  502    0  0.00000000000E+00  0.00000000000E+00  0.18631408554E+02  0.18631408554E+02  0.00000000000E+00 0. -1.
         -2   -1    0    0    0  501 -0.00000000000E+00 -0.00000000000E+00 -0.16003442318E+03  0.16003442318E+03  0.00000000000E+00 0.  1.
          1    1    1    2  502    0  0.23716001445E+02 -0.42889420339E+02 -0.31311191602E+02  0.58157904201E+02  0.00000000000E+00 0. -1.
         -1    1    1    2    0  501 -0.23716001445E+02  0.42889420339E+02 -0.11009182302E+03  0.12050792753E+03  0.00000000000E+00 0.  1.
</event>
<event>
 4    1  0.6629728E+001  0.2401913E+02  0.7546771E-02  0.1480083E+00
          2   -1    0    0  502    0  0.00000000000E+00  0.00000000000E+00  0.21791328428E+02  0.21791328428E+02  0.00000000000E+00 0.  1.
         -2   -1    0    0    0  501 -0.00000000000E+00 -0.00000000000E+00 -0.33835996471E+02  0.33835996471E+02  0.00000000000E+00 0. -1.
          1    1    1    2  502    0 -0.21368783540E+02  0.10967853627E+02 -0.18995502695E+02  0.30622668822E+02  0.00000000000E+00 0.  1.
         -1    1    1    2    0  501  0.21368783540E+02 -0.10967853627E+02  0.69508346521E+01  0.25004656077E+02  0.00000000000E+00 0. -1.
</event>
<event>
 4    1  0.6629728E+001  0.3458069E+02  0.7546771E-02  0.1383535E+00
          2   -1    0    0  502    0  0.00000000000E+00  0.00000000000E+00  0.96562984284E+01  0.96562984284E+01  0.00000000000E+00 0.  1.
         -2   -1    0    0    0  501 -0.00000000000E+00 -0.00000000000E+00 -0.22627766559E+03  0.22627766559E+03  0.00000000000E+00 0. -1.
          1    1    1    2  502    0  0.90113668263E+01  0.33385914849E+02 -0.18768355374E+03  0.19084271112E+03  0.00000000000E+00 0. -1.
         -1    1    1    2    0  501 -0.90113668263E+01 -0.33385914849E+02 -0.28937813417E+02  0.45091252896E+02  0.00000000000E+00 0.  1.
</event>
<event>
 4    1  0.6629728E+001  0.2065275E+02  0.7546771E-02  0.1524281E+00
          2   -1    0    0  502    0  0.00000000000E+00  0.00000000000E+00  0.59070881881E+03  0.59070881881E+03  0.00000000000E+00 0. -1.
         -2   -1    0    0    0  501 -0.00000000000E+00 -0.00000000000E+00 -0.93057528502E+00  0.93057528502E+00  0.00000000000E+00 0.  1.
          1    1    1    2  502    0  0.15281987126E+02 -0.13892340110E+02  0.15486451850E+03  0.15623557640E+03  0.00000000000E+00 0.  1.
         -1    1    1    2    0  501 -0.15281987126E+02  0.13892340110E+02  0.43491372503E+03  0.43540381769E+03  0.00000000000E+00 0. -1.
</event>
<event>
 4    1  0.6629728E+001  0.2529456E+02  0.7546771E-02  0.1465535E+00
          2   -1    0    0  502    0  0.00000000000E+00  0.00000000000E+00  0.15756842420E+03  0.15756842420E+03  0.00000000000E+00 0.  1.
         -2   -1    0    0    0  501 -0.00000000000E+00 -0.00000000000E+00 -0.53432744877E+01  0.53432744877E+01  0.00000000000E+00 0. -1.
          1    1    1    2  502    0  0.86077302134E+01 -0.23784908407E+02  0.11602285470E+03  0.11874812715E+03  0.00000000000E+00 0.  1.
         -1    1    1    2    0  501 -0.86077302134E+01  0.23784908407E+02  0.36202295011E+02  0.44163571543E+02  0.00000000000E+00 0. -1.
</event>
<event>
 4    1  0.6629728E+001  0.6942950E+02  0.7546771E-02  0.1230773E+00
          2   -1    0    0  502    0  0.00000000000E+00  0.00000000000E+00  0.14013722797E+02  0.14013722797E+02  0.00000000000E+00 0. -1.
         -2   -1    0    0    0  501 -0.00000000000E+00 -0.00000000000E+00 -0.86447507335E+03  0.86447507335E+03  0.00000000000E+00 0.  1.
          1    1    1    2  502    0 -0.61661359325E+02 -0.31911322278E+02 -0.84400648834E+02  0.10928826674E+03  0.00000000000E+00 0. -1.
         -1    1    1    2    0  501  0.61661359325E+02  0.31911322278E+02 -0.76606070172E+03  0.76920052940E+03  0.00000000000E+00 0.  1.
</event>
<event>
 4    1  0.6629728E+001  0.2037729E+02  0.7546771E-02  0.1528344E+00
          2   -1    0    0  502    0  0.00000000000E+00  0.00000000000E+00  0.20107722906E+02  0.20107722906E+02  0.00000000000E+00 0. -1.
         -2   -1    0    0    0  501 -0.00000000000E+00 -0.00000000000E+00 -0.68301722018E+02  0.68301722018E+02  0.00000000000E+00 0.  1.
          1    1    1    2  502    0 -0.80987010994E+01  0.18698796517E+02 -0.61019405651E+02  0.64331965746E+02  0.00000000000E+00 0.  1.
         -1    1    1    2    0  501  0.80987010994E+01 -0.18698796517E+02  0.12825406540E+02  0.24077479178E+02  0.00000000000E+00 0. -1.
</event>
<event>
 4    1  0.6629728E+001  0.2278216E+02  0.7546771E-02  0.1495252E+00
          2   -1    0    0  502    0  0.00000000000E+00  0.00000000000E+00  0.47658720487E+03  0.47658720487E+03  0.00000000000E+00 0. -1.
         -2   -1    0    0    0  501 -0.00000000000E+00 -0.00000000000E+00 -0.22462204515E+01  0.22462204515E+01  0.00000000000E+00 0.  1.
          1    1    1    2  502    0  0.15863201099E+02  0.16351925228E+02  0.65329325255E+02  0.69187768761E+02  0.00000000000E+00 0. -1.
         -1    1    1    2    0  501 -0.15863201099E+02 -0.16351925228E+02  0.40901165916E+03  0.40964565656E+03  0.00000000000E+00 0.  1.
</event>
<event>
 4    1  0.6629728E+001  0.2367912E+02  0.7546771E-02  0.1484142E+00
          2   -1    0    0  502    0  0.00000000000E+00  0.00000000000E+00  0.17039829916E+02  0.17039829916E+02  0.00000000000E+00 0.  1.
         -2   -1    0    0    0  501 -0.00000000000E+00 -0.00000000000E+00 -0.51754157882E+02  0.51754157882E+02  0.00000000000E+00 0. -1.
          1    1    1    2  502    0  0.21892466626E+02  0.90233509203E+01  0.34010613950E+01  0.23922127318E+02  0.00000000000E+00 0.  1.
         -1    1    1    2    0  501 -0.21892466626E+02 -0.90233509203E+01 -0.38115389361E+02  0.44871860480E+02  0.00000000000E+00 0. -1.
</event>
<event>
 4    1  0.6629728E+001  0.2101427E+02  0.7546771E-02  0.1519061E+00
          2   -1    0    0  502    0  0.00000000000E+00  0.00000000000E+00  0.94870544164E+03  0.94870544164E+03  0.00000000000E+00 0. -1.
         -2   -1    0    0    0  501 -0.00000000000E+00 -0.00000000000E+00 -0.51871060391E+00  0.51871060391E+00  0.00000000000E+00 0.  1.
          1    1    1    2  502    0  0.17306816322E+02  0.11919471026E+02  0.62613864750E+03  0.62649118555E+03  0.00000000000E+00 0. -1.
         -1    1    1    2    0  501 -0.17306816322E+02 -0.11919471026E+02  0.32204808354E+03  0.32273296669E+03  0.00000000000E+00 0.  1.
</event>
<event>
 4    1  0.6629728E+001  0.3679785E+02  0.7546771E-02  0.1368346E+00
          2   -1    0    0  502    0  0.00000000000E+00  0.00000000000E+00  0.10140395070E+04  0.10140395070E+04  0.00000000000E+00 0.  1.
         -2   -1    0    0    0  501 -0.00000000000E+00 -0.00000000000E+00 -0.18719005950E+01  0.18719005950E+01  0.00000000000E+00 0. -1.
          1    1    1    2  502    0  0.34897213369E+02  0.11673306166E+02  0.77803827683E+03  0.77890798031E+03  0.00000000000E+00 0.  1.
         -1    1    1    2    0  501 -0.34897213369E+02 -0.11673306166E+02  0.23412932958E+03  0.23700342729E+03  0.00000000000E+00 0. -1.
</event>
<event>
 4    1  0.6629728E+001  0.2168866E+02  0.7546771E-02  0.1509656E+00
          2   -1    0    0  502    0  0.00000000000E+00  0.00000000000E+00  0.24525572544E+04  0.24525572544E+04  0.00000000000E+00 0. -1.
         -2   -1    0    0    0  501 -0.00000000000E+00 -0.00000000000E+00 -0.20732801338E+00  0.20732801338E+00  0.00000000000E+00 0.  1.
          1    1    1    2  502    0  0.21457461469E+02 -0.31583393777E+01  0.89053756903E+03  0.89080163876E+03  0.00000000000E+00 0.  1.
         -1    1    1    2    0  501 -0.21457461469E+02  0.31583393777E+01  0.15618123574E+04  0.15619629437E+04  0.00000000000E+00 0. -1.
</event>
<event>
 4    1  0.6629728E+001  0.2243845E+02  0.7546771E-02  0.1499673E+00
          2   -1    0    0  502    0  0.00000000000E+00  0.00000000000E+00  0.16176140661E+04  0.16176140661E+04  0.00000000000E+00 0. -1.
         -2   -1    0    0    0  501 -0.00000000000E+00 -0.00000000000E+00 -0.31162341228E+00  0.31162341228E+00  0.00000000000E+00 0.  1.
          1    1    1    2  502    0  0.74061996375E+01 -0.21180942139E+02  0.78068802206E+03  0.78101041727E+03  0.00000000000E+00 0.  1.
         -1    1    1    2    0  501 -0.74061996375E+01  0.21180942139E+02  0.83661442066E+03  0.83691527227E+03  0.00000000000E+00 0. -1.
</event>
<event>
 4    1  0.6629728E+001  0.2726955E+02  0.7546771E-02  0.1444919E+00
          2   -1    0    0  502    0  0.00000000000E+00  0.00000000000E+00  0.33688100445E+02  0.33688100445E+02  0.00000000000E+00 0. -1.
         -2   -1    0    0    0  501 -0.00000000000E+00 -0.00000000000E+00 -0.37160986408E+02  0.37160986408E+02  0.00000000000E+00 0.  1.
          1    1    1    2  502    0  0.25669379568E+02  0.92038779947E+01  0.20835193788E+02  0.34318125207E+02  0.00000000000E+00 0. -1.
         -1    1    1    2    0  501 -0.25669379568E+02 -0.92038779947E+01 -0.24308079751E+02  0.36530961645E+02  0.00000000000E+00 0.  1.
</event>
<event>
 4    1  0.6629728E+001  0.2639360E+02  0.7546771E-02  0.1453796E+00
          2   -1    0    0  502    0  0.00000000000E+00  0.00000000000E+00  0.14028608243E+01  0.14028608243E+01  0.00000000000E+00 0.  1.
         -2   -1    0    0    0  501 -0.00000000000E+00 -0.00000000000E+00 -0.51096771464E+03  0.51096771464E+03  0.00000000000E+00 0. -1.
          1    1    1    2  502    0 -0.20384536968E+01  0.26314766602E+02 -0.21178275418E+03  0.21342107956E+03  0.00000000000E+00 0.  1.
         -1    1    1    2    0  501  0.20384536968E+01 -0.26314766602E+02 -0.29778209964E+03  0.29894949590E+03  0.00000000000E+00 0. -1.
</event>
<event>
 4    1  0.6629728E+001  0.3377479E+02  0.7546771E-02  0.1389387E+00
          2   -1    0    0  502    0  0.00000000000E+00  0.00000000000E+00  0.46195436104E+03  0.46195436104E+03  0.00000000000E+00 0. -1.
         -2   -1    0    0    0  501 -0.00000000000E+00 -0.00000000000E+00 -0.61831210814E+01  0.61831210814E+01  0.00000000000E+00 0.  1.
          1    1    1    2  502    0  0.31506089922E+02  0.12169748767E+02  0.40928922274E+03  0.41068041631E+03  0.00000000000E+00 0. -1.
         -1    1    1    2    0  501 -0.31506089922E+02 -0.12169748767E+02  0.46482017218E+02  0.57457065814E+02  0.00000000000E+00 0.  1.
</event>
<event>
 4    1  0.6629728E+001  0.2286392E+02  0.7546771E-02  0.1494214E+00
          2   -1    0    0  502    0  0.00000000000E+00  0.00000000000E+00  0.18088860631E+04  0.18088860631E+04  0.00000000000E+00 0.  1.
         -2   -1    0    0    0  501 -0.00000000000E+00 -0.00000000000E+00 -0.96767104133E+00  0.96767104133E+00  0.00000000000E+00 0. -1.
          1    1    1    2  502    0  0.11040428098E+02  0.20021680131E+02  0.16618051256E+04  0.16619624045E+04  0.00000000000E+00 0.  1.
         -1    1    1    2    0  501 -0.11040428098E+02 -0.20021680131E+02  0.14611326651E+03  0.14789132962E+03  0.00000000000E+00 0. -1.
</event>
<event>
 4    1  0.6629728E+001  0.2351017E+02  0.7546771E-02  0.1486189E+00
          2   -1    0    0  502    0  0.00000000000E+00  0.00000000000E+00  0.29988989770E+02  0.29988989770E+02  0.00000000000E+00 0.  1.
         -2   -1    0    0    0  501 -0.00000000000E+00 -0.00000000000E+00 -0.24772926048E+02  0.24772926048E+02  0.00000000000E+00 0. -1.
          1    1    1    2  502    0  0.23232652862E+02  0.36016449162E+01 -0.11245786975E+02  0.26061383881E+02  0.00000000000E+00 0.  1.
         -1    1    1    2    0  501 -0.23232652862E+02 -0.36016449162E+01  0.16461850696E+02  0.28700531937E+02  0.00000000000E+00 0. -1.
</event>
<event>
 4    1  0.6629728E+001  0.2126570E+02  0.7546771E-02  0.1515505E+00
          2   -1    0    0  502    0  0.00000000000E+00  0.00000000000E+00  0.49311361280E+03  0.49311361280E+03  0.00000000000E+00 0. -1.
         -2   -1    0    0    0  501 -0.00000000000E+00 -0.00000000000E+00 -0.11146370713E+01  0.11146370713E+01  0.00000000000E+00 0.  1.
          1    1    1    2  502    0  0.10909044948E+02  0.18254391021E+02  0.35003102942E+03  0.35067642009E+03  0.00000000000E+00 0. -1.
         -1    1    1    2    0  501 -0.10909044948E+02 -0.18254391021E+02  0.14196794631E+03  0.14355182977E+03  0.00000000000E+00 0.  1.
</event>
<event>
 4    1  0.6629728E+001  0.7793665E+02  0.7546771E-02  0.1208720E+00
          2   -1    0    0  502    0  0.00000000000E+00  0.00000000000E+00  0.52084944407E+03  0.52084944407E+03  0.00000000000E+00 0.  1.
         -2   -1    0    0    0  501 -0.00000000000E+00 -0.00000000000E+00 -0.11914938051E+02  0.11914938051E+02  0.00000000000E+00 0. -1.
          1    1    1    2  502    0 -0.73226655715E+02 -0.26682930554E+02  0.29328286780E+03  0.30346163256E+03  0.00000000000E+00 0.  1.
         -1    1    1    2    0  501  0.73226655715E+02  0.26682930554E+02  0.21565163821E+03  0.22930274956E+03  0.00000000000E+00 0. -1.
</event>
<event>
 4    1  0.6629728E+001  0.1506993E+03  0.7546771E-02  0.1096902E+00
          2   -1    0    0  502    0  0.00000000000E+00  0.00000000000E+00  0.31911022685E+04  0.31911022685E+04  0.00000000000E+00 0. -1.
         -2   -1    0    0    0  501 -0.00000000000E+00 -0.00000000000E+00 -0.72669145328E+01  0.72669145328E+01  0.00000000000E+00 0.  1.
          1    1    1    2  502    0 -0.12572070443E+03  0.83093846824E+02  0.13620358651E+04  0.13703473942E+04  0.00000000000E+00 0.  1.
         -1    1    1    2    0  501  0.12572070443E+03 -0.83093846824E+02  0.18217994889E+04  0.18280217888E+04  0.00000000000E+00 0. -1.
</event>
<event>
 4    1  0.6629728E+001  0.2078338E+02  0.7546771E-02  0.1522380E+00
          2   -1    0    0  502    0  0.00000000000E+00  0.00000000000E+00  0.11203650973E+02  0.11203650973E+02  0.00000000000E+00 0. -1.
         -2   -1    0    0    0  501 -0.00000000000E+00 -0.00000000000E+00 -0.97100033405E+02  0.97100033405E+02  0.00000000000E+00 0.  1.
          1    1    1    2  502    0 -0.47140902659E+01  0.20241690703E+02 -0.89961957355E+00  0.20802836463E+02  0.00000000000E+00 0.  1.
         -1    1    1    2    0  501  0.47140902659E+01 -0.20241690703E+02 -0.84996762858E+02  0.87500847915E+02  0.00000000000E+00 0. -1.
</event>
<event>
 4    1  0.6629728E+001  0.2309001E+02  0.7546771E-02  0.1491371E+00
          2   -1    0    0  502    0  0.00000000000E+00  0.00000000000E+00  0.46914108738E+02  0.46914108738E+02  0.00000000000E+00 0. -1.
         -2   -1    0    0    0  501 -0.00000000000E+00 -0.00000000000E+00 -0.17060715241E+02  0.17060715241E+02  0.00000000000E+00 0.  1.
          1    1    1    2  502    0  0.89605630598E+01 -0.21280430498E+02 -0.35565963868E+01  0.23362315604E+02  0.00000000000E+00 0.  1.
         -1    1    1    2    0  501 -0.89605630598E+01  0.21280430498E+02  0.33409989883E+02  0.40612508375E+02  0.00000000000E+00 0. -1.
</event>
<event>
 4    1  0.6629728E+001  0.3028131E+02  0.7546771E-02  0.1417167E+00
          2   -1    0    0  502    0  0.00000000000E+00  0.00000000000E+00  0.27315945665E+02  0.27315945665E+02  0.00000000000E+00 0. -1.
         -2   -1    0    0    0  501 -0.00000000000E+00 -0.00000000000E+00 -0.58470754800E+02  0.58470754800E+02  0.00000000000E+00 0.  1.
          1    1    1    2  502    0  0.50466603734E+01 -0.29857815874E+02 -0.43569738860E+02  0.53059213092E+02  0.00000000000E+00 0. -1.
         -1    1    1    2    0  501 -0.50466603734E+01  0.29857815874E+02  0.12414929725E+02  0.32727487373E+02  0.00000000000E+00 0.  1.
</event>
<event>
 4    1  0.6629728E+001  0.2427790E+02  0.7546771E-02  0.1477046E+00
          2   -1    0    0  502    0  0.00000000000E+00  0.00000000000E+00  0.68607575709E+03  0.68607575709E+03  0.00000000000E+00 0. -1.
         -2   -1    0    0    0  501 -0.00000000000E+00 -0.00000000000E+00 -0.92576273393E+00  0.92576273393E+00  0.00000000000E+00 0.  1.
          1    1    1    2  502    0 -0.12270533279E+02 -0.20948762880E+02  0.25040770644E+03  0.25158186758E+03  0.00000000000E+00 0.  1.
         -1    1    1    2    0  501  0.12270533279E+02  0.20948762880E+02  0.43474228792E+03  0.43541965224E+03  0.00000000000E+00 0. -1.
</event>
<event>
 4    1  0.6629728E+001  0.2012923E+02  0.7546771E-02  0.1532069E+00
          2   -1    0    0  502    0  0.00000000000E+00  0.00000000000E+00  0.14632698826E+01  0.14632698826E+01  0.00000000000E+00 0.  1.
         -2   -1    0    0    0  501 -0.00000000000E+00 -0.00000000000E+00 -0.34568377588E+03  0.34568377588E+03  0.00000000000E+00 0. -1.
          1    1    1    2  502    0 -0.90324037872E+01 -0.17988931178E+02 -0.24953376929E+03  0.25034433882E+03  0.00000000000E+00 0. -1.
         -1    1    1    2    0  501  0.90324037872E+01  0.17988931178E+02 -0.94686736704E+02  0.96802706940E+02  0.00000000000E+00 0.  1.
</event>
<event>
 4    1  0.6629728E+001  0.5209386E+02  0.7546771E-02  0.1289341E+00
          2   -1    0    0  502    0  0.00000000000E+00  0.00000000000E+00  0.96235577790E+02  0.96235577790E+02  0.00000000000E+00 0. -1.
         -2   -1    0    0    0  501 -0.00000000000E+00 -0.00000000000E+00 -0.34711435247E+02  0.34711435247E+02  0.00000000000E+00 0.  1.
          1    1    1    2  502    0 -0.37961756162E+02  0.35674581115E+02  0.59121197360E+02  0.78797757873E+02  0.00000000000E+00 0. -1.
         -1    1    1    2    0  501  0.37961756162E+02 -0.35674581115E+02  0.24029451831E+01  0.52149255164E+02  0.00000000000E+00 0.  1.
</event>
<event>
 4    1  0.6629728E+001  0.3932233E+02  0.7546771E-02  0.1352503E+00
          2   -1    0    0  502    0  0.00000000000E+00  0.00000000000E+00  0.21211094722E+03  0.21211094722E+03  0.00000000000E+00 0.  1.
         -2   -1    0    0    0  501 -0.00000000000E+00 -0.00000000000E+00 -0.81316159079E+01  0.81316159079E+01  0.00000000000E+00 0. -1.
          1    1    1    2  502    0 -0.13680893776E+02  0.36865686461E+02  0.13742138540E+03  0.14293663932E+03  0.00000000000E+00 0. -1.
         -1    1    1    2    0  501  0.13680893776E+02 -0.36865686461E+02  0.66557945905E+02  0.77305923808E+02  0.00000000000E+00 0.  1.
</event>
<event>
 4    1  0.6629728E+001  0.3410823E+02  0.7546771E-02  0.1386943E+00
          2   -1    0    0  502    0  0.00000000000E+00  0.00000000000E+00  0.23470904525E+03  0.23470904525E+03  0.00000000000E+00 0. -1.
         -2   -1    0    0    0  501 -0.00000000000E+00 -0.00000000000E+00 -0.12055887834E+02  0.12055887834E+02  0.00000000000E+00 0.  1.
          1    1    1    2  502    0 -0.30582837104E+02  0.15101713031E+02  0.16646290390E+02  0.37953532716E+02  0.00000000000E+00 0.  1.
         -1    1    1    2    0  501  0.30582837104E+02 -0.15101713031E+02  0.20600686702E+03  0.20881140037E+03  0.00000000000E+00 0. -1.
</event>
<event>
 4    1  0.6629728E+001  0.2353537E+02  0.7546771E-02  0.1485883E+00
          2   -1    0    0  502    0  0.00000000000E+00  0.00000000000E+00  0.50467427003E+02  0.50467427003E+02  0.00000000000E+00 0. -1.
         -2   -1    0    0    0  501 -0.00000000000E+00 -0.00000000000E+00 -0.11161571709E+02  0.11161571709E+02  0.00000000000E+00 0.  1.
          1    1    1    2  502    0 -0.20728326354E+02 -0.11146756110E+02  0.23629760658E+02  0.33350851173E+02  0.00000000000E+00 0. -1.
         -1    1    1    2    0  501  0.20728326354E+02  0.11146756110E+02  0.15676094637E+02  0.28278147539E+02  0.00000000000E+00 0.  1.
</event>
<event>
 4    1  0.6629728E+001  0.2355495E+02  0.7546771E-02  0.1485645E+00
          2   -1    0    0  502    0  0.00000000000E+00  0.00000000000E+00  0.22684944762E+03  0.22684944762E+03  0.00000000000E+00 0.  1.
         -2   -1    0    0    0  501 -0.00000000000E+00 -0.00000000000E+00 -0.27853940491E+01  0.27853940491E+01  0.00000000000E+00 0. -1.
          1    1    1    2  502    0 -0.23474181950E+02 -0.19489867532E+01  0.15212088373E+03  0.15393374884E+03  0.00000000000E+00 0.  1.
         -1    1    1    2    0  501  0.23474181950E+02  0.19489867532E+01  0.71943169841E+02  0.75701092821E+02  0.00000000000E+00 0. -1.
</event>
<event>
 4    1  0.6629728E+001  0.2565645E+02  0.7546771E-02  0.1461592E+00
          2   -1    0    0  502    0  0.00000000000E+00  0.00000000000E+00  0.35953573251E+03  0.35953573251E+03  0.00000000000E+00 0. -1.
         -2   -1    0    0    0  501 -0.00000000000E+00 -0.00000000000E+00 -0.18993619392E+01  0.18993619392E+01  0.00000000000E+00 0.  1.
          1    1    1    2  502    0  0.11682405254E+01 -0.25629837436E+02  0.14449379072E+03  0.14675390594E+03  0.00000000000E+00 0.  1.
         -1    1    1    2    0  501 -0.11682405254E+01  0.25629837436E+02  0.21314257986E+03  0.21468118851E+03  0.00000000000E+00 0. -1.
</event>
<event>
 4    1  0.6629728E+001  0.2493667E+02  0.7546771E-02  0.1469513E+00
          2   -1    0    0  502    0  0.00000000000E+00  0.00000000000E+00  0.12257175941E+04  0.12257175941E+04  0.00000000000E+00 0.  1.
         -2   -1    0    0    0  501 -0.00000000000E+00 -0.00000000000E+00 -0.62603910534E+00  0.62603910534E+00  0.00000000000E+00 0. -1.
          1    1    1    2  502    0  0.67003963884E+01 -0.24019617728E+02  0.87955875124E+03  0.87991217416E+03  0.00000000000E+00 0.  1.
         -1    1    1    2    0  501 -0.67003963884E+01  0.24019617728E+02  0.34553280378E+03  0.34643145907E+03  0.00000000000E+00 0. -1.
</event>
<event>
 4    1  0.6629728E+001  0.2407228E+02  0.7546771E-02  0.1479455E+00
          2   -1    0    0  502    0  0.00000000000E+00  0.00000000000E+00  0.10599997729E+04  0.10599997729E+04  0.00000000000E+00 0.  1.
         -2   -1    0    0    0  501 -0.00000000000E+00 -0.00000000000E+00 -0.59862539042E+00  0.59862539042E+00  0.00000000000E+00 0. -1.
          1    1    1    2  502    0 -0.23967677082E+01 -0.23952663479E+02  0.37347902528E+03  0.37425400052E+03  0.00000000000E+00 0. -1.
         -1    1    1    2    0  501  0.23967677082E+01  0.23952663479E+02  0.68592212227E+03  0.68634439780E+03  0.00000000000E+00 0.  1.
</event>
<event>
 4    1  0.6629728E+001  0.2567630E+02  0.7546771E-02  0.1461378E+00
          2   -1    0    0  502    0  0.00000000000E+00  0.00000000000E+00  0.18357421665E+03  0.18357421665E+03  0.00000000000E+00 0.  1.
         -2   -1    0    0    0  501 -0.00000000000E+00 -0.00000000000E+00 -0.44641023350E+01  0.44641023350E+01  0.00000000000E+00 0. -1.
          1    1    1    2  502    0 -0.82641734410E+01 -0.24309995145E+02  0.13112735869E+03  0.13361757603E+03  0.00000000000E+00 0.  1.
         -1    1    1    2    0  501  0.82641734410E+01  0.24309995145E+02  0.47982755624E+02  0.54420742956E+02  0.00000000000E+00 0. -1.
</event>
<event>
 4    1  0.6629728E+001  0.4098221E+02  0.7546771E-02  0.1342824E+00
          2   -1    0    0  502    0  0.00000000000E+00  0.00000000000E+00  0.14818627380E+04  0.14818627380E+04  0.00000000000E+00 0. -1.
         -2   -1    0    0    0  501 -0.00000000000E+00 -0.00000000000E+00 -0.12685362770E+01  0.12685362770E+01  0.00000000000E+00 0.  1.
          1    1    1    2  502    0 -0.38350106351E+02  0.14450276406E+02  0.49825752459E+03  0.49994009837E+03  0.00000000000E+00 0.  1.
         -1    1    1    2    0  501  0.38350106351E+02 -0.14450276406E+02  0.98233667717E+03  0.98319117595E+03  0.00000000000E+00 0. -1.
</event>
<event>
 4    1  0.6629728E+001  0.3391025E+02  0.7546771E-02  0.1388391E+00
          2   -1    0    0  502    0  0.00000000000E+00  0.00000000000E+00  0.14358305041E+04  0.14358305041E+04  0.00000000000E+00 0.  1.
         -2   -1    0    0    0  501 -0.00000000000E+00 -0.00000000000E+00 -0.92488408724E+00  0.92488408724E+00  0.00000000000E+00 0. -1.
          1    1    1    2  502    0 -0.31980837141E+02  0.11275241898E+02  0.98051299683E+03  0.98109920089E+03  0.00000000000E+00 0.  1.
         -1    1    1    2    0  501  0.31980837141E+02 -0.11275241898E+02  0.45439262316E+03  0.45565618728E+03  0.00000000000E+00 0. -1.
</event>
<event>
 4    1  0.6629728E+001  0.2018047E+02  0.7546771E-02  0.1531295E+00
          2   -1    0    0  502    0  0.00000000000E+00  0.00000000000E+00  0.15043502785E+02  0.15043502785E+02  0.00000000000E+00 0. -1.
         -2   -1    0    0    0  501 -0.00000000000E+00 -0.00000000000E+00 -0.40633832704E+02  0.40633832704E+02  0.00000000000E+00 0.  1.
          1    1    1    2  502    0  0.11509992946E+02  0.16576231024E+02 -0.28878291811E+02  0.35230769371E+02  0.00000000000E+00 0.  1.
         -1    1    1    2    0  501 -0.11509992946E+02 -0.16576231024E+02  0.32879618924E+01  0.20446566117E+02  0.00000000000E+00 0. -1.
</event>
<event>
 4    1  0.6629728E+001  0.3916189E+02  0.7546771E-02  0.1353468E+00
          2   -1    0    0  502    0  0.00000000000E+00  0.00000000000E+00  0.17313004924E+03  0.17313004924E+03  0.00000000000E+00 0. -1.
         -2   -1    0    0    0  501 -0.00000000000E+00 -0.00000000000E+00 -0.16421613877E+02  0.16421613877E+02  0.00000000000E+00 0.  1.
          1    1    1    2  502    0  0.14133958885E+02  0.36522389326E+02  0.14034648450E+02  0.41600782120E+02  0.00000000000E+00 0.  1.
         -1    1    1    2    0  501 -0.14133958885E+02 -0.36522389326E+02  0.14267378692E+03  0.14795088100E+03  0.00000000000E+00 0. -1.
</event>
<event>
 4    1  0.6629728E+001  0.4630567E+02  0.7546771E-02  0.1315037E+00
          2   -1    0    0  502    0  0.00000000000E+00  0.00000000000E+00  0.31876074042E+03  0.31876074042E+03  0.00000000000E+00 0. -1.
         -2   -1    0    0    0  501 -0.00000000000E+00 -0.00000000000E+00 -0.88780055288E+01  0.88780055288E+01  0.00000000000E+00 0.  1.
          1    1    1    2  502    0 -0.44183865775E+02  0.13856434851E+02  0.23558246176E+03  0.24009021444E+03  0.00000000000E+00 0. -1.
         -1    1    1    2    0  501  0.44183865775E+02 -0.13856434851E+02  0.74300273128E+02  0.87548531504E+02  0.00000000000E+00 0.  1.
</event>
<event>
 4    1  0.6629728E+001  0.3093222E+02  0.7546771E-02  0.1411665E+00
          2   -1    0    0  502    0  0.00000000000E+00  0.00000000000E+00  0.26211259322E+03  0.26211259322E+03  0.00000000000E+00 0.  1.
         -2   -1    0    0    0  501 -0.00000000000E+00 -0.00000000000E+00 -0.10438938721E+02  0.10438938721E+02  0.00000000000E+00 0. -1.
          1    1    1    2  502    0  0.26055615234E+02  0.16670550452E+02  0.15941240638E+02  0.34798354712E+02  0.00000000000E+00 0. -1.
         -1    1    1    2    0  501 -0.26055615234E+02 -0.16670550452E+02  0.23573241386E+03  0.23775317723E+03  0.00000000000E+00 0.  1.
</event>
<event>
 4    1  0.6629728E+001  0.3151298E+02  0.7546771E-02  0.1406889E+00
          2   -1    0    0  502    0  0.00000000000E+00  0.00000000000E+00  0.13611949957E+02  0.13611949957E+02  0.00000000000E+00 0. -1.
         -2   -1    0    0    0  501 -0.00000000000E+00 -0.00000000000E+00 -0.11318026694E+03  0.11318026694E+03  0.00000000000E+00 0.  1.
          1    1    1    2  502    0 -0.29203625862E+02  0.11841295992E+02 -0.11990107890E+02  0.33716920700E+02  0.00000000000E+00 0. -1.
         -1    1    1    2    0  501  0.29203625862E+02 -0.11841295992E+02 -0.87578209095E+02  0.93075296199E+02  0.00000000000E+00 0.  1.
</event>
<event>
 4    1  0.6629728E+001  0.9611354E+02  0.7546771E-02  0.1170718E+00
          2   -1    0    0  502    0  0.00000000000E+00  0.00000000000E+00  0.83488423121E+03  0.83488423121E+03  0.00000000000E+00 0.  1.
         -2   -1    0    0    0  501 -0.00000000000E+00 -0.00000000000E+00 -0.16714096134E+02  0.16714096134E+02  0.00000000000E+00 0. -1.
          1    1    1    2  502    0  0.95526248905E+02  0.10608913274E+02  0.65663405863E+03  0.66363099703E+03  0.00000000000E+00 0.  1.
         -1    1    1    2    0  501 -0.95526248905E+02 -0.10608913274E+02  0.16153607645E+03  0.18796733031E+03  0.00000000000E+00 0. -1.
</event>
<event>
 4    1  0.6629728E+001  0.2002308E+02  0.7546771E-02  0.1533683E+00
          2   -1    0    0  502    0  0.00000000000E+00  0.00000000000E+00  0.53068211679E+03  0.53068211679E+03  0.00000000000E+00 0. -1.
         -2   -1    0    0    0  501 -0.00000000000E+00 -0.00000000000E+00 -0.10811081612E+01  0.10811081612E+01  0.00000000000E+00 0.  1.
          1    1    1    2  502    0  0.19991680233E+02 -0.11209449608E+01  0.41071874820E+03  0.41120653438E+03  0.00000000000E+00 0. -1.
         -1    1    1    2    0  501 -0.19991680233E+02  0.11209449608E+01  0.11888226043E+03  0.12055669057E+03  0.00000000000E+00 0.  1.
</event>
<event>
 4    1  0.6629728E+001  0.4386048E+02  0.7546771E-02  0.1327237E+00
          2   -1    0    0  502    0  0.00000000000E+00  0.00000000000E+00  0.16833547786E+04  0.16833547786E+04  0.00000000000E+00 0.  1.
         -2   -1    0    0    0  501 -0.00000000000E+00 -0.00000000000E+00 -0.15731112749E+01  0.15731112749E+01  0.00000000000E+00 0. -1.
          1    1    1    2  502    0  0.43028574130E+02 -0.85019500557E+01  0.40027315981E+03  0.40266902514E+03  0.00000000000E+00 0. -1.
         -1    1    1    2    0  501 -0.43028574130E+02  0.85019500557E+01  0.12815085075E+04  0.12822588647E+04  0.00000000000E+00 0.  1.
</event>
<event>
 4    1  0.6629728E+001  0.5652427E+02  0.7546771E-02  0.1272122E+00
          2   -1    0    0  502    0  0.00000000000E+00  0.00000000000E+00  0.26593478820E+04  0.26593478820E+04  0.00000000000E+00 0.  1.
         -2   -1    0    0    0  501 -0.00000000000E+00 -0.00000000000E+00 -0.12017483635E+01  0.12017483635E+01  0.00000000000E+00 0. -1.
          1    1    1    2  502    0 -0.56327745481E+02 -0.47094205504E+01  0.13510646605E+04  0.13522465420E+04  0.00000000000E+00 0. -1.
         -1    1    1    2    0  501  0.56327745481E+02  0.47094205504E+01  0.13070814732E+04  0.13083030884E+04  0.00000000000E+00 0.  1.
</event>
<event>
 4    1  0.6629728E+001  0.2763696E+02  0.7546771E-02  0.1441313E+00
          2   -1    0    0  502    0  0.00000000000E+00  0.00000000000E+00  0.83363985219E+01  0.83363985219E+01  0.00000000000E+00 0.  1.
         -2   -1    0    0    0  501 -0.00000000000E+00 -0.00000000000E+00 -0.10259364935E+03  0.10259364935E+03  0.00000000000E+00 0. -1.
          1    1    1    2  502    0  0.26246857557E+02 -0.86546962275E+01 -0.65266480166E+02  0.70876757345E+02  0.00000000000E+00 0. -1.
         -1    1    1    2    0  501 -0.26246857557E+02  0.86546962275E+01 -0.28990770659E+02  0.40053290525E+02  0.00000000000E+00 0.  1.
</event>
<event>
 4    1  0.6629728E+001  0.2037056E+02  0.7546771E-02  0.1528444E+00
          2   -1    0    0  502    0  0.00000000000E+00  0.00000000000E+00  0.63262366204E+03  0.63262366204E+03  0.00000000000E+00 0. -1.
         -2   -1    0    0    0  501 -0.00000000000E+00 -0.00000000000E+00 -0.77585140902E+00  0.77585140902E+00  0.00000000000E+00 0.  1.
          1    1    1    2  502    0 -0.20369285086E+02 -0.22808837049E+00  0.44043221589E+03  0.44090304671E+03  0.00000000000E+00 0. -1.
         -1    1    1    2    0  501  0.20369285086E+02  0.22808837049E+00  0.19141559474E+03  0.19249646674E+03  0.00000000000E+00 0.  1.
</event>
<event>
 4    1  0.6629728E+001  0.2680747E+02  0.7546771E-02  0.1449552E+00
          2   -1    0    0  502    0  0.00000000000E+00  0.00000000000E+00  0.67381610887E+02  0.67381610887E+02  0.00000000000E+00 0. -1.
         -2   -1    0    0    0  501 -0.00000000000E+00 -0.00000000000E+00 -0.13338993087E+02  0.13338993087E+02  0.00000000000E+00 0.  1.
          1    1    1    2  502    0  0.43267736664E+00  0.26803973518E+02  0.89514587077E+01  0.28262498458E+02  0.00000000000E+00 0.  1.
         -1    1    1    2    0  501 -0.43267736664E+00 -0.26803973518E+02  0.45091159092E+02  0.52458105516E+02  0.00000000000E+00 0. -1.
</event>
<event>
 4    1  0.6629728E+001  0.2017810E+02  0.7546771E-02  0.1531330E+00
          2   -1    0    0  502    0  0.00000000000E+00  0.00000000000E+00  0.13583757614E+03  0.13583757614E+03  0.00000000000E+00 0.  1.
         -2   -1    0    0    0  501 -0.00000000000E+00 -0.00000000000E+00 -0.30588627143E+01  0.30588627143E+01  0.00000000000E+00 0. -1.
          1    1    1    2  502    0 -0.17605068282E+02  0.98598871088E+01  0.56542798750E+02  0.60035355363E+02  0.00000000000E+00 0. -1.
         -1    1    1    2    0  501  0.17605068282E+02 -0.98598871088E+01  0.76235914672E+02  0.78861083488E+02  0.00000000000E+00 0.  1.
</event>
<event>
 4    1  0.6629728E+001  0.2361577E+02  0.7546771E-02  0.1484907E+00
          2   -1    0    0  502    0  0.00000000000E+00  0.00000000000E+00  0.95807671170E+03  0.95807671170E+03  0.00000000000E+00 0.  1.
         -2   -1    0    0    0  501 -0.00000000000E+00 -0.00000000000E+00 -0.12265163763E+01  0.12265163763E+01  0.00000000000E+00 0. -1.
          1    1    1    2  502    0  0.21043420978E+02 -0.10718167949E+02  0.13075317296E+03  0.13286872066E+03  0.00000000000E+00 0. -1.
         -1    1    1    2    0  501 -0.21043420978E+02  0.10718167949E+02  0.82609702236E+03  0.82643450742E+03  0.00000000000E+00 0.  1.
</event>
<event>
 4    1  0.6629728E+001  0.2118214E+02  0.7546771E-02  0.1516680E+00
          2   -1    0    0  502    0  0.00000000000E+00  0.00000000000E+00  0.63700341676E+03  0.63700341676E+03  0.00000000000E+00 0. -1.
         -2   -1    0    0    0  501 -0.00000000000E+00 -0.00000000000E+00 -0.71430890940E+00  0.71430890940E+00  0.00000000000E+00 0.  1.
          1    1    1    2  502    0  0.21179571057E+02  0.33019386040E+00  0.28052426210E+03  0.28132284814E+03  0.00000000000E+00 0.  1.
         -1    1    1    2    0  501 -0.21179571057E+02 -0.33019386040E+00  0.35576484575E+03  0.35639487753E+03  0.00000000000E+00 0. -1.
</event>
<event>
 4    1  0.6629728E+001  0.3147110E+02  0.7546771E-02  0.1407229E+00
          2   -1    0    0  502    0  0.00000000000E+00  0.00000000000E+00  0.29820224667E+02  0.29820224667E+02  0.00000000000E+00 0.  1.
         -2   -1    0    0    0  501 -0.00000000000E+00 -0.00000000000E+00 -0.33213919481E+02  0.33213919481E+02  0.00000000000E+00 0. -1.
          1    1    1    2  502    0  0.30098049161E+02 -0.91944347801E+01 -0.18248874658E+01  0.31523965622E+02  0.00000000000E+00 0.  1.
         -1    1    1    2    0  501 -0.30098049161E+02  0.91944347801E+01 -0.15688073488E+01  0.31510178526E+02  0.00000000000E+00 0. -1.
</event>
<event>
 4    1  0.6629728E+001  0.2233091E+02  0.7546771E-02  0.1501075E+00
          2   -1    0    0  502    0  0.00000000000E+00  0.00000000000E+00  0.94294682119E+03  0.94294682119E+03  0.00000000000E+00 0.  1.
         -2   -1    0    0    0  501 -0.00000000000E+00 -0.00000000000E+00 -0.12201046739E+01  0.12201046739E+01  0.00000000000E+00 0. -1.
          1    1    1    2  502    0  0.20313906832E+02  0.92744025260E+01  0.82620161871E+03  0.82650334791E+03  0.00000000000E+00 0.  1.
         -1    1    1    2    0  501 -0.20313906832E+02 -0.92744025260E+01  0.11552509780E+03  0.11766357795E+03  0.00000000000E+00 0. -1.
</event>
<event>
 4    1  0.6629728E+001  0.2001275E+02  0.7546771E-02  0.1533841E+00
          2   -1    0    0  502    0  0.00000000000E+00  0.00000000000E+00  0.14254841599E+04  0.14254841599E+04  0.00000000000E+00 0.  1.
         -2   -1    0    0    0  501 -0.00000000000E+00 -0.00000000000E+00 -0.29192096443E+00  0.29192096443E+00  0.00000000000E+00 0. -1.
          1    1    1    2  502    0 -0.31732212476E+01 -0.19759579061E+02  0.57448586050E+03  0.57483433632E+03  0.00000000000E+00 0. -1.
         -1    1    1    2    0  501  0.31732212476E+01  0.19759579061E+02  0.85070637848E+03  0.85094174459E+03  0.00000000000E+00 0.  1.
</event>
<event>
 4    1  0.6629728E+001  0.2369432E+02  0.7546771E-02  0.1483959E+00
          2   -1    0    0  502    0  0.00000000000E+00  0.00000000000E+00  0.20597919850E+04  0.20597919850E+04  0.00000000000E+00 0.  1.
         -2   -1    0    0    0  501 -0.00000000000E+00 -0.00000000000E+00 -0.38965772909E+00  0.38965772909E+00  0.00000000000E+00 0. -1.
          1    1    1    2  502    0 -0.23578023877E+02 -0.23446697265E+01  0.46501818007E+03  0.46562144332E+03  0.00000000000E+00 0. -1.
         -1    1    1    2    0  501  0.23578023877E+02  0.23446697265E+01  0.15943841472E+04  0.15945601994E+04  0.00000000000E+00 0.  1.
</event>
<event>
 4    1  0.6629728E+001  0.2773849E+02  0.7546771E-02  0.1440328E+00
          2   -1    0    0  502    0  0.00000000000E+00  0.00000000000E+00  0.11659518703E+04  0.11659518703E+04  0.00000000000E+00 0. -1.
         -2   -1    0    0    0  501 -0.00000000000E+00 -0.00000000000E+00 -0.19593836608E+01  0.19593836608E+01  0.00000000000E+00 0.  1.
          1    1    1    2  502    0  0.22765114221E+02  0.15848451258E+02  0.10643793817E+03  0.10999299302E+03  0.00000000000E+00 0.  1.
         -1    1    1    2    0  501 -0.22765114221E+02 -0.15848451258E+02  0.10575545485E+04  0.10579182610E+04  0.00000000000E+00 0. -1.
</event>
<event>
 4    1  0.6629728E+001  0.2975396E+02  0.7546771E-02  0.1421747E+00
          2   -1    0    0  502    0  0.00000000000E+00  0.00000000000E+00  0.36984379266E+03  0.36984379266E+03  0.00000000000E+00 0.  1.
         -2   -1    0    0    0  501 -0.00000000000E+00 -0.00000000000E+00 -0.50594957407E+01  0.50594957407E+01  0.00000000000E+00 0. -1.
          1    1    1    2  502    0  0.24076350338E+02 -0.17482210917E+02  0.31845775256E+03  0.31984470999E+03  0.00000000000E+00 0.  1.
         -1    1    1    2    0  501 -0.24076350338E+02  0.17482210917E+02  0.46326544361E+02  0.55058578411E+02  0.00000000000E+00 0. -1.
</event>
<event>
 4    1  0.6629728E+001  0.2161621E+02  0.7546771E-02  0.1510646E+00
          2   -1    0    0  502    0  0.00000000000E+00  0.00000000000E+00  0.19260645388E+02  0.19260645388E+02  0.00000000000E+00 0.  1.
         -2   -1    0    0    0  501 -0.00000000000E+00 -0.00000000000E+00 -0.25764766234E+02  0.25764766234E+02  0.00000000000E+00 0. -1.
          1    1    1    2  502    0 -0.20480432260E+02  0.69146435821E+01 -0.86929574456E+01  0.23298667571E+02  0.00000000000E+00 0. -1.
         -1    1    1    2    0  501  0.20480432260E+02 -0.69146435821E+01  0.21888365994E+01  0.21726744051E+02  0.00000000000E+00 0.  1.
</event>
<event>
 4    1  0.6629728E+001  0.2625866E+02  0.7546771E-02  0.1455201E+00
          2   -1    0    0  502    0  0.00000000000E+00  0.00000000000E+00  0.51774631842E+02  0.51774631842E+02  0.00000000000E+00 0.  1.
         -2   -1    0    0    0  501 -0.00000000000E+00 -0.00000000000E+00 -0.15168452586E+02  0.15168452586E+02  0.00000000000E+00 0. -1.
          1    1    1    2  502    0  0.46411295074E+01 -0.25845252761E+02  0.66112341458E+01  0.27078138605E+02  0.00000000000E+00 0. -1.
         -1    1    1    2    0  501 -0.46411295074E+01  0.25845252761E+02  0.29994945110E+02  0.39864945824E+02  0.00000000000E+00 0.  1.
</event>
<event>
 4    1  0.6629728E+001  0.2633017E+02  0.7546771E-02  0.1454455E+00
          2   -1    0    0  502    0  0.00000000000E+00  0.00000000000E+00  0.38350281652E+02  0.38350281652E+02  0.00000000000E+00 0.  1.
         -2   -1    0    0    0  501 -0.00000000000E+00 -0.00000000000E+00 -0.28972190261E+02  0.28972190261E+02  0.00000000000E+00 0. -1.
          1    1    1    2  502    0 -0.14876860765E+02 -0.21724562994E+02  0.25330801035E+02  0.36536654261E+02  0.00000000000E+00 0.  1.
         -1    1    1    2    0  501  0.14876860765E+02  0.21724562994E+02 -0.15952709644E+02  0.30785817652E+02  0.00000000000E+00 0. -1.
</event>
<event>
 4    1  0.6629728E+001  0.3271091E+02  0.7546771E-02  0.1397412E+00
          2   -1    0    0  502    0  0.00000000000E+00  0.00000000000E+00  0.47749303405E+03  0.47749303405E+03  0.00000000000E+00 0.  1.
         -2   -1    0    0    0  501 -0.00000000000E+00 -0.00000000000E+00 -0.29753582454E+01  0.29753582454E+01  0.00000000000E+00 0. -1.
          1    1    1    2  502    0  0.32672781181E+02  0.15790036360E+01  0.35661781868E+03  0.35811488727E+03  0.00000000000E+00 0.  1.
         -1    1    1    2    0  501 -0.32672781181E+02 -0.15790036360E+01  0.11789985712E+03  0.12235350502E+03  0.00000000000E+00 0. -1.
</event>
