<event>
 4    1  0.6145708E+003  0.1157150E+03  0.7546771E-02  0.1139057E+00
          2   -1    0    0  501    0  0.00000000000E+00  0.00000000000E+00  0.21841116747E+04  0.21841116747E+04  0.00000000000E+00 0. -1.
         -2   -1    0    0    0  501 -0.00000000000E+00 -0.00000000000E+00 -0.76675652596E+01  0.76675652596E+01  0.00000000000E+00 0. -1.
          2    1    1    2  502    0 -0.74768618433E+02  0.88315489385E+02  0.15788659680E+04  0.15831006655E+04  0.00000000000E+00 0. -1.
         -2    1    1    2    0  502  0.74768618433E+02 -0.88315489385E+02  0.59757814144E+03  0.60867857454E+03  0.00000000000E+00 0. -1.
</event>
<event>
 4    1  0.6145708E+003  0.2113513E+02  0.7546771E-02  0.1517344E+00
          2   -1    0    0  501    0  0.00000000000E+00  0.00000000000E+00  0.21321947030E+02  0.21321947030E+02  0.00000000000E+00 0. -1.
         -2   -1    0    0    0  501 -0.00000000000E+00 -0.00000000000E+00 -0.40226094021E+02  0.40226094021E+02  0.00000000000E+00 0.  1.
          2    1    1    2  502    0  0.12282412327E+02 -0.17199880008E+02  0.11850913070E+02  0.24230923743E+02  0.00000000000E+00 0. -1.
         -2    1    1    2    0  502 -0.12282412327E+02  0.17199880008E+02 -0.30755060060E+02  0.37317117308E+02  0.00000000000E+00 0.  1.
</event>
<event>
 4    1  0.6145708E+003  0.2830109E+02  0.7546771E-02  0.1434959E+00
          2   -1    0    0  501    0  0.00000000000E+00  0.00000000000E+00  0.85245481707E+02  0.85245481707E+02  0.00000000000E+00 0. -1.
         -2   -1    0    0    0  501 -0.00000000000E+00 -0.00000000000E+00 -0.20507131471E+02  0.20507131471E+02  0.00000000000E+00 0. -1.
          2    1    1    2  502    0 -0.18972795368E+02  0.20999633371E+02  0.71290824111E+02  0.76702888917E+02  0.00000000000E+00 0. -1.
         -2    1    1    2    0  502  0.18972795368E+02 -0.20999633371E+02 -0.65524738750E+01  0.29049724261E+02  0.00000000000E+00 0. -1.
</event>
<event>
 4    1  0.6145708E+003  0.1032913E+03  0.7546771E-02  0.1158224E+00
          2   -1    0    0  501    0  0.00000000000E+00  0.00000000000E+00  0.40861487608E+03  0.40861487608E+03  0.00000000000E+00 0.  1.
         -2   -1    0    0    0  501 -0.00000000000E+00 -0.00000000000E+00 -0.26944798931E+02  0.26944798931E+02  0.00000000000E+00 0. -1.
          2    1    1    2  502    0  0.65103091838E+02  0.80191556622E+02  0.22915868039E+03  0.25136188875E+03  0.00000000000E+00 0.  1.
         -2    1    1    2    0  502 -0.65103091838E+02 -0.80191556622E+02  0.15251139676E+03  0.18419778626E+03  0.00000000000E+00 0. -1.
</event>
<event>
 4    1  0.6145708E+003  0.2184814E+02  0.7546771E-02  0.1507492E+00
          2   -1    0    0  501    0  0.00000000000E+00  0.00000000000E+00  0.14751624653E+04  0.14751624653E+04  0.00000000000E+00 0. -1.
         -2   -1    0    0    0  501 -0.00000000000E+00 -0.00000000000E+00 -0.76364957143E+00  0.76364957143E+00  0.00000000000E+00 0. -1.
          2    1    1    2  502    0  0.70975850167E+01 -0.20663148902E+02  0.12974024171E+04  0.12975863645E+04  0.00000000000E+00 0. -1.
         -2    1    1    2    0  502 -0.70975850167E+01  0.20663148902E+02  0.17699639864E+03  0.17833975039E+03  0.00000000000E+00 0. -1.
</event>
<event>
 4    1  0.6145708E+003  0.2606818E+02  0.7546771E-02  0.1457200E+00
          2   -1    0    0  501    0  0.00000000000E+00  0.00000000000E+00  0.38305220534E+03  0.38305220534E+03  0.00000000000E+00 0.  1.
         -2   -1    0    0    0  501 -0.00000000000E+00 -0.00000000000E+00 -0.36498131948E+03  0.36498131948E+03  0.00000000000E+00 0.  1.
          2    1    1    2  502    0 -0.23237504914E+02 -0.11813906388E+02  0.38214211900E+03  0.38303021961E+03  0.00000000000E+00 0.  1.
         -2    1    1    2    0  502  0.23237504914E+02  0.11813906388E+02 -0.36407123314E+03  0.36500330521E+03  0.00000000000E+00 0.  1.
</event>
<event>
 4    1  0.6145708E+003  0.2914089E+02  0.7546771E-02  0.1427212E+00
          2   -1    0    0  501    0  0.00000000000E+00  0.00000000000E+00  0.18275949796E+02  0.18275949796E+02  0.00000000000E+00 0. -1.
         -2   -1    0    0    0  501 -0.00000000000E+00 -0.00000000000E+00 -0.23118356253E+03  0.23118356253E+03  0.00000000000E+00 0. -1.
          2    1    1    2  502    0 -0.25819229315E+02  0.13511442042E+02  0.50390108215E+01  0.29573354537E+02  0.00000000000E+00 0. -1.
         -2    1    1    2    0  502  0.25819229315E+02 -0.13511442042E+02 -0.21794662356E+03  0.21988615779E+03  0.00000000000E+00 0. -1.
</event>
<event>
 4    1  0.6145708E+003  0.2223809E+02  0.7546771E-02  0.1502294E+00
          2   -1    0    0  501    0  0.00000000000E+00  0.00000000000E+00  0.14009795565E+04  0.14009795565E+04  0.00000000000E+00 0.  1.
         -2   -1    0    0    0  501 -0.00000000000E+00 -0.00000000000E+00 -0.49918665690E+00  0.49918665690E+00  0.00000000000E+00 0.  1.
          2    1    1    2  502    0 -0.13054195675E+02 -0.18003350659E+02  0.10794615670E+04  0.10796906072E+04  0.00000000000E+00 0.  1.
         -2    1    1    2    0  502  0.13054195675E+02  0.18003350659E+02  0.32101880285E+03  0.32178813596E+03  0.00000000000E+00 0.  1.
</event>
<event>
 4    1  0.6145708E+003  0.2838115E+02  0.7546771E-02  0.1434207E+00
          2   -1    0    0  501    0  0.00000000000E+00  0.00000000000E+00  0.19604590843E+04  0.19604590843E+04  0.00000000000E+00 0. -1.
         -2   -1    0    0    0  501 -0.00000000000E+00 -0.00000000000E+00 -0.95880160110E+01  0.95880160110E+01  0.00000000000E+00 0.  1.
          2    1    1    2  502    0  0.26419944493E+02 -0.10367078178E+02  0.19391227731E+04  0.19393304564E+04  0.00000000000E+00 0. -1.
         -2    1    1    2    0  502 -0.26419944493E+02  0.10367078178E+02  0.11748295207E+02  0.30716643978E+02  0.00000000000E+00 0.  1.
</event>
<event>
 4    1  0.6145708E+003  0.2927573E+02  0.7546771E-02  0.1425996E+00
          2   -1    0    0  501    0  0.00000000000E+00  0.00000000000E+00  0.49107037567E+03  0.49107037567E+03  0.00000000000E+00 0.  1.
         -2   -1    0    0    0  501 -0.00000000000E+00 -0.00000000000E+00 -0.96347450924E+02  0.96347450924E+02  0.00000000000E+00 0.  1.
          2    1    1    2  502    0 -0.21262905088E+01 -0.29198407398E+02  0.48839799221E+03  0.48927463341E+03  0.00000000000E+00 0.  1.
         -2    1    1    2    0  502  0.21262905088E+01  0.29198407398E+02 -0.93675067458E+02  0.98143193188E+02  0.00000000000E+00 0.  1.
</event>
<event>
 4    1  0.6145708E+003  0.3465308E+02  0.7546771E-02  0.1383019E+00
          2   -1    0    0  501    0  0.00000000000E+00  0.00000000000E+00  0.74601202444E+03  0.74601202444E+03  0.00000000000E+00 0.  1.
         -2   -1    0    0    0  501 -0.00000000000E+00 -0.00000000000E+00 -0.16650749681E+01  0.16650749681E+01  0.00000000000E+00 0.  1.
          2    1    1    2  502    0 -0.17333379991E+02  0.30006496804E+02  0.44036449094E+03  0.44172584348E+03  0.00000000000E+00 0.  1.
         -2    1    1    2    0  502  0.17333379991E+02 -0.30006496804E+02  0.30398245853E+03  0.30595125594E+03  0.00000000000E+00 0.  1.
</event>
<event>
 4    1  0.6145708E+003  0.2104047E+02  0.7546771E-02  0.1518688E+00
          2   -1    0    0  501    0  0.00000000000E+00  0.00000000000E+00  0.13153978667E+04  0.13153978667E+04  0.00000000000E+00 0. -1.
         -2   -1    0    0    0  501 -0.00000000000E+00 -0.00000000000E+00 -0.15021230037E+01  0.15021230037E+01  0.00000000000E+00 0.  1.
          2    1    1    2  502    0 -0.99134554725E+01 -0.18558681359E+02  0.12369628506E+04  0.12371417846E+04  0.00000000000E+00 0. -1.
         -2    1    1    2    0  502  0.99134554725E+01  0.18558681359E+02  0.76932893101E+02  0.79758205184E+02  0.00000000000E+00 0.  1.
</event>
<event>
 4    1  0.6145708E+003  0.2028067E+02  0.7546771E-02  0.1529788E+00
          2   -1    0    0  501    0  0.00000000000E+00  0.00000000000E+00  0.50781697048E+03  0.50781697048E+03  0.00000000000E+00 0. -1.
         -2   -1    0    0    0  501 -0.00000000000E+00 -0.00000000000E+00 -0.28357938233E+02  0.28357938233E+02  0.00000000000E+00 0. -1.
          2    1    1    2  502    0 -0.20279713021E+02 -0.19697266322E+00  0.50396073097E+03  0.50436863891E+03  0.00000000000E+00 0. -1.
         -2    1    1    2    0  502  0.20279713021E+02  0.19697266322E+00 -0.24501698722E+02  0.31806269802E+02  0.00000000000E+00 0. -1.
</event>
<event>
 4    1  0.6145708E+003  0.2996046E+02  0.7546771E-02  0.1419940E+00
          2   -1    0    0  501    0  0.00000000000E+00  0.00000000000E+00  0.66657709314E+03  0.66657709314E+03  0.00000000000E+00 0. -1.
         -2   -1    0    0    0  501 -0.00000000000E+00 -0.00000000000E+00 -0.35665752623E+01  0.35665752623E+01  0.00000000000E+00 0. -1.
          2    1    1    2  502    0 -0.21551479567E+02  0.20812569405E+02  0.59585802416E+03  0.59661077284E+03  0.00000000000E+00 0. -1.
         -2    1    1    2    0  502  0.21551479567E+02 -0.20812569405E+02  0.67152493716E+02  0.73532895557E+02  0.00000000000E+00 0. -1.
</event>
<event>
 4    1  0.6145708E+003  0.2081469E+02  0.7546771E-02  0.1521927E+00
          2   -1    0    0  501    0  0.00000000000E+00  0.00000000000E+00  0.58696250836E+03  0.58696250836E+03  0.00000000000E+00 0. -1.
         -2   -1    0    0    0  501 -0.00000000000E+00 -0.00000000000E+00 -0.12851771634E+01  0.12851771634E+01  0.00000000000E+00 0.  1.
          2    1    1    2  502    0  0.20368802596E+02  0.42852131063E+01  0.48473357790E+03  0.48518026827E+03  0.00000000000E+00 0. -1.
         -2    1    1    2    0  502 -0.20368802596E+02 -0.42852131063E+01  0.10094375330E+03  0.10306741726E+03  0.00000000000E+00 0.  1.
</event>
<event>
 4    1  0.6624834E+003  0.2249966E+02  0.7546771E-02  0.1498878E+00
          2   -1    0    0  501    0  0.00000000000E+00  0.00000000000E+00  0.11613637577E+04  0.11613637577E+04  0.00000000000E+00 0. -1.
         -2   -1    0    0    0  501 -0.00000000000E+00 -0.00000000000E+00 -0.12528176902E+03  0.12528176902E+03  0.00000000000E+00 0.  1.
          2    1    1    2  502    0  0.22250088895E+02 -0.33419023891E+01  0.11602436159E+04  0.11604617542E+04  0.00000000000E+00 0. -1.
         -2    1    1    2    0  502 -0.22250088895E+02  0.33419023891E+01 -0.12416162722E+03  0.12618377250E+03  0.00000000000E+00 0.  1.
</event>
<event>
 4    1  0.6145708E+003  0.2125493E+02  0.7546771E-02  0.1515656E+00
          2   -1    0    0  501    0  0.00000000000E+00  0.00000000000E+00  0.40005615647E+01  0.40005615647E+01  0.00000000000E+00 0.  1.
         -2   -1    0    0    0  501 -0.00000000000E+00 -0.00000000000E+00 -0.14252777512E+03  0.14252777512E+03  0.00000000000E+00 0.  1.
          2    1    1    2  502    0  0.98737261082E+01 -0.18822369567E+02 -0.35875466804E+02  0.41699174833E+02  0.00000000000E+00 0.  1.
         -2    1    1    2    0  502 -0.98737261082E+01  0.18822369567E+02 -0.10265174675E+03  0.10482916185E+03  0.00000000000E+00 0.  1.
</event>
<event>
 4    1  0.6145708E+003  0.2203946E+02  0.7546771E-02  0.1504925E+00
          2   -1    0    0  501    0  0.00000000000E+00  0.00000000000E+00  0.28084740196E+03  0.28084740196E+03  0.00000000000E+00 0.  1.
         -2   -1    0    0    0  501 -0.00000000000E+00 -0.00000000000E+00 -0.87877964271E+02  0.87877964271E+02  0.00000000000E+00 0.  1.
          2    1    1    2  502    0  0.11541696341E+02  0.18775707795E+02  0.27902414670E+03  0.27989321607E+03  0.00000000000E+00 0.  1.
         -2    1    1    2    0  502 -0.11541696341E+02 -0.18775707795E+02 -0.86054709018E+02  0.88832150158E+02  0.00000000000E+00 0.  1.
</event>
<event>
 4    1  0.6145708E+003  0.2071662E+02  0.7546771E-02  0.1523350E+00
          2   -1    0    0  501    0  0.00000000000E+00  0.00000000000E+00  0.47110965316E+03  0.47110965316E+03  0.00000000000E+00 0. -1.
         -2   -1    0    0    0  501 -0.00000000000E+00 -0.00000000000E+00 -0.55986138466E+02  0.55986138466E+02  0.00000000000E+00 0.  1.
          2    1    1    2  502    0  0.13246391195E+02  0.15928317781E+02  0.46895666200E+03  0.46941402729E+03  0.00000000000E+00 0. -1.
         -2    1    1    2    0  502 -0.13246391195E+02 -0.15928317781E+02 -0.53833147308E+02  0.57681764329E+02  0.00000000000E+00 0.  1.
</event>
<event>
 4    1  0.6145708E+003  0.2208906E+02  0.7546771E-02  0.1504265E+00
          2   -1    0    0  501    0  0.00000000000E+00  0.00000000000E+00  0.65167768516E+03  0.65167768516E+03  0.00000000000E+00 0.  1.
         -2   -1    0    0    0  501 -0.00000000000E+00 -0.00000000000E+00 -0.33910289600E+02  0.33910289600E+02  0.00000000000E+00 0.  1.
          2    1    1    2  502    0  0.29305450486E+01  0.21893798745E+02  0.64787219481E+03  0.64824864622E+03  0.00000000000E+00 0.  1.
         -2    1    1    2    0  502 -0.29305450486E+01 -0.21893798745E+02 -0.30104799251E+02  0.37339328539E+02  0.00000000000E+00 0.  1.
</event>
<event>
 4    1  0.6145708E+003  0.2863021E+02  0.7546771E-02  0.1431886E+00
          2   -1    0    0  501    0  0.00000000000E+00  0.00000000000E+00  0.18703583323E+02  0.18703583323E+02  0.00000000000E+00 0. -1.
         -2   -1    0    0    0  501 -0.00000000000E+00 -0.00000000000E+00 -0.95621582662E+02  0.95621582662E+02  0.00000000000E+00 0.  1.
          2    1    1    2  502    0 -0.27882991660E+02 -0.64982646254E+01  0.36120656871E+01  0.28857160040E+02  0.00000000000E+00 0. -1.
         -2    1    1    2    0  502  0.27882991660E+02  0.64982646254E+01 -0.80530065027E+02  0.85468005945E+02  0.00000000000E+00 0.  1.
</event>
<event>
 4    1  0.6145708E+003  0.2793024E+02  0.7546771E-02  0.1438481E+00
          2   -1    0    0  501    0  0.00000000000E+00  0.00000000000E+00  0.16374766760E+03  0.16374766760E+03  0.00000000000E+00 0. -1.
         -2   -1    0    0    0  501 -0.00000000000E+00 -0.00000000000E+00 -0.26091484453E+02  0.26091484453E+02  0.00000000000E+00 0.  1.
          2    1    1    2  502    0  0.27889938514E+02  0.14997973081E+01  0.15464561018E+03  0.15714758290E+03  0.00000000000E+00 0. -1.
         -2    1    1    2    0  502 -0.27889938514E+02 -0.14997973081E+01 -0.16989427040E+02  0.32691569149E+02  0.00000000000E+00 0.  1.
</event>
<event>
 4    1  0.6145708E+003  0.3986055E+02  0.7546771E-02  0.1349305E+00
          2   -1    0    0  501    0  0.00000000000E+00  0.00000000000E+00  0.38679568485E+03  0.38679568485E+03  0.00000000000E+00 0. -1.
         -2   -1    0    0    0  501 -0.00000000000E+00 -0.00000000000E+00 -0.41617244097E+01  0.41617244097E+01  0.00000000000E+00 0. -1.
          2    1    1    2  502    0 -0.20681790443E+02  0.34075316489E+02  0.21357663951E+03  0.21726445773E+03  0.00000000000E+00 0. -1.
         -2    1    1    2    0  502  0.20681790443E+02 -0.34075316489E+02  0.16905732093E+03  0.17369295153E+03  0.00000000000E+00 0. -1.
</event>
<event>
 4    1  0.6145708E+003  0.2308881E+02  0.7546771E-02  0.1491386E+00
          2   -1    0    0  501    0  0.00000000000E+00  0.00000000000E+00  0.13459301747E+04  0.13459301747E+04  0.00000000000E+00 0.  1.
         -2   -1    0    0    0  501 -0.00000000000E+00 -0.00000000000E+00 -0.43434467704E+00  0.43434467704E+00  0.00000000000E+00 0.  1.
          2    1    1    2  502    0 -0.19092848178E+02 -0.12982924091E+02  0.87256217099E+03  0.87286759329E+03  0.00000000000E+00 0.  1.
         -2    1    1    2    0  502  0.19092848178E+02  0.12982924091E+02  0.47293365901E+03  0.47349692607E+03  0.00000000000E+00 0.  1.
</event>
<event>
 4    1  0.6145708E+003  0.2046821E+02  0.7546771E-02  0.1526995E+00
          2   -1    0    0  501    0  0.00000000000E+00  0.00000000000E+00  0.10461297368E+03  0.10461297368E+03  0.00000000000E+00 0. -1.
         -2   -1    0    0    0  501 -0.00000000000E+00 -0.00000000000E+00 -0.60069206951E+01  0.60069206951E+01  0.00000000000E+00 0.  1.
          2    1    1    2  502    0 -0.17105353980E+02 -0.11240744177E+02  0.81235255561E+02  0.83774185824E+02  0.00000000000E+00 0. -1.
         -2    1    1    2    0  502  0.17105353980E+02  0.11240744177E+02  0.17370797421E+02  0.26845708548E+02  0.00000000000E+00 0.  1.
</event>
<event>
 4    1  0.6145708E+003  0.3395526E+02  0.7546771E-02  0.1388061E+00
          2   -1    0    0  501    0  0.00000000000E+00  0.00000000000E+00  0.53340765443E+03  0.53340765443E+03  0.00000000000E+00 0.  1.
         -2   -1    0    0    0  501 -0.00000000000E+00 -0.00000000000E+00 -0.36748604470E+02  0.36748604470E+02  0.00000000000E+00 0.  1.
          2    1    1    2  502    0 -0.31625052598E+02  0.12361872429E+02  0.52489667037E+03  0.52599379693E+03  0.00000000000E+00 0.  1.
         -2    1    1    2    0  502  0.31625052598E+02 -0.12361872429E+02 -0.28237620404E+02  0.44162461977E+02  0.00000000000E+00 0.  1.
</event>
<event>
 4    1  0.6145708E+003  0.3997452E+02  0.7546771E-02  0.1348635E+00
          2   -1    0    0  501    0  0.00000000000E+00  0.00000000000E+00  0.15705957528E+04  0.15705957528E+04  0.00000000000E+00 0.  1.
         -2   -1    0    0    0  501 -0.00000000000E+00 -0.00000000000E+00 -0.64217688996E+02  0.64217688996E+02  0.00000000000E+00 0.  1.
          2    1    1    2  502    0  0.81023200228E+01 -0.39144786900E+02  0.15640946650E+04  0.15646054081E+04  0.00000000000E+00 0.  1.
         -2    1    1    2    0  502 -0.81023200228E+01  0.39144786900E+02 -0.57716601245E+02  0.70208033660E+02  0.00000000000E+00 0.  1.
</event>
<event>
 4    1  0.6145708E+003  0.2672188E+02  0.7546771E-02  0.1450422E+00
          2   -1    0    0  501    0  0.00000000000E+00  0.00000000000E+00  0.35900415566E+03  0.35900415566E+03  0.00000000000E+00 0. -1.
         -2   -1    0    0    0  501 -0.00000000000E+00 -0.00000000000E+00 -0.65552793562E+01  0.65552793562E+01  0.00000000000E+00 0. -1.
          2    1    1    2  502    0 -0.22537223208E+02  0.14357312609E+02  0.32877495828E+03  0.32985910939E+03  0.00000000000E+00 0. -1.
         -2    1    1    2    0  502  0.22537223208E+02 -0.14357312609E+02  0.23673918026E+02  0.35700325629E+02  0.00000000000E+00 0. -1.
</event>
<event>
 4    1  0.6145708E+003  0.2321141E+02  0.7546771E-02  0.1489860E+00
          2   -1    0    0  501    0  0.00000000000E+00  0.00000000000E+00  0.47397726691E+03  0.47397726691E+03  0.00000000000E+00 0. -1.
         -2   -1    0    0    0  501 -0.00000000000E+00 -0.00000000000E+00 -0.18646682101E+02  0.18646682101E+02  0.00000000000E+00 0.  1.
          2    1    1    2  502    0  0.16938819788E+02  0.15869660237E+02  0.46635165120E+03  0.46692893711E+03  0.00000000000E+00 0. -1.
         -2    1    1    2    0  502 -0.16938819788E+02 -0.15869660237E+02 -0.11021066397E+02  0.25695011897E+02  0.00000000000E+00 0.  1.
</event>
<event>
 4    1  0.6145708E+003  0.2761321E+02  0.7546771E-02  0.1441544E+00
          2   -1    0    0  501    0  0.00000000000E+00  0.00000000000E+00  0.21599105289E+04  0.21599105289E+04  0.00000000000E+00 0.  1.
         -2   -1    0    0    0  501 -0.00000000000E+00 -0.00000000000E+00 -0.38588083667E+00  0.38588083667E+00  0.00000000000E+00 0.  1.
          2    1    1    2  502    0  0.34888756845E+01  0.27391917607E+02  0.13949743772E+04  0.13952476491E+04  0.00000000000E+00 0.  1.
         -2    1    1    2    0  502 -0.34888756845E+01 -0.27391917607E+02  0.76455027096E+03  0.76504876068E+03  0.00000000000E+00 0.  1.
</event>
<event>
 4    1  0.6145708E+003  0.4789246E+02  0.7546771E-02  0.1307578E+00
          2   -1    0    0  501    0  0.00000000000E+00  0.00000000000E+00  0.15551690132E+04  0.15551690132E+04  0.00000000000E+00 0.  1.
         -2   -1    0    0    0  501 -0.00000000000E+00 -0.00000000000E+00 -0.19295882040E+02  0.19295882040E+02  0.00000000000E+00 0. -1.
          2    1    1    2  502    0 -0.37231484681E+02  0.30124809401E+02  0.15244849864E+04  0.15252370836E+04  0.00000000000E+00 0.  1.
         -2    1    1    2    0  502  0.37231484681E+02 -0.30124809401E+02  0.11388144767E+02  0.49227811593E+02  0.00000000000E+00 0. -1.
</event>
<event>
 4    1  0.6145708E+003  0.2155399E+02  0.7546771E-02  0.1511500E+00
          2   -1    0    0  501    0  0.00000000000E+00  0.00000000000E+00  0.15416747748E+04  0.15416747748E+04  0.00000000000E+00 0. -1.
         -2   -1    0    0    0  501 -0.00000000000E+00 -0.00000000000E+00 -0.18430706203E+01  0.18430706203E+01  0.00000000000E+00 0.  1.
          2    1    1    2  502    0 -0.19842489413E+02 -0.84172497000E+01  0.14757689962E+04  0.14759263886E+04  0.00000000000E+00 0. -1.
         -2    1    1    2    0  502  0.19842489413E+02  0.84172497000E+01  0.64062707964E+02  0.67591456785E+02  0.00000000000E+00 0.  1.
</event>
<event>
 4    1  0.6145708E+003  0.3726942E+02  0.7546771E-02  0.1365275E+00
          2   -1    0    0  501    0  0.00000000000E+00  0.00000000000E+00  0.25550110869E+04  0.25550110869E+04  0.00000000000E+00 0. -1.
         -2   -1    0    0    0  501 -0.00000000000E+00 -0.00000000000E+00 -0.62823629966E+01  0.62823629966E+01  0.00000000000E+00 0. -1.
          2    1    1    2  502    0 -0.27618366034E+02 -0.25024698448E+02  0.24983474300E+04  0.24986254002E+04  0.00000000000E+00 0. -1.
         -2    1    1    2    0  502  0.27618366034E+02  0.25024698448E+02  0.50381293937E+02  0.62668049703E+02  0.00000000000E+00 0. -1.
</event>
<event>
 4    1  0.6145708E+003  0.2333775E+02  0.7546771E-02  0.1488300E+00
          2   -1    0    0  501    0  0.00000000000E+00  0.00000000000E+00  0.14805739985E+04  0.14805739985E+04  0.00000000000E+00 0. -1.
         -2   -1    0    0    0  501 -0.00000000000E+00 -0.00000000000E+00 -0.59298628699E+00  0.59298628699E+00  0.00000000000E+00 0.  1.
          2    1    1    2  502    0 -0.19410984817E+02 -0.12956247915E+02  0.11963009567E+04  0.11965285745E+04  0.00000000000E+00 0. -1.
         -2    1    1    2    0  502  0.19410984817E+02  0.12956247915E+02  0.28368005553E+03  0.28463841027E+03  0.00000000000E+00 0.  1.
</event>
<event>
 4    1  0.6145708E+003  0.2163501E+02  0.7546771E-02  0.1510388E+00
          2   -1    0    0  501    0  0.00000000000E+00  0.00000000000E+00  0.62274435878E+01  0.62274435878E+01  0.00000000000E+00 0. -1.
         -2   -1    0    0    0  501 -0.00000000000E+00 -0.00000000000E+00 -0.78308189315E+02  0.78308189315E+02  0.00000000000E+00 0.  1.
          2    1    1    2  502    0  0.18137620725E+02  0.11794087970E+02 -0.27569569863E+02  0.35045042146E+02  0.00000000000E+00 0.  1.
         -2    1    1    2    0  502 -0.18137620725E+02 -0.11794087970E+02 -0.44511175864E+02  0.49490590756E+02  0.00000000000E+00 0. -1.
</event>
<event>
 4    1  0.6145708E+003  0.2150832E+02  0.7546771E-02  0.1512130E+00
          2   -1    0    0  501    0  0.00000000000E+00  0.00000000000E+00  0.60874071689E+03  0.60874071689E+03  0.00000000000E+00 0. -1.
         -2   -1    0    0    0  501 -0.00000000000E+00 -0.00000000000E+00 -0.60760774554E+01  0.60760774554E+01  0.00000000000E+00 0. -1.
          2    1    1    2  502    0  0.16948667298E+02 -0.13242002984E+02  0.58887483863E+03  0.58926749744E+03  0.00000000000E+00 0. -1.
         -2    1    1    2    0  502 -0.16948667298E+02  0.13242002984E+02  0.13789800805E+02  0.25549296907E+02  0.00000000000E+00 0. -1.
</event>
<event>
 4    1  0.6145708E+003  0.2033554E+02  0.7546771E-02  0.1528967E+00
          2   -1    0    0  501    0  0.00000000000E+00  0.00000000000E+00  0.21219987143E+03  0.21219987143E+03  0.00000000000E+00 0. -1.
         -2   -1    0    0    0  501 -0.00000000000E+00 -0.00000000000E+00 -0.12577870982E+03  0.12577870982E+03  0.00000000000E+00 0. -1.
          2    1    1    2  502    0 -0.19855352258E+02  0.43930720858E+01  0.21088561431E+03  0.21186381574E+03  0.00000000000E+00 0. -1.
         -2    1    1    2    0  502  0.19855352258E+02 -0.43930720858E+01 -0.12446445270E+03  0.12611476551E+03  0.00000000000E+00 0. -1.
</event>
<event>
 4    1  0.6145708E+003  0.3530119E+02  0.7546771E-02  0.1378458E+00
          2   -1    0    0  501    0  0.00000000000E+00  0.00000000000E+00  0.54399714848E+03  0.54399714848E+03  0.00000000000E+00 0.  1.
         -2   -1    0    0    0  501 -0.00000000000E+00 -0.00000000000E+00 -0.73188894373E+03  0.73188894373E+03  0.00000000000E+00 0.  1.
          2    1    1    2  502    0 -0.67356110455E+01  0.34652641995E+02  0.54299800230E+03  0.54414428652E+03  0.00000000000E+00 0.  1.
         -2    1    1    2    0  502  0.67356110455E+01 -0.34652641995E+02 -0.73088979754E+03  0.73174180569E+03  0.00000000000E+00 0.  1.
</event>
<event>
 4    1  0.6145708E+003  0.2282836E+02  0.7546771E-02  0.1494665E+00
          2   -1    0    0  501    0  0.00000000000E+00  0.00000000000E+00  0.70620096097E+03  0.70620096097E+03  0.00000000000E+00 0. -1.
         -2   -1    0    0    0  501 -0.00000000000E+00 -0.00000000000E+00 -0.45836068675E+01  0.45836068675E+01  0.00000000000E+00 0. -1.
          2    1    1    2  502    0  0.22381713742E+02  0.44936682161E+01  0.67633800817E+03  0.67672316013E+03  0.00000000000E+00 0. -1.
         -2    1    1    2    0  502 -0.22381713742E+02 -0.44936682161E+01  0.25279345932E+02  0.34061407705E+02  0.00000000000E+00 0. -1.
</event>
<event>
 4    1  0.6145708E+003  0.2014944E+02  0.7546771E-02  0.1531763E+00
          2   -1    0    0  501    0  0.00000000000E+00  0.00000000000E+00  0.78583495014E+02  0.78583495014E+02  0.00000000000E+00 0. -1.
         -2   -1    0    0    0  501 -0.00000000000E+00 -0.00000000000E+00 -0.63808455687E+01  0.63808455687E+01  0.00000000000E+00 0. -1.
          2    1    1    2  502    0  0.30985831628E+01 -0.19909761548E+02  0.54634201187E+02  0.58231398420E+02  0.00000000000E+00 0. -1.
         -2    1    1    2    0  502 -0.30985831628E+01  0.19909761548E+02  0.17568448258E+02  0.26732942163E+02  0.00000000000E+00 0. -1.
</event>
<event>
 4    1  0.6145708E+003  0.3464153E+02  0.7546771E-02  0.1383101E+00
          2   -1    0    0  501    0  0.00000000000E+00  0.00000000000E+00  0.22715504429E+04  0.22715504429E+04  0.00000000000E+00 0. -1.
         -2   -1    0    0    0  501 -0.00000000000E+00 -0.00000000000E+00 -0.72762030992E+01  0.72762030992E+01  0.00000000000E+00 0.  1.
          2    1    1    2  502    0  0.33975923889E+02 -0.67581326108E+01  0.22294074858E+04  0.22296766074E+04  0.00000000000E+00 0. -1.
         -2    1    1    2    0  502 -0.33975923889E+02  0.67581326108E+01  0.34866753962E+02  0.49150038580E+02  0.00000000000E+00 0.  1.
</event>
<event>
 4    1  0.6145708E+003  0.2318464E+02  0.7546771E-02  0.1490193E+00
          2   -1    0    0  501    0  0.00000000000E+00  0.00000000000E+00  0.65392377666E+03  0.65392377666E+03  0.00000000000E+00 0.  1.
         -2   -1    0    0    0  501 -0.00000000000E+00 -0.00000000000E+00 -0.11298986618E+01  0.11298986618E+01  0.00000000000E+00 0.  1.
          2    1    1    2  502    0 -0.23113771713E+02 -0.18113575965E+01  0.49737042427E+03  0.49791050039E+03  0.00000000000E+00 0.  1.
         -2    1    1    2    0  502  0.23113771713E+02  0.18113575965E+01  0.15542345373E+03  0.15714317493E+03  0.00000000000E+00 0.  1.
</event>
<event>
 4    1  0.6145708E+003  0.2131343E+02  0.7546771E-02  0.1514837E+00
          2   -1    0    0  501    0  0.00000000000E+00  0.00000000000E+00  0.62738371231E+02  0.62738371231E+02  0.00000000000E+00 0. -1.
         -2   -1    0    0    0  501 -0.00000000000E+00 -0.00000000000E+00 -0.21804058401E+03  0.21804058401E+03  0.00000000000E+00 0.  1.
          2    1    1    2  502    0  0.19822273277E+02 -0.78319794661E+01  0.60387699415E+02  0.64038556049E+02  0.00000000000E+00 0. -1.
         -2    1    1    2    0  502 -0.19822273277E+02  0.78319794661E+01 -0.21568991219E+03  0.21674039919E+03  0.00000000000E+00 0.  1.
</event>
<event>
 4    1  0.6145708E+003  0.2649328E+02  0.7546771E-02  0.1452766E+00
          2   -1    0    0  501    0  0.00000000000E+00  0.00000000000E+00  0.15205075805E+03  0.15205075805E+03  0.00000000000E+00 0. -1.
         -2   -1    0    0    0  501 -0.00000000000E+00 -0.00000000000E+00 -0.20056634647E+02  0.20056634647E+02  0.00000000000E+00 0.  1.
          2    1    1    2  502    0 -0.15135906229E+02  0.21743923875E+02  0.14150115910E+03  0.14395996634E+03  0.00000000000E+00 0. -1.
         -2    1    1    2    0  502  0.15135906229E+02 -0.21743923875E+02 -0.95070356935E+01  0.28147426357E+02  0.00000000000E+00 0.  1.
</event>
<event>
 4    1  0.6145708E+003  0.2076026E+02  0.7546771E-02  0.1522715E+00
          2   -1    0    0  501    0  0.00000000000E+00  0.00000000000E+00  0.68469179316E+02  0.68469179316E+02  0.00000000000E+00 0.  1.
         -2   -1    0    0    0  501 -0.00000000000E+00 -0.00000000000E+00 -0.13704922835E+02  0.13704922835E+02  0.00000000000E+00 0.  1.
          2    1    1    2  502    0 -0.92579816102E+01 -0.18581666936E+02  0.57594455502E+02  0.61221808812E+02  0.00000000000E+00 0.  1.
         -2    1    1    2    0  502  0.92579816102E+01  0.18581666936E+02 -0.28301990218E+01  0.20952293338E+02  0.00000000000E+00 0.  1.
</event>
<event>
 4    1  0.6145708E+003  0.3789684E+02  0.7546771E-02  0.1361271E+00
          2   -1    0    0  501    0  0.00000000000E+00  0.00000000000E+00  0.16459605936E+04  0.16459605936E+04  0.00000000000E+00 0. -1.
         -2   -1    0    0    0  501 -0.00000000000E+00 -0.00000000000E+00 -0.32944656056E+02  0.32944656056E+02  0.00000000000E+00 0.  1.
          2    1    1    2  502    0 -0.13731377237E+02 -0.35321659601E+02  0.16347695055E+04  0.16352087043E+04  0.00000000000E+00 0. -1.
         -2    1    1    2    0  502  0.13731377237E+02  0.35321659601E+02 -0.21753567982E+02  0.43696545375E+02  0.00000000000E+00 0.  1.
</event>
<event>
 4    1  0.6145708E+003  0.2873976E+02  0.7546771E-02  0.1430873E+00
          2   -1    0    0  501    0  0.00000000000E+00  0.00000000000E+00  0.21113462562E+03  0.21113462562E+03  0.00000000000E+00 0. -1.
         -2   -1    0    0    0  501 -0.00000000000E+00 -0.00000000000E+00 -0.70983251438E+01  0.70983251438E+01  0.00000000000E+00 0. -1.
          2    1    1    2  502    0 -0.47219486646E+01  0.28349197278E+02  0.17512407018E+03  0.17746665529E+03  0.00000000000E+00 0. -1.
         -2    1    1    2    0  502  0.47219486646E+01 -0.28349197278E+02  0.28912230298E+02  0.40766295470E+02  0.00000000000E+00 0. -1.
</event>
<event>
 4    1  0.6145708E+003  0.2670565E+02  0.7546771E-02  0.1450588E+00
          2   -1    0    0  501    0  0.00000000000E+00  0.00000000000E+00  0.11134588964E+04  0.11134588964E+04  0.00000000000E+00 0.  1.
         -2   -1    0    0    0  501 -0.00000000000E+00 -0.00000000000E+00 -0.79745944817E+00  0.79745944817E+00  0.00000000000E+00 0. -1.
          2    1    1    2  502    0 -0.23877288161E+01 -0.26598690221E+02  0.80348507794E+03  0.80392876677E+03  0.00000000000E+00 0.  1.
         -2    1    1    2    0  502  0.23877288161E+01  0.26598690221E+02  0.30917635901E+03  0.31032758907E+03  0.00000000000E+00 0. -1.
</event>
<event>
 4    1  0.6145708E+003  0.2007455E+02  0.7546771E-02  0.1532899E+00
          2   -1    0    0  501    0  0.00000000000E+00  0.00000000000E+00  0.35530150973E+03  0.35530150973E+03  0.00000000000E+00 0.  1.
         -2   -1    0    0    0  501 -0.00000000000E+00 -0.00000000000E+00 -0.33061984528E+01  0.33061984528E+01  0.00000000000E+00 0. -1.
          2    1    1    2  502    0  0.16892472012E+02  0.10845833097E+02  0.32132709202E+03  0.32195354910E+03  0.00000000000E+00 0.  1.
         -2    1    1    2    0  502 -0.16892472012E+02 -0.10845833097E+02  0.30668219250E+02  0.36654159085E+02  0.00000000000E+00 0. -1.
</event>
<event>
 4    1  0.6145708E+003  0.2671271E+02  0.7546771E-02  0.1450516E+00
          2   -1    0    0  501    0  0.00000000000E+00  0.00000000000E+00  0.15861450712E+04  0.15861450712E+04  0.00000000000E+00 0.  1.
         -2   -1    0    0    0  501 -0.00000000000E+00 -0.00000000000E+00 -0.31556962063E+02  0.31556962063E+02  0.00000000000E+00 0.  1.
          2    1    1    2  502    0  0.15062351221E+01 -0.26670209386E+02  0.15803588840E+04  0.15805846296E+04  0.00000000000E+00 0.  1.
         -2    1    1    2    0  502 -0.15062351221E+01  0.26670209386E+02 -0.25770774953E+02  0.37117403662E+02  0.00000000000E+00 0.  1.
</event>
<event>
 4    1  0.6145708E+003  0.2477984E+02  0.7546771E-02  0.1471281E+00
          2   -1    0    0  501    0  0.00000000000E+00  0.00000000000E+00  0.29066131078E+03  0.29066131078E+03  0.00000000000E+00 0. -1.
         -2   -1    0    0    0  501 -0.00000000000E+00 -0.00000000000E+00 -0.23731161820E+02  0.23731161820E+02  0.00000000000E+00 0. -1.
          2    1    1    2  502    0 -0.64347440999E+01  0.23929780017E+02  0.28350139859E+03  0.28458229619E+03  0.00000000000E+00 0. -1.
         -2    1    1    2    0  502  0.64347440999E+01 -0.23929780017E+02 -0.16571249630E+02  0.29810176410E+02  0.00000000000E+00 0. -1.
</event>
<event>
 4    1  0.6145708E+003  0.2466494E+02  0.7546771E-02  0.1472587E+00
          2   -1    0    0  501    0  0.00000000000E+00  0.00000000000E+00  0.20591772775E+03  0.20591772775E+03  0.00000000000E+00 0. -1.
         -2   -1    0    0    0  501 -0.00000000000E+00 -0.00000000000E+00 -0.62820986326E+01  0.62820986326E+01  0.00000000000E+00 0. -1.
          2    1    1    2  502    0  0.39286938111E+01  0.24350040281E+02  0.17703891573E+03  0.17874880917E+03  0.00000000000E+00 0. -1.
         -2    1    1    2    0  502 -0.39286938111E+01 -0.24350040281E+02  0.22596713390E+02  0.33451017216E+02  0.00000000000E+00 0. -1.
</event>
<event>
 4    1  0.6145708E+003  0.4148488E+02  0.7546771E-02  0.1339997E+00
          2   -1    0    0  501    0  0.00000000000E+00  0.00000000000E+00  0.25660453696E+04  0.25660453696E+04  0.00000000000E+00 0. -1.
         -2   -1    0    0    0  501 -0.00000000000E+00 -0.00000000000E+00 -0.17334282940E+01  0.17334282940E+01  0.00000000000E+00 0.  1.
          2    1    1    2  502    0  0.32584412434E+02 -0.25675894178E+02  0.22874425096E+04  0.22878186620E+04  0.00000000000E+00 0. -1.
         -2    1    1    2    0  502 -0.32584412434E+02  0.25675894178E+02  0.27686943163E+03  0.27996013582E+03  0.00000000000E+00 0.  1.
</event>
<event>
 4    1  0.6145708E+003  0.2816360E+02  0.7546771E-02  0.1436257E+00
          2   -1    0    0  501    0  0.00000000000E+00  0.00000000000E+00  0.21177255710E+04  0.21177255710E+04  0.00000000000E+00 0. -1.
         -2   -1    0    0    0  501 -0.00000000000E+00 -0.00000000000E+00 -0.55890227635E+00  0.55890227635E+00  0.00000000000E+00 0. -1.
          2    1    1    2  502    0 -0.24257161939E+02  0.14310085422E+02  0.16668776383E+04  0.16671155478E+04  0.00000000000E+00 0. -1.
         -2    1    1    2    0  502  0.24257161939E+02 -0.14310085422E+02  0.45028903036E+03  0.45116892547E+03  0.00000000000E+00 0. -1.
</event>
<event>
 4    1  0.6145708E+003  0.3459448E+02  0.7546771E-02  0.1383437E+00
          2   -1    0    0  501    0  0.00000000000E+00  0.00000000000E+00  0.70234116373E+03  0.70234116373E+03  0.00000000000E+00 0. -1.
         -2   -1    0    0    0  501 -0.00000000000E+00 -0.00000000000E+00 -0.31203065860E+02  0.31203065860E+02  0.00000000000E+00 0. -1.
          2    1    1    2  502    0  0.18804914063E+01 -0.34543336626E+02  0.69218595059E+03  0.69304990336E+03  0.00000000000E+00 0. -1.
         -2    1    1    2    0  502 -0.18804914063E+01  0.34543336626E+02 -0.21047852716E+02  0.40494326234E+02  0.00000000000E+00 0. -1.
</event>
<event>
 4    1  0.6145708E+003  0.2077227E+02  0.7546771E-02  0.1522541E+00
          2   -1    0    0  501    0  0.00000000000E+00  0.00000000000E+00  0.22366567220E+01  0.22366567220E+01  0.00000000000E+00 0.  1.
         -2   -1    0    0    0  501 -0.00000000000E+00 -0.00000000000E+00 -0.19294209174E+03  0.19294209174E+03  0.00000000000E+00 0.  1.
          2    1    1    2  502    0  0.17257743199E+01 -0.20700445334E+02 -0.96488876626E+02  0.98699493649E+02  0.00000000000E+00 0.  1.
         -2    1    1    2    0  502 -0.17257743199E+01  0.20700445334E+02 -0.94216558397E+02  0.96479254818E+02  0.00000000000E+00 0.  1.
</event>
<event>
 4    1  0.6145708E+003  0.2245352E+02  0.7546771E-02  0.1499477E+00
          2   -1    0    0  501    0  0.00000000000E+00  0.00000000000E+00  0.27072200647E+02  0.27072200647E+02  0.00000000000E+00 0.  1.
         -2   -1    0    0    0  501 -0.00000000000E+00 -0.00000000000E+00 -0.13372564813E+03  0.13372564813E+03  0.00000000000E+00 0. -1.
          2    1    1    2  502    0 -0.21561831627E+02 -0.62648313876E+01  0.21264182193E+02  0.30924523274E+02  0.00000000000E+00 0.  1.
         -2    1    1    2    0  502  0.21561831627E+02  0.62648313876E+01 -0.12791762968E+03  0.12987332550E+03  0.00000000000E+00 0. -1.
</event>
<event>
 4    1  0.6145708E+003  0.2456012E+02  0.7546771E-02  0.1473785E+00
          2   -1    0    0  501    0  0.00000000000E+00  0.00000000000E+00  0.22316360245E+02  0.22316360245E+02  0.00000000000E+00 0.  1.
         -2   -1    0    0    0  501 -0.00000000000E+00 -0.00000000000E+00 -0.52249673238E+02  0.52249673238E+02  0.00000000000E+00 0. -1.
          2    1    1    2  502    0 -0.24268744104E+02  0.37719253829E+01  0.10935955396E+02  0.26884837398E+02  0.00000000000E+00 0.  1.
         -2    1    1    2    0  502  0.24268744104E+02 -0.37719253829E+01 -0.40869268389E+02  0.47681196085E+02  0.00000000000E+00 0. -1.
</event>
<event>
 4    1  0.6145708E+003  0.2579641E+02  0.7546771E-02  0.1460088E+00
          2   -1    0    0  501    0  0.00000000000E+00  0.00000000000E+00  0.90501107859E+02  0.90501107859E+02  0.00000000000E+00 0.  1.
         -2   -1    0    0    0  501 -0.00000000000E+00 -0.00000000000E+00 -0.41770258292E+02  0.41770258292E+02  0.00000000000E+00 0.  1.
          2    1    1    2  502    0 -0.23436386726E+02  0.10779169341E+02  0.84398472774E+02  0.88252801208E+02  0.00000000000E+00 0.  1.
         -2    1    1    2    0  502  0.23436386726E+02 -0.10779169341E+02 -0.35667623207E+02  0.44018564944E+02  0.00000000000E+00 0.  1.
</event>
<event>
 4    1  0.6145708E+003  0.2525633E+02  0.7546771E-02  0.1465956E+00
          2   -1    0    0  501    0  0.00000000000E+00  0.00000000000E+00  0.45033642384E+03  0.45033642384E+03  0.00000000000E+00 0.  1.
         -2   -1    0    0    0  501 -0.00000000000E+00 -0.00000000000E+00 -0.17391243050E+02  0.17391243050E+02  0.00000000000E+00 0.  1.
          2    1    1    2  502    0 -0.24634478419E+02  0.55699890729E+01  0.44061047737E+03  0.44133374568E+03  0.00000000000E+00 0.  1.
         -2    1    1    2    0  502  0.24634478419E+02 -0.55699890729E+01 -0.76652965802E+01  0.26393921212E+02  0.00000000000E+00 0.  1.
</event>
<event>
 4    1  0.6145708E+003  0.2995608E+02  0.7546771E-02  0.1419979E+00
          2   -1    0    0  501    0  0.00000000000E+00  0.00000000000E+00  0.13294313276E+03  0.13294313276E+03  0.00000000000E+00 0.  1.
         -2   -1    0    0    0  501 -0.00000000000E+00 -0.00000000000E+00 -0.89659929695E+02  0.89659929695E+02  0.00000000000E+00 0. -1.
          2    1    1    2  502    0 -0.15002496982E+02  0.25928588505E+02  0.12867152289E+03  0.13211255588E+03  0.00000000000E+00 0.  1.
         -2    1    1    2    0  502  0.15002496982E+02 -0.25928588505E+02 -0.85388319827E+02  0.90490506576E+02  0.00000000000E+00 0. -1.
</event>
<event>
 4    1  0.6145708E+003  0.2212957E+02  0.7546771E-02  0.1503727E+00
          2   -1    0    0  501    0  0.00000000000E+00  0.00000000000E+00  0.84080146887E+03  0.84080146887E+03  0.00000000000E+00 0. -1.
         -2   -1    0    0    0  501 -0.00000000000E+00 -0.00000000000E+00 -0.11332777699E+02  0.11332777699E+02  0.00000000000E+00 0. -1.
          2    1    1    2  502    0 -0.59232854034E+01  0.21322114757E+02  0.82970831678E+03  0.83000337881E+03  0.00000000000E+00 0. -1.
         -2    1    1    2    0  502  0.59232854034E+01 -0.21322114757E+02 -0.23962560928E+00  0.22130867766E+02  0.00000000000E+00 0. -1.
</event>
<event>
 4    1  0.6145708E+003  0.3068604E+02  0.7546771E-02  0.1413727E+00
          2   -1    0    0  501    0  0.00000000000E+00  0.00000000000E+00  0.12786573421E+04  0.12786573421E+04  0.00000000000E+00 0. -1.
         -2   -1    0    0    0  501 -0.00000000000E+00 -0.00000000000E+00 -0.73651149074E+00  0.73651149074E+00  0.00000000000E+00 0.  1.
          2    1    1    2  502    0  0.14262024452E+02  0.27170349547E+02  0.64595490051E+03  0.64668335894E+03  0.00000000000E+00 0. -1.
         -2    1    1    2    0  502 -0.14262024452E+02 -0.27170349547E+02  0.63196593008E+03  0.63271049464E+03  0.00000000000E+00 0.  1.
</event>
<event>
 4    1  0.6145708E+003  0.2061196E+02  0.7546771E-02  0.1524878E+00
          2   -1    0    0  501    0  0.00000000000E+00  0.00000000000E+00  0.93231658970E+01  0.93231658970E+01  0.00000000000E+00 0. -1.
         -2   -1    0    0    0  501 -0.00000000000E+00 -0.00000000000E+00 -0.60071099588E+02  0.60071099588E+02  0.00000000000E+00 0.  1.
          2    1    1    2  502    0 -0.12205580468E+02 -0.16609537482E+02 -0.83262088648E+01  0.22230130094E+02  0.00000000000E+00 0. -1.
         -2    1    1    2    0  502  0.12205580468E+02  0.16609537482E+02 -0.42421724827E+02  0.47164135391E+02  0.00000000000E+00 0.  1.
</event>
<event>
 4    1  0.6145708E+003  0.2177631E+02  0.7546771E-02  0.1508464E+00
          2   -1    0    0  501    0  0.00000000000E+00  0.00000000000E+00  0.24191603245E+03  0.24191603245E+03  0.00000000000E+00 0.  1.
         -2   -1    0    0    0  501 -0.00000000000E+00 -0.00000000000E+00 -0.24267371516E+01  0.24267371516E+01  0.00000000000E+00 0.  1.
          2    1    1    2  502    0  0.30192690495E+00  0.21774212730E+02  0.17331125465E+03  0.17467397771E+03  0.00000000000E+00 0.  1.
         -2    1    1    2    0  502 -0.30192690495E+00 -0.21774212730E+02  0.66178040649E+02  0.69668791894E+02  0.00000000000E+00 0.  1.
</event>
<event>
 4    1  0.6145708E+003  0.2493275E+02  0.7546771E-02  0.1469557E+00
          2   -1    0    0  501    0  0.00000000000E+00  0.00000000000E+00  0.17282991381E+03  0.17282991381E+03  0.00000000000E+00 0.  1.
         -2   -1    0    0    0  501 -0.00000000000E+00 -0.00000000000E+00 -0.25161987616E+02  0.25161987616E+02  0.00000000000E+00 0. -1.
          2    1    1    2  502    0 -0.24898725793E+02 -0.13021646190E+01  0.16548157218E+03  0.16734931404E+03  0.00000000000E+00 0.  1.
         -2    1    1    2    0  502  0.24898725793E+02  0.13021646190E+01 -0.17813645981E+02  0.30642587390E+02  0.00000000000E+00 0. -1.
</event>
<event>
 4    1  0.6145708E+003  0.3177924E+02  0.7546771E-02  0.1404740E+00
          2   -1    0    0  501    0  0.00000000000E+00  0.00000000000E+00  0.10578540171E+02  0.10578540171E+02  0.00000000000E+00 0. -1.
         -2   -1    0    0    0  501 -0.00000000000E+00 -0.00000000000E+00 -0.57940181584E+03  0.57940181584E+03  0.00000000000E+00 0. -1.
          2    1    1    2  502    0  0.31541746965E+02 -0.38778976901E+01 -0.14817599941E+02  0.35063958135E+02  0.00000000000E+00 0. -1.
         -2    1    1    2    0  502 -0.31541746965E+02  0.38778976901E+01 -0.55400567573E+03  0.55491639788E+03  0.00000000000E+00 0. -1.
</event>
<event>
 4    1  0.6145708E+003  0.3989112E+02  0.7546771E-02  0.1349125E+00
          2   -1    0    0  501    0  0.00000000000E+00  0.00000000000E+00  0.66772168627E+03  0.66772168627E+03  0.00000000000E+00 0.  1.
         -2   -1    0    0    0  501 -0.00000000000E+00 -0.00000000000E+00 -0.25598977198E+01  0.25598977198E+01  0.00000000000E+00 0.  1.
          2    1    1    2  502    0 -0.12622540707E+02 -0.37841400637E+02  0.24452517561E+03  0.24775766717E+03  0.00000000000E+00 0.  1.
         -2    1    1    2    0  502  0.12622540707E+02  0.37841400637E+02  0.42063661294E+03  0.42252391681E+03  0.00000000000E+00 0.  1.
</event>
<event>
 4    1  0.6145708E+003  0.2234791E+02  0.7546771E-02  0.1500853E+00
          2   -1    0    0  501    0  0.00000000000E+00  0.00000000000E+00  0.25254617758E+03  0.25254617758E+03  0.00000000000E+00 0. -1.
         -2   -1    0    0    0  501 -0.00000000000E+00 -0.00000000000E+00 -0.20681095521E+01  0.20681095521E+01  0.00000000000E+00 0.  1.
          2    1    1    2  502    0 -0.13554774564E-01 -0.22347910547E+02  0.15187512562E+03  0.15351053082E+03  0.00000000000E+00 0. -1.
         -2    1    1    2    0  502  0.13554774564E-01  0.22347910547E+02  0.98602942404E+02  0.10110375631E+03  0.00000000000E+00 0.  1.
</event>
<event>
 4    1  0.6145708E+003  0.5523192E+02  0.7546771E-02  0.1276954E+00
          2   -1    0    0  501    0  0.00000000000E+00  0.00000000000E+00  0.98006226668E+03  0.98006226668E+03  0.00000000000E+00 0. -1.
         -2   -1    0    0    0  501 -0.00000000000E+00 -0.00000000000E+00 -0.20361732369E+02  0.20361732369E+02  0.00000000000E+00 0.  1.
          2    1    1    2  502    0 -0.47852932371E+02  0.27580089027E+02  0.94024471761E+03  0.94186553894E+03  0.00000000000E+00 0. -1.
         -2    1    1    2    0  502  0.47852932371E+02 -0.27580089027E+02  0.19455816704E+02  0.58558460113E+02  0.00000000000E+00 0.  1.
</event>
<event>
 4    1  0.6145708E+003  0.3954717E+02  0.7546771E-02  0.1351160E+00
          2   -1    0    0  501    0  0.00000000000E+00  0.00000000000E+00  0.15801094918E+03  0.15801094918E+03  0.00000000000E+00 0. -1.
         -2   -1    0    0    0  501 -0.00000000000E+00 -0.00000000000E+00 -0.29621465554E+02  0.29621465554E+02  0.00000000000E+00 0. -1.
          2    1    1    2  502    0  0.38401765392E+02 -0.94489699809E+01  0.14074861573E+03  0.14619901316E+03  0.00000000000E+00 0. -1.
         -2    1    1    2    0  502 -0.38401765392E+02  0.94489699809E+01 -0.12359132111E+02  0.41433401568E+02  0.00000000000E+00 0. -1.
</event>
<event>
 4    1  0.6145708E+003  0.2047350E+02  0.7546771E-02  0.1526916E+00
          2   -1    0    0  501    0  0.00000000000E+00  0.00000000000E+00  0.10255704715E+04  0.10255704715E+04  0.00000000000E+00 0.  1.
         -2   -1    0    0    0  501 -0.00000000000E+00 -0.00000000000E+00 -0.67357749577E+02  0.67357749577E+02  0.00000000000E+00 0. -1.
          2    1    1    2  502    0 -0.20425306005E+02 -0.14039010436E+01  0.10239100325E+04  0.10241147000E+04  0.00000000000E+00 0.  1.
         -2    1    1    2    0  502  0.20425306005E+02  0.14039010436E+01 -0.65697310596E+02  0.68813521078E+02  0.00000000000E+00 0. -1.
</event>
<event>
 4    1  0.7563640E+003  0.2448766E+02  0.7546771E-02  0.1474617E+00
          2   -1    0    0  501    0  0.00000000000E+00  0.00000000000E+00  0.66978164884E+03  0.66978164884E+03  0.00000000000E+00 0. -1.
         -2   -1    0    0    0  501 -0.00000000000E+00 -0.00000000000E+00 -0.33578411057E+03  0.33578411057E+03  0.00000000000E+00 0.  1.
          2    1    1    2  502    0  0.19657897100E+02 -0.14601799408E+02  0.66911092858E+03  0.66955886986E+03  0.00000000000E+00 0. -1.
         -2    1    1    2    0  502 -0.19657897100E+02  0.14601799408E+02 -0.33511339031E+03  0.33600688956E+03  0.00000000000E+00 0.  1.
</event>
<event>
 4    1  0.6145708E+003  0.2341061E+02  0.7546771E-02  0.1487405E+00
          2   -1    0    0  501    0  0.00000000000E+00  0.00000000000E+00  0.11407162780E+04  0.11407162780E+04  0.00000000000E+00 0. -1.
         -2   -1    0    0    0  501 -0.00000000000E+00 -0.00000000000E+00 -0.41260062667E+01  0.41260062667E+01  0.00000000000E+00 0. -1.
          2    1    1    2  502    0 -0.15335042982E+02 -0.17688790803E+02  0.11063575320E+04  0.11066051895E+04  0.00000000000E+00 0. -1.
         -2    1    1    2    0  502  0.15335042982E+02  0.17688790803E+02  0.30232739768E+02  0.38237094780E+02  0.00000000000E+00 0. -1.
</event>
<event>
 4    1  0.6145708E+003  0.2497895E+02  0.7546771E-02  0.1469039E+00
          2   -1    0    0  501    0  0.00000000000E+00  0.00000000000E+00  0.11040600775E+02  0.11040600775E+02  0.00000000000E+00 0. -1.
         -2   -1    0    0    0  501 -0.00000000000E+00 -0.00000000000E+00 -0.73136182272E+02  0.73136182272E+02  0.00000000000E+00 0. -1.
          2    1    1    2  502    0 -0.10098777684E+02  0.22846502755E+02 -0.10982714554E+02  0.27286773679E+02  0.00000000000E+00 0. -1.
         -2    1    1    2    0  502  0.10098777684E+02 -0.22846502755E+02 -0.51112866943E+02  0.56890009369E+02  0.00000000000E+00 0. -1.
</event>
<event>
 4    1  0.6145708E+003  0.2077544E+02  0.7546771E-02  0.1522495E+00
          2   -1    0    0  501    0  0.00000000000E+00  0.00000000000E+00  0.24208463805E+04  0.24208463805E+04  0.00000000000E+00 0. -1.
         -2   -1    0    0    0  501 -0.00000000000E+00 -0.00000000000E+00 -0.18107951888E+00  0.18107951888E+00  0.00000000000E+00 0. -1.
          2    1    1    2  502    0  0.18115351506E+02  0.10171176934E+02  0.13605096741E+04  0.13606682888E+04  0.00000000000E+00 0. -1.
         -2    1    1    2    0  502 -0.18115351506E+02 -0.10171176934E+02  0.10601556269E+04  0.10603591713E+04  0.00000000000E+00 0. -1.
</event>
<event>
 4    1  0.6145708E+003  0.2203780E+02  0.7546771E-02  0.1504947E+00
          2   -1    0    0  501    0  0.00000000000E+00  0.00000000000E+00  0.82088652541E+02  0.82088652541E+02  0.00000000000E+00 0.  1.
         -2   -1    0    0    0  501 -0.00000000000E+00 -0.00000000000E+00 -0.72046015078E+03  0.72046015078E+03  0.00000000000E+00 0. -1.
          2    1    1    2  502    0 -0.45236940651E+01 -0.21568511280E+02  0.80437644952E+02  0.83401913721E+02  0.00000000000E+00 0.  1.
         -2    1    1    2    0  502  0.45236940651E+01  0.21568511280E+02 -0.71880914319E+03  0.71914688960E+03  0.00000000000E+00 0. -1.
</event>
<event>
 4    1  0.6145708E+003  0.3199051E+02  0.7546771E-02  0.1403053E+00
          2   -1    0    0  501    0  0.00000000000E+00  0.00000000000E+00  0.92099454261E+02  0.92099454261E+02  0.00000000000E+00 0. -1.
         -2   -1    0    0    0  501 -0.00000000000E+00 -0.00000000000E+00 -0.53096444399E+02  0.53096444399E+02  0.00000000000E+00 0.  1.
          2    1    1    2  502    0 -0.27790634175E+02  0.15845285225E+02  0.84057529463E+02  0.89939205417E+02  0.00000000000E+00 0. -1.
         -2    1    1    2    0  502  0.27790634175E+02 -0.15845285225E+02 -0.45054519601E+02  0.55256693243E+02  0.00000000000E+00 0.  1.
</event>
<event>
 4    1  0.6145708E+003  0.2035499E+02  0.7546771E-02  0.1528676E+00
          2   -1    0    0  501    0  0.00000000000E+00  0.00000000000E+00  0.89013489768E+02  0.89013489768E+02  0.00000000000E+00 0.  1.
         -2   -1    0    0    0  501 -0.00000000000E+00 -0.00000000000E+00 -0.34404157675E+02  0.34404157675E+02  0.00000000000E+00 0. -1.
          2    1    1    2  502    0 -0.14563432996E+02 -0.14220837048E+02  0.84687469874E+02  0.87099330311E+02  0.00000000000E+00 0.  1.
         -2    1    1    2    0  502  0.14563432996E+02  0.14220837048E+02 -0.30078137781E+02  0.36318317133E+02  0.00000000000E+00 0. -1.
</event>
<event>
 4    1  0.6145708E+003  0.2185242E+02  0.7546771E-02  0.1507434E+00
          2   -1    0    0  501    0  0.00000000000E+00  0.00000000000E+00  0.87933651907E+02  0.87933651907E+02  0.00000000000E+00 0. -1.
         -2   -1    0    0    0  501 -0.00000000000E+00 -0.00000000000E+00 -0.38023791851E+02  0.38023791851E+02  0.00000000000E+00 0.  1.
          2    1    1    2  502    0 -0.68595740998E+01 -0.20747884549E+02  0.83263163186E+02  0.86082999564E+02  0.00000000000E+00 0. -1.
         -2    1    1    2    0  502  0.68595740998E+01  0.20747884549E+02 -0.33353303130E+02  0.39874444194E+02  0.00000000000E+00 0.  1.
</event>
<event>
 4    1  0.6145708E+003  0.2233409E+02  0.7546771E-02  0.1501034E+00
          2   -1    0    0  501    0  0.00000000000E+00  0.00000000000E+00  0.69542980302E+03  0.69542980302E+03  0.00000000000E+00 0.  1.
         -2   -1    0    0    0  501 -0.00000000000E+00 -0.00000000000E+00 -0.12074153931E+01  0.12074153931E+01  0.00000000000E+00 0.  1.
          2    1    1    2  502    0  0.16058043968E+02 -0.15522583993E+02  0.56903837453E+03  0.56947649914E+03  0.00000000000E+00 0.  1.
         -2    1    1    2    0  502 -0.16058043968E+02  0.15522583993E+02  0.12518401310E+03  0.12716071927E+03  0.00000000000E+00 0.  1.
</event>
<event>
 4    1  0.6145708E+003  0.2120148E+02  0.7546771E-02  0.1516408E+00
          2   -1    0    0  501    0  0.00000000000E+00  0.00000000000E+00  0.68438642394E+03  0.68438642394E+03  0.00000000000E+00 0. -1.
         -2   -1    0    0    0  501 -0.00000000000E+00 -0.00000000000E+00 -0.70553750765E+00  0.70553750765E+00  0.00000000000E+00 0.  1.
          2    1    1    2  502    0 -0.21174647339E+02 -0.10663431565E+01  0.43187411652E+03  0.43239421284E+03  0.00000000000E+00 0. -1.
         -2    1    1    2    0  502  0.21174647339E+02  0.10663431565E+01  0.25180676991E+03  0.25269774861E+03  0.00000000000E+00 0.  1.
</event>
<event>
 4    1  0.6145708E+003  0.2039666E+02  0.7546771E-02  0.1528056E+00
          2   -1    0    0  501    0  0.00000000000E+00  0.00000000000E+00  0.10692978620E+03  0.10692978620E+03  0.00000000000E+00 0.  1.
         -2   -1    0    0    0  501 -0.00000000000E+00 -0.00000000000E+00 -0.47212863831E+01  0.47212863831E+01  0.00000000000E+00 0.  1.
          2    1    1    2  502    0  0.19479443191E+02  0.60477355991E+01  0.74520344539E+02  0.77261281138E+02  0.00000000000E+00 0.  1.
         -2    1    1    2    0  502 -0.19479443191E+02 -0.60477355991E+01  0.27688155275E+02  0.34389791442E+02  0.00000000000E+00 0.  1.
</event>
<event>
 4    1  0.6145708E+003  0.2004148E+02  0.7546771E-02  0.1533403E+00
          2   -1    0    0  501    0  0.00000000000E+00  0.00000000000E+00  0.30057908742E+03  0.30057908742E+03  0.00000000000E+00 0. -1.
         -2   -1    0    0    0  501 -0.00000000000E+00 -0.00000000000E+00 -0.37280809376E+01  0.37280809376E+01  0.00000000000E+00 0.  1.
          2    1    1    2  502    0  0.11126976967E+02 -0.16668868335E+02  0.27029671836E+03  0.27103869972E+03  0.00000000000E+00 0. -1.
         -2    1    1    2    0  502 -0.11126976967E+02  0.16668868335E+02  0.26554288122E+02  0.33268468640E+02  0.00000000000E+00 0.  1.
</event>
<event>
 4    1  0.6145708E+003  0.3423353E+02  0.7546771E-02  0.1386033E+00
          2   -1    0    0  501    0  0.00000000000E+00  0.00000000000E+00  0.15393115143E+04  0.15393115143E+04  0.00000000000E+00 0.  1.
         -2   -1    0    0    0  501 -0.00000000000E+00 -0.00000000000E+00 -0.23027846564E+01  0.23027846564E+01  0.00000000000E+00 0.  1.
          2    1    1    2  502    0 -0.14555542110E+01 -0.34202576512E+02  0.13991471845E+04  0.13995659252E+04  0.00000000000E+00 0.  1.
         -2    1    1    2    0  502  0.14555542110E+01  0.34202576512E+02  0.13786154508E+03  0.14204837377E+03  0.00000000000E+00 0.  1.
</event>
<event>
 4    1  0.6145708E+003  0.2694768E+02  0.7546771E-02  0.1448134E+00
          2   -1    0    0  501    0  0.00000000000E+00  0.00000000000E+00  0.42748959186E+03  0.42748959186E+03  0.00000000000E+00 0.  1.
         -2   -1    0    0    0  501 -0.00000000000E+00 -0.00000000000E+00 -0.99257886383E+02  0.99257886383E+02  0.00000000000E+00 0. -1.
          2    1    1    2  502    0  0.43020281896E+01  0.26602068428E+02  0.42522617336E+03  0.42607918983E+03  0.00000000000E+00 0.  1.
         -2    1    1    2    0  502 -0.43020281896E+01 -0.26602068428E+02 -0.96994467888E+02  0.10066828841E+03  0.00000000000E+00 0. -1.
</event>
<event>
 4    1  0.6145708E+003  0.2200353E+02  0.7546771E-02  0.1505405E+00
          2   -1    0    0  501    0  0.00000000000E+00  0.00000000000E+00  0.21510332860E+04  0.21510332860E+04  0.00000000000E+00 0.  1.
         -2   -1    0    0    0  501 -0.00000000000E+00 -0.00000000000E+00 -0.23103853369E+00  0.23103853369E+00  0.00000000000E+00 0.  1.
          2    1    1    2  502    0  0.21887200161E+02  0.22596278563E+01  0.12481345596E+04  0.12483284962E+04  0.00000000000E+00 0.  1.
         -2    1    1    2    0  502 -0.21887200161E+02 -0.22596278563E+01  0.90266768786E+03  0.90293582837E+03  0.00000000000E+00 0.  1.
</event>
<event>
 4    1  0.6145708E+003  0.2038619E+02  0.7546771E-02  0.1528212E+00
          2   -1    0    0  501    0  0.00000000000E+00  0.00000000000E+00  0.97414334918E+03  0.97414334918E+03  0.00000000000E+00 0. -1.
         -2   -1    0    0    0  501 -0.00000000000E+00 -0.00000000000E+00 -0.73803296575E+01  0.73803296575E+01  0.00000000000E+00 0. -1.
          2    1    1    2  502    0  0.49194174087E+00 -0.20380255862E+02  0.95974770176E+03  0.95996419093E+03  0.00000000000E+00 0. -1.
         -2    1    1    2    0  502 -0.49194174087E+00  0.20380255862E+02  0.70153177681E+01  0.21559487912E+02  0.00000000000E+00 0. -1.
</event>
<event>
 4    1  0.6145708E+003  0.3517920E+02  0.7546771E-02  0.1379308E+00
          2   -1    0    0  501    0  0.00000000000E+00  0.00000000000E+00  0.55517391711E+03  0.55517391711E+03  0.00000000000E+00 0. -1.
         -2   -1    0    0    0  501 -0.00000000000E+00 -0.00000000000E+00 -0.50564905517E+02  0.50564905517E+02  0.00000000000E+00 0.  1.
          2    1    1    2  502    0 -0.24438037131E+02 -0.25305301240E+02  0.54842262900E+03  0.54954977566E+03  0.00000000000E+00 0. -1.
         -2    1    1    2    0  502  0.24438037131E+02  0.25305301240E+02 -0.43813617402E+02  0.56189046971E+02  0.00000000000E+00 0.  1.
</event>
<event>
 4    1  0.6145708E+003  0.2706660E+02  0.7546771E-02  0.1446940E+00
          2   -1    0    0  501    0  0.00000000000E+00  0.00000000000E+00  0.11086647688E+04  0.11086647688E+04  0.00000000000E+00 0.  1.
         -2   -1    0    0    0  501 -0.00000000000E+00 -0.00000000000E+00 -0.69952753716E+01  0.69952753716E+01  0.00000000000E+00 0. -1.
          2    1    1    2  502    0  0.26978066391E+02 -0.21873913444E+01  0.10816641303E+04  0.10820027225E+04  0.00000000000E+00 0.  1.
         -2    1    1    2    0  502 -0.26978066391E+02  0.21873913444E+01  0.20005363119E+02  0.33657321649E+02  0.00000000000E+00 0. -1.
</event>
<event>
 4    1  0.6145708E+003  0.2413993E+02  0.7546771E-02  0.1478659E+00
          2   -1    0    0  501    0  0.00000000000E+00  0.00000000000E+00  0.10675423007E+04  0.10675423007E+04  0.00000000000E+00 0.  1.
         -2   -1    0    0    0  501 -0.00000000000E+00 -0.00000000000E+00 -0.97175435770E+00  0.97175435770E+00  0.00000000000E+00 0.  1.
          2    1    1    2  502    0 -0.21193321881E+02  0.11557659753E+02  0.88697238646E+03  0.88730082313E+03  0.00000000000E+00 0.  1.
         -2    1    1    2    0  502  0.21193321881E+02 -0.11557659753E+02  0.17959815991E+03  0.18121323195E+03  0.00000000000E+00 0.  1.
</event>
<event>
 4    1  0.6145708E+003  0.2182934E+02  0.7546771E-02  0.1507746E+00
          2   -1    0    0  501    0  0.00000000000E+00  0.00000000000E+00  0.11738696380E+04  0.11738696380E+04  0.00000000000E+00 0.  1.
         -2   -1    0    0    0  501 -0.00000000000E+00 -0.00000000000E+00 -0.20738185214E+01  0.20738185214E+01  0.00000000000E+00 0. -1.
          2    1    1    2  502    0 -0.21451458965E+02  0.40441224344E+01  0.11131925377E+04  0.11134065502E+04  0.00000000000E+00 0.  1.
         -2    1    1    2    0  502  0.21451458965E+02 -0.40441224344E+01  0.58603281764E+02  0.62536906315E+02  0.00000000000E+00 0. -1.
</event>
<event>
 4    1  0.6145708E+003  0.2396793E+02  0.7546771E-02  0.1480689E+00
          2   -1    0    0  501    0  0.00000000000E+00  0.00000000000E+00  0.32522115875E+03  0.32522115875E+03  0.00000000000E+00 0. -1.
         -2   -1    0    0    0  501 -0.00000000000E+00 -0.00000000000E+00 -0.22046048943E+01  0.22046048943E+01  0.00000000000E+00 0. -1.
          2    1    1    2  502    0 -0.77642336087E+01  0.22675499629E+02  0.23449937001E+03  0.23572105579E+03  0.00000000000E+00 0. -1.
         -2    1    1    2    0  502  0.77642336087E+01 -0.22675499629E+02  0.88517183845E+02  0.91704707855E+02  0.00000000000E+00 0. -1.
</event>
<event>
 4    1  0.6145708E+003  0.2109267E+02  0.7546771E-02  0.1517946E+00
          2   -1    0    0  501    0  0.00000000000E+00  0.00000000000E+00  0.12253987012E+03  0.12253987012E+03  0.00000000000E+00 0.  1.
         -2   -1    0    0    0  501 -0.00000000000E+00 -0.00000000000E+00 -0.44572883415E+01  0.44572883415E+01  0.00000000000E+00 0.  1.
          2    1    1    2  502    0 -0.19800762956E+02 -0.72684471986E+01  0.86386668929E+02  0.88924446060E+02  0.00000000000E+00 0.  1.
         -2    1    1    2    0  502  0.19800762956E+02  0.72684471986E+01  0.31695912853E+02  0.38072712405E+02  0.00000000000E+00 0.  1.
</event>
<event>
 4    1  0.6145708E+003  0.4043391E+02  0.7546771E-02  0.1345962E+00
          2   -1    0    0  501    0  0.00000000000E+00  0.00000000000E+00  0.53873462930E+03  0.53873462930E+03  0.00000000000E+00 0.  1.
         -2   -1    0    0    0  501 -0.00000000000E+00 -0.00000000000E+00 -0.48137365659E+01  0.48137365659E+01  0.00000000000E+00 0. -1.
          2    1    1    2  502    0  0.14347770052E+02  0.37802680307E+02  0.43217897846E+03  0.43406632047E+03  0.00000000000E+00 0.  1.
         -2    1    1    2    0  502 -0.14347770052E+02 -0.37802680307E+02  0.10174191427E+03  0.10948204540E+03  0.00000000000E+00 0. -1.
</event>
<event>
 4    1  0.6145708E+003  0.3226021E+02  0.7546771E-02  0.1400921E+00
          2   -1    0    0  501    0  0.00000000000E+00  0.00000000000E+00  0.15118439548E+04  0.15118439548E+04  0.00000000000E+00 0. -1.
         -2   -1    0    0    0  501 -0.00000000000E+00 -0.00000000000E+00 -0.78811780315E+00  0.78811780315E+00  0.00000000000E+00 0.  1.
          2    1    1    2  502    0  0.28250440194E+02 -0.15576714739E+02  0.10245823366E+04  0.10250900867E+04  0.00000000000E+00 0. -1.
         -2    1    1    2    0  502 -0.28250440194E+02  0.15576714739E+02  0.48647350041E+03  0.48754198589E+03  0.00000000000E+00 0.  1.
</event>
<event>
 4    1  0.6145708E+003  0.2800893E+02  0.7546771E-02  0.1437728E+00
          2   -1    0    0  501    0  0.00000000000E+00  0.00000000000E+00  0.95271983154E+01  0.95271983154E+01  0.00000000000E+00 0. -1.
         -2   -1    0    0    0  501 -0.00000000000E+00 -0.00000000000E+00 -0.41785229417E+03  0.41785229417E+03  0.00000000000E+00 0.  1.
          2    1    1    2  502    0 -0.14737183758E+02 -0.23818382045E+02 -0.12682096772E+02  0.30746308508E+02  0.00000000000E+00 0. -1.
         -2    1    1    2    0  502  0.14737183758E+02  0.23818382045E+02 -0.39564299908E+03  0.39663318398E+03  0.00000000000E+00 0.  1.
</event>
<event>
 4    1  0.6145708E+003  0.3556931E+02  0.7546771E-02  0.1376604E+00
          2   -1    0    0  501    0  0.00000000000E+00  0.00000000000E+00  0.19002510062E+02  0.19002510062E+02  0.00000000000E+00 0. -1.
         -2   -1    0    0    0  501 -0.00000000000E+00 -0.00000000000E+00 -0.47507998260E+03  0.47507998260E+03  0.00000000000E+00 0. -1.
          2    1    1    2  502    0  0.22309134206E+02 -0.27703397062E+02  0.10387690809E+01  0.35584473005E+02  0.00000000000E+00 0. -1.
         -2    1    1    2    0  502 -0.22309134206E+02  0.27703397062E+02 -0.45711624161E+03  0.45849801965E+03  0.00000000000E+00 0. -1.
</event>
<event>
 4    1  0.6145708E+003  0.2779738E+02  0.7546771E-02  0.1439759E+00
          2   -1    0    0  501    0  0.00000000000E+00  0.00000000000E+00  0.24901601335E+03  0.24901601335E+03  0.00000000000E+00 0. -1.
         -2   -1    0    0    0  501 -0.00000000000E+00 -0.00000000000E+00 -0.58856829618E+01  0.58856829618E+01  0.00000000000E+00 0.  1.
          2    1    1    2  502    0  0.27739076553E+02  0.17995088659E+01  0.20920000896E+03  0.21103871292E+03  0.00000000000E+00 0. -1.
         -2    1    1    2    0  502 -0.27739076553E+02 -0.17995088659E+01  0.33930321428E+02  0.43862983396E+02  0.00000000000E+00 0.  1.
</event>
<event>
 4    1  0.6145708E+003  0.2615067E+02  0.7546771E-02  0.1456331E+00
          2   -1    0    0  501    0  0.00000000000E+00  0.00000000000E+00  0.27366079682E+04  0.27366079682E+04  0.00000000000E+00 0.  1.
         -2   -1    0    0    0  501 -0.00000000000E+00 -0.00000000000E+00 -0.25414986803E+00  0.25414986803E+00  0.00000000000E+00 0.  1.
          2    1    1    2  502    0 -0.25911995181E+02 -0.35249898589E+01  0.11910589007E+04  0.11913459455E+04  0.00000000000E+00 0.  1.
         -2    1    1    2    0  502  0.25911995181E+02  0.35249898589E+01  0.15452949177E+04  0.15455161726E+04  0.00000000000E+00 0.  1.
</event>
<event>
 4    1  0.6145708E+003  0.7257897E+02  0.7546771E-02  0.1222210E+00
          2   -1    0    0  501    0  0.00000000000E+00  0.00000000000E+00  0.38798337262E+03  0.38798337262E+03  0.00000000000E+00 0.  1.
         -2   -1    0    0    0  501 -0.00000000000E+00 -0.00000000000E+00 -0.27801911557E+02  0.27801911557E+02  0.00000000000E+00 0. -1.
          2    1    1    2  502    0  0.59092472670E+02  0.42140079121E+02  0.32879531594E+03  0.33671065677E+03  0.00000000000E+00 0.  1.
         -2    1    1    2    0  502 -0.59092472670E+02 -0.42140079121E+02  0.31386145120E+02  0.79074627411E+02  0.00000000000E+00 0. -1.
</event>
<event>
 4    1  0.6145708E+003  0.2964587E+02  0.7546771E-02  0.1422699E+00
          2   -1    0    0  501    0  0.00000000000E+00  0.00000000000E+00  0.11373124625E+02  0.11373124625E+02  0.00000000000E+00 0. -1.
         -2   -1    0    0    0  501 -0.00000000000E+00 -0.00000000000E+00 -0.79841950317E+02  0.79841950317E+02  0.00000000000E+00 0.  1.
          2    1    1    2  502    0 -0.23092324968E+02  0.18590915108E+02 -0.26059455345E+02  0.39471164283E+02  0.00000000000E+00 0. -1.
         -2    1    1    2    0  502  0.23092324968E+02 -0.18590915108E+02 -0.42409370348E+02  0.51743910659E+02  0.00000000000E+00 0.  1.
</event>
<event>
 4    1  0.6145708E+003  0.3442565E+02  0.7546771E-02  0.1384647E+00
          2   -1    0    0  501    0  0.00000000000E+00  0.00000000000E+00  0.10153549955E+03  0.10153549955E+03  0.00000000000E+00 0. -1.
         -2   -1    0    0    0  501 -0.00000000000E+00 -0.00000000000E+00 -0.11998401205E+02  0.11998401205E+02  0.00000000000E+00 0. -1.
          2    1    1    2  502    0  0.27717303250E+02  0.20417526546E+02  0.35405936735E+02  0.49383242560E+02  0.00000000000E+00 0. -1.
         -2    1    1    2    0  502 -0.27717303250E+02 -0.20417526546E+02  0.54131161615E+02  0.64150658200E+02  0.00000000000E+00 0. -1.
</event>
<event>
 4    1  0.6145708E+003  0.4034233E+02  0.7546771E-02  0.1346491E+00
          2   -1    0    0  501    0  0.00000000000E+00  0.00000000000E+00  0.17602088601E+02  0.17602088601E+02  0.00000000000E+00 0. -1.
         -2   -1    0    0    0  501 -0.00000000000E+00 -0.00000000000E+00 -0.36125056648E+03  0.36125056648E+03  0.00000000000E+00 0. -1.
          2    1    1    2  502    0  0.34994519825E+02  0.20072052972E+02 -0.84278660899E+01  0.41213258245E+02  0.00000000000E+00 0. -1.
         -2    1    1    2    0  502 -0.34994519825E+02 -0.20072052972E+02 -0.33522061179E+03  0.33763939684E+03  0.00000000000E+00 0. -1.
</event>
<event>
 4    1  0.6145708E+003  0.6269536E+02  0.7546771E-02  0.1250940E+00
          2   -1    0    0  501    0  0.00000000000E+00  0.00000000000E+00  0.95232176755E+03  0.95232176755E+03  0.00000000000E+00 0.  1.
         -2   -1    0    0    0  501 -0.00000000000E+00 -0.00000000000E+00 -0.49482842736E+01  0.49482842736E+01  0.00000000000E+00 0.  1.
          2    1    1    2  502    0  0.60055190577E+02  0.18002294467E+02  0.66862251749E+03  0.67155549243E+03  0.00000000000E+00 0.  1.
         -2    1    1    2    0  502 -0.60055190577E+02 -0.18002294467E+02  0.27875096579E+03  0.28571455940E+03  0.00000000000E+00 0.  1.
</event>
<event>
 4    1  0.6145708E+003  0.2070291E+02  0.7546771E-02  0.1523549E+00
          2   -1    0    0  501    0  0.00000000000E+00  0.00000000000E+00  0.27807665632E+02  0.27807665632E+02  0.00000000000E+00 0.  1.
         -2   -1    0    0    0  501 -0.00000000000E+00 -0.00000000000E+00 -0.16628351031E+02  0.16628351031E+02  0.00000000000E+00 0.  1.
          2    1    1    2  502    0 -0.75854580179E+01  0.19263203509E+02 -0.41603495207E+00  0.20707082553E+02  0.00000000000E+00 0.  1.
         -2    1    1    2    0  502  0.75854580179E+01 -0.19263203509E+02  0.11595349552E+02  0.23728934110E+02  0.00000000000E+00 0.  1.
</event>
<event>
 4    1  0.6145708E+003  0.2889317E+02  0.7546771E-02  0.1429465E+00
          2   -1    0    0  501    0  0.00000000000E+00  0.00000000000E+00  0.68743522277E+03  0.68743522277E+03  0.00000000000E+00 0.  1.
         -2   -1    0    0    0  501 -0.00000000000E+00 -0.00000000000E+00 -0.24280995622E+01  0.24280995622E+01  0.00000000000E+00 0.  1.
          2    1    1    2  502    0  0.28841893924E+02  0.17206727383E+01  0.58637274004E+03  0.58708415566E+03  0.00000000000E+00 0.  1.
         -2    1    1    2    0  502 -0.28841893924E+02 -0.17206727383E+01  0.98634383159E+02  0.10277916667E+03  0.00000000000E+00 0.  1.
</event>
<event>
 4    1  0.6145708E+003  0.2788624E+02  0.7546771E-02  0.1438903E+00
          2   -1    0    0  501    0  0.00000000000E+00  0.00000000000E+00  0.20792075040E+04  0.20792075040E+04  0.00000000000E+00 0.  1.
         -2   -1    0    0    0  501 -0.00000000000E+00 -0.00000000000E+00 -0.85300030526E+01  0.85300030526E+01  0.00000000000E+00 0. -1.
          2    1    1    2  502    0 -0.26500500595E+02 -0.86813433915E+01  0.20560661098E+04  0.20562552104E+04  0.00000000000E+00 0.  1.
         -2    1    1    2    0  502  0.26500500595E+02  0.86813433915E+01  0.14611391175E+02  0.31482296723E+02  0.00000000000E+00 0. -1.
</event>
<event>
 4    1  0.6145708E+003  0.2301623E+02  0.7546771E-02  0.1492294E+00
          2   -1    0    0  501    0  0.00000000000E+00  0.00000000000E+00  0.32406573251E+03  0.32406573251E+03  0.00000000000E+00 0. -1.
         -2   -1    0    0    0  501 -0.00000000000E+00 -0.00000000000E+00 -0.97022634164E+02  0.97022634164E+02  0.00000000000E+00 0. -1.
          2    1    1    2  502    0  0.48825412910E+01 -0.22492392134E+02  0.32228451691E+03  0.32310533384E+03  0.00000000000E+00 0. -1.
         -2    1    1    2    0  502 -0.48825412910E+01  0.22492392134E+02 -0.95241418565E+02  0.97983032836E+02  0.00000000000E+00 0. -1.
</event>
<event>
 4    1  0.6145708E+003  0.3546166E+02  0.7546771E-02  0.1377346E+00
          2   -1    0    0  501    0  0.00000000000E+00  0.00000000000E+00  0.10928367623E+04  0.10928367623E+04  0.00000000000E+00 0.  1.
         -2   -1    0    0    0  501 -0.00000000000E+00 -0.00000000000E+00 -0.19449701545E+02  0.19449701545E+02  0.00000000000E+00 0. -1.
          2    1    1    2  502    0 -0.69573556073E+01  0.34772470203E+02  0.10761344145E+04  0.10767185368E+04  0.00000000000E+00 0.  1.
         -2    1    1    2    0  502  0.69573556073E+01 -0.34772470203E+02 -0.27473537257E+01  0.35567927035E+02  0.00000000000E+00 0. -1.
</event>
<event>
 4    1  0.6145708E+003  0.2860995E+02  0.7546771E-02  0.1432073E+00
          2   -1    0    0  501    0  0.00000000000E+00  0.00000000000E+00  0.24521384974E+03  0.24521384974E+03  0.00000000000E+00 0. -1.
         -2   -1    0    0    0  501 -0.00000000000E+00 -0.00000000000E+00 -0.41454282116E+02  0.41454282116E+02  0.00000000000E+00 0. -1.
          2    1    1    2  502    0  0.90590227023E+01  0.27137860013E+02  0.23932190833E+03  0.24102594288E+03  0.00000000000E+00 0. -1.
         -2    1    1    2    0  502 -0.90590227023E+01 -0.27137860013E+02 -0.35562340699E+02  0.45642188974E+02  0.00000000000E+00 0. -1.
</event>
<event>
 4    1  0.6145708E+003  0.2064800E+02  0.7546771E-02  0.1524350E+00
          2   -1    0    0  501    0  0.00000000000E+00  0.00000000000E+00  0.37507750079E+02  0.37507750079E+02  0.00000000000E+00 0.  1.
         -2   -1    0    0    0  501 -0.00000000000E+00 -0.00000000000E+00 -0.16821923112E+02  0.16821923112E+02  0.00000000000E+00 0.  1.
          2    1    1    2  502    0 -0.15324092088E+01 -0.20591042169E+02 -0.51265618385E+01  0.21274889703E+02  0.00000000000E+00 0.  1.
         -2    1    1    2    0  502  0.15324092088E+01  0.20591042169E+02  0.25812388806E+02  0.33054783488E+02  0.00000000000E+00 0.  1.
</event>
<event>
 4    1  0.6145708E+003  0.3297730E+02  0.7546771E-02  0.1395370E+00
          2   -1    0    0  501    0  0.00000000000E+00  0.00000000000E+00  0.64987421358E+03  0.64987421358E+03  0.00000000000E+00 0.  1.
         -2   -1    0    0    0  501 -0.00000000000E+00 -0.00000000000E+00 -0.16754058950E+01  0.16754058950E+01  0.00000000000E+00 0.  1.
          2    1    1    2  502    0  0.13586513493E+02  0.30048443558E+02  0.33535956574E+03  0.33697706249E+03  0.00000000000E+00 0.  1.
         -2    1    1    2    0  502 -0.13586513493E+02 -0.30048443558E+02  0.31283924194E+03  0.31457255699E+03  0.00000000000E+00 0.  1.
</event>
<event>
 4    1  0.6145708E+003  0.5880642E+02  0.7546771E-02  0.1263943E+00
          2   -1    0    0  501    0  0.00000000000E+00  0.00000000000E+00  0.10119654844E+04  0.10119654844E+04  0.00000000000E+00 0.  1.
         -2   -1    0    0    0  501 -0.00000000000E+00 -0.00000000000E+00 -0.23534463646E+02  0.23534463646E+02  0.00000000000E+00 0.  1.
          2    1    1    2  502    0 -0.52507986664E+02 -0.26478410475E+02  0.97290208994E+03  0.97467772700E+03  0.00000000000E+00 0.  1.
         -2    1    1    2    0  502  0.52507986664E+02  0.26478410475E+02  0.15528930848E+02  0.60822221088E+02  0.00000000000E+00 0.  1.
</event>
<event>
 4    1  0.6145708E+003  0.3140005E+02  0.7546771E-02  0.1407808E+00
          2   -1    0    0  501    0  0.00000000000E+00  0.00000000000E+00  0.12497593490E+03  0.12497593490E+03  0.00000000000E+00 0.  1.
         -2   -1    0    0    0  501 -0.00000000000E+00 -0.00000000000E+00 -0.14225536529E+02  0.14225536529E+02  0.00000000000E+00 0. -1.
          2    1    1    2  502    0 -0.22870190738E+02  0.21515523427E+02  0.10182648448E+03  0.10655794815E+03  0.00000000000E+00 0.  1.
         -2    1    1    2    0  502  0.22870190738E+02 -0.21515523427E+02  0.89239138887E+01  0.32643523275E+02  0.00000000000E+00 0. -1.
</event>
<event>
 4    1  0.6145708E+003  0.2036458E+02  0.7546771E-02  0.1528533E+00
          2   -1    0    0  501    0  0.00000000000E+00  0.00000000000E+00  0.28100173749E+01  0.28100173749E+01  0.00000000000E+00 0.  1.
         -2   -1    0    0    0  501 -0.00000000000E+00 -0.00000000000E+00 -0.40208920517E+03  0.40208920517E+03  0.00000000000E+00 0. -1.
          2    1    1    2  502    0 -0.19138187600E+02 -0.69603056884E+01 -0.38573797947E+02  0.43619421912E+02  0.00000000000E+00 0.  1.
         -2    1    1    2    0  502  0.19138187600E+02  0.69603056884E+01 -0.36070538985E+03  0.36127980063E+03  0.00000000000E+00 0. -1.
</event>
<event>
 4    1  0.6145708E+003  0.2493068E+02  0.7546771E-02  0.1469580E+00
          2   -1    0    0  501    0  0.00000000000E+00  0.00000000000E+00  0.13266037045E+03  0.13266037045E+03  0.00000000000E+00 0. -1.
         -2   -1    0    0    0  501 -0.00000000000E+00 -0.00000000000E+00 -0.91932227831E+02  0.91932227831E+02  0.00000000000E+00 0.  1.
          2    1    1    2  502    0 -0.14687885016E+02  0.20144604361E+02  0.12976144519E+03  0.13213467262E+03  0.00000000000E+00 0. -1.
         -2    1    1    2    0  502  0.14687885016E+02 -0.20144604361E+02 -0.89033302569E+02  0.92457925661E+02  0.00000000000E+00 0.  1.
</event>
<event>
 4    1  0.6145708E+003  0.4016114E+02  0.7546771E-02  0.1347544E+00
          2   -1    0    0  501    0  0.00000000000E+00  0.00000000000E+00  0.17650074595E+03  0.17650074595E+03  0.00000000000E+00 0.  1.
         -2   -1    0    0    0  501 -0.00000000000E+00 -0.00000000000E+00 -0.22117189358E+02  0.22117189358E+02  0.00000000000E+00 0.  1.
          2    1    1    2  502    0 -0.32679673416E+02 -0.23344302175E+02  0.15326681926E+03  0.15844126793E+03  0.00000000000E+00 0.  1.
         -2    1    1    2    0  502  0.32679673416E+02  0.23344302175E+02  0.11167373269E+01  0.40176667369E+02  0.00000000000E+00 0.  1.
</event>
<event>
 4    1  0.6145708E+003  0.3110489E+02  0.7546771E-02  0.1410232E+00
          2   -1    0    0  501    0  0.00000000000E+00  0.00000000000E+00  0.75301939908E+03  0.75301939908E+03  0.00000000000E+00 0. -1.
         -2   -1    0    0    0  501 -0.00000000000E+00 -0.00000000000E+00 -0.17966274833E+01  0.17966274833E+01  0.00000000000E+00 0. -1.
          2    1    1    2  502    0  0.23219116677E+02 -0.20697501268E+02  0.57704149861E+03  0.57787923051E+03  0.00000000000E+00 0. -1.
         -2    1    1    2    0  502 -0.23219116677E+02  0.20697501268E+02  0.17418127299E+03  0.17693679605E+03  0.00000000000E+00 0. -1.
</event>
<event>
 4    1  0.6145708E+003  0.2408313E+02  0.7546771E-02  0.1479327E+00
          2   -1    0    0  501    0  0.00000000000E+00  0.00000000000E+00  0.11736391283E+04  0.11736391283E+04  0.00000000000E+00 0.  1.
         -2   -1    0    0    0  501 -0.00000000000E+00 -0.00000000000E+00 -0.16466895771E+01  0.16466895771E+01  0.00000000000E+00 0. -1.
          2    1    1    2  502    0  0.26796761917E+01 -0.23933586766E+02  0.10776151273E+04  0.10778842052E+04  0.00000000000E+00 0.  1.
         -2    1    1    2    0  502 -0.26796761917E+01  0.23933586766E+02  0.94377311395E+02  0.97401612647E+02  0.00000000000E+00 0. -1.
</event>
<event>
 4    1  0.6145708E+003  0.2501847E+02  0.7546771E-02  0.1468597E+00
          2   -1    0    0  501    0  0.00000000000E+00  0.00000000000E+00  0.26146520604E+03  0.26146520604E+03  0.00000000000E+00 0.  1.
         -2   -1    0    0    0  501 -0.00000000000E+00 -0.00000000000E+00 -0.27043297993E+01  0.27043297993E+01  0.00000000000E+00 0.  1.
          2    1    1    2  502    0  0.82858716639E+01 -0.23606523134E+02  0.17413106631E+03  0.17591916285E+03  0.00000000000E+00 0.  1.
         -2    1    1    2    0  502 -0.82858716639E+01  0.23606523134E+02  0.84629809924E+02  0.88250372983E+02  0.00000000000E+00 0.  1.
</event>
<event>
 4    1  0.6145708E+003  0.2936773E+02  0.7546771E-02  0.1425172E+00
          2   -1    0    0  501    0  0.00000000000E+00  0.00000000000E+00  0.53687523958E+02  0.53687523958E+02  0.00000000000E+00 0.  1.
         -2   -1    0    0    0  501 -0.00000000000E+00 -0.00000000000E+00 -0.13530921979E+03  0.13530921979E+03  0.00000000000E+00 0.  1.
          2    1    1    2  502    0  0.89457320342E+01 -0.27972085285E+02  0.47900707631E+02  0.56186666286E+02  0.00000000000E+00 0.  1.
         -2    1    1    2    0  502 -0.89457320342E+01  0.27972085285E+02 -0.12952240346E+03  0.13281007746E+03  0.00000000000E+00 0.  1.
</event>
<event>
 4    1  0.6145708E+003  0.2152120E+02  0.7546771E-02  0.1511952E+00
          2   -1    0    0  501    0  0.00000000000E+00  0.00000000000E+00  0.19679534880E+03  0.19679534880E+03  0.00000000000E+00 0.  1.
         -2   -1    0    0    0  501 -0.00000000000E+00 -0.00000000000E+00 -0.22313096099E+02  0.22313096099E+02  0.00000000000E+00 0. -1.
          2    1    1    2  502    0 -0.44687335392E+01  0.21052137871E+02  0.19085665405E+03  0.19206619818E+03  0.00000000000E+00 0.  1.
         -2    1    1    2    0  502  0.44687335392E+01 -0.21052137871E+02 -0.16374401345E+02  0.27042246722E+02  0.00000000000E+00 0. -1.
</event>
<event>
 4    1  0.6145708E+003  0.3144640E+02  0.7546771E-02  0.1407430E+00
          2   -1    0    0  501    0  0.00000000000E+00  0.00000000000E+00  0.11022881907E+04  0.11022881907E+04  0.00000000000E+00 0. -1.
         -2   -1    0    0    0  501 -0.00000000000E+00 -0.00000000000E+00 -0.59749776883E+01  0.59749776883E+01  0.00000000000E+00 0.  1.
          2    1    1    2  502    0  0.31444871302E+02  0.30970749709E+00  0.10589971635E+04  0.10594639532E+04  0.00000000000E+00 0. -1.
         -2    1    1    2    0  502 -0.31444871302E+02 -0.30970749709E+00  0.37316049472E+02  0.48799215138E+02  0.00000000000E+00 0.  1.
</event>
<event>
 4    1  0.6145708E+003  0.2027132E+02  0.7546771E-02  0.1529928E+00
          2   -1    0    0  501    0  0.00000000000E+00  0.00000000000E+00  0.11955932415E+01  0.11955932415E+01  0.00000000000E+00 0.  1.
         -2   -1    0    0    0  501 -0.00000000000E+00 -0.00000000000E+00 -0.43648172525E+03  0.43648172525E+03  0.00000000000E+00 0.  1.
          2    1    1    2  502    0 -0.17552535676E+02 -0.10140756449E+02 -0.11674794314E+03  0.11849476223E+03  0.00000000000E+00 0.  1.
         -2    1    1    2    0  502  0.17552535676E+02  0.10140756449E+02 -0.31853818887E+03  0.31918255626E+03  0.00000000000E+00 0.  1.
</event>
<event>
 4    1  0.6145708E+003  0.2299216E+02  0.7546771E-02  0.1492597E+00
          2   -1    0    0  501    0  0.00000000000E+00  0.00000000000E+00  0.93084974964E+03  0.93084974964E+03  0.00000000000E+00 0. -1.
         -2   -1    0    0    0  501 -0.00000000000E+00 -0.00000000000E+00 -0.25058749567E+01  0.25058749567E+01  0.00000000000E+00 0.  1.
          2    1    1    2  502    0 -0.15330847957E+02 -0.17134890737E+02  0.87457477523E+03  0.87487694954E+03  0.00000000000E+00 0. -1.
         -2    1    1    2    0  502  0.15330847957E+02  0.17134890737E+02  0.53769099460E+02  0.58478675057E+02  0.00000000000E+00 0.  1.
</event>
<event>
 4    1  0.6145708E+003  0.2293162E+02  0.7546771E-02  0.1493359E+00
          2   -1    0    0  501    0  0.00000000000E+00  0.00000000000E+00  0.45615297847E+01  0.45615297847E+01  0.00000000000E+00 0. -1.
         -2   -1    0    0    0  501 -0.00000000000E+00 -0.00000000000E+00 -0.13449486408E+04  0.13449486408E+04  0.00000000000E+00 0. -1.
          2    1    1    2  502    0  0.45563645675E+01  0.22474402648E+02 -0.25004295115E+02  0.33927481584E+02  0.00000000000E+00 0. -1.
         -2    1    1    2    0  502 -0.45563645675E+01 -0.22474402648E+02 -0.13153828159E+04  0.13155826890E+04  0.00000000000E+00 0. -1.
</event>
<event>
 4    1  0.6145708E+003  0.2441914E+02  0.7546771E-02  0.1475407E+00
          2   -1    0    0  501    0  0.00000000000E+00  0.00000000000E+00  0.10931868341E+03  0.10931868341E+03  0.00000000000E+00 0.  1.
         -2   -1    0    0    0  501 -0.00000000000E+00 -0.00000000000E+00 -0.21339572952E+02  0.21339572952E+02  0.00000000000E+00 0.  1.
          2    1    1    2  502    0 -0.17230633737E+02  0.17303174937E+02  0.10035418078E+03  0.10328240994E+03  0.00000000000E+00 0.  1.
         -2    1    1    2    0  502  0.17230633737E+02 -0.17303174937E+02 -0.12375070325E+02  0.27375846424E+02  0.00000000000E+00 0.  1.
</event>
<event>
 4    1  0.6145708E+003  0.2764035E+02  0.7546771E-02  0.1441280E+00
          2   -1    0    0  501    0  0.00000000000E+00  0.00000000000E+00  0.13765089390E+04  0.13765089390E+04  0.00000000000E+00 0. -1.
         -2   -1    0    0    0  501 -0.00000000000E+00 -0.00000000000E+00 -0.69223886621E+00  0.69223886621E+00  0.00000000000E+00 0. -1.
          2    1    1    2  502    0 -0.26019908420E+02  0.93248770663E+01  0.99449094206E+03  0.99487497848E+03  0.00000000000E+00 0. -1.
         -2    1    1    2    0  502  0.26019908420E+02 -0.93248770663E+01  0.38132575809E+03  0.38232619941E+03  0.00000000000E+00 0. -1.
</event>
<event>
 4    1  0.6145708E+003  0.2314821E+02  0.7546771E-02  0.1490645E+00
          2   -1    0    0  501    0  0.00000000000E+00  0.00000000000E+00  0.47505551987E+02  0.47505551987E+02  0.00000000000E+00 0. -1.
         -2   -1    0    0    0  501 -0.00000000000E+00 -0.00000000000E+00 -0.12844895134E+02  0.12844895134E+02  0.00000000000E+00 0. -1.
          2    1    1    2  502    0 -0.22955876828E+02 -0.29778402077E+01  0.27864356245E+02  0.36225159243E+02  0.00000000000E+00 0. -1.
         -2    1    1    2    0  502  0.22955876828E+02  0.29778402077E+01  0.67963006082E+01  0.24125287878E+02  0.00000000000E+00 0. -1.
</event>
<event>
 4    1  0.6145708E+003  0.7406805E+02  0.7546771E-02  0.1218332E+00
          2   -1    0    0  501    0  0.00000000000E+00  0.00000000000E+00  0.47254564673E+03  0.47254564673E+03  0.00000000000E+00 0. -1.
         -2   -1    0    0    0  501 -0.00000000000E+00 -0.00000000000E+00 -0.81307518790E+02  0.81307518790E+02  0.00000000000E+00 0.  1.
          2    1    1    2  502    0 -0.43232565746E+02 -0.60141678817E+02  0.45201381467E+03  0.45804209951E+03  0.00000000000E+00 0. -1.
         -2    1    1    2    0  502  0.43232565746E+02  0.60141678817E+02 -0.60775686731E+02  0.95811066008E+02  0.00000000000E+00 0.  1.
</event>
<event>
 4    1  0.6145708E+003  0.2036081E+02  0.7546771E-02  0.1528590E+00
          2   -1    0    0  501    0  0.00000000000E+00  0.00000000000E+00  0.22189273834E+02  0.22189273834E+02  0.00000000000E+00 0. -1.
         -2   -1    0    0    0  501 -0.00000000000E+00 -0.00000000000E+00 -0.43565555543E+02  0.43565555543E+02  0.00000000000E+00 0. -1.
          2    1    1    2  502    0  0.19696659345E+02 -0.51579090124E+01  0.14158829344E+02  0.24799896434E+02  0.00000000000E+00 0. -1.
         -2    1    1    2    0  502 -0.19696659345E+02  0.51579090124E+01 -0.35535111054E+02  0.40954932942E+02  0.00000000000E+00 0. -1.
</event>
<event>
 4    1  0.6145708E+003  0.3495781E+02  0.7546771E-02  0.1380860E+00
          2   -1    0    0  501    0  0.00000000000E+00  0.00000000000E+00  0.49453192026E+03  0.49453192026E+03  0.00000000000E+00 0.  1.
         -2   -1    0    0    0  501 -0.00000000000E+00 -0.00000000000E+00 -0.27818650848E+02  0.27818650848E+02  0.00000000000E+00 0.  1.
          2    1    1    2  502    0 -0.27109088315E+02  0.22071372068E+02  0.48266214021E+03  0.48392643008E+03  0.00000000000E+00 0.  1.
         -2    1    1    2    0  502  0.27109088315E+02 -0.22071372068E+02 -0.15948870799E+02  0.38424141031E+02  0.00000000000E+00 0.  1.
</event>
<event>
 4    1  0.6145708E+003  0.2340942E+02  0.7546771E-02  0.1487420E+00
          2   -1    0    0  501    0  0.00000000000E+00  0.00000000000E+00  0.26681229964E+04  0.26681229964E+04  0.00000000000E+00 0.  1.
         -2   -1    0    0    0  501 -0.00000000000E+00 -0.00000000000E+00 -0.20570895286E+00  0.20570895286E+00  0.00000000000E+00 0.  1.
          2    1    1    2  502    0  0.22780385555E+02 -0.53902203416E+01  0.12812593820E+04  0.12814732164E+04  0.00000000000E+00 0.  1.
         -2    1    1    2    0  502 -0.22780385555E+02  0.53902203416E+01  0.13866579054E+04  0.13868554889E+04  0.00000000000E+00 0.  1.
</event>
<event>
 4    1  0.6145708E+003  0.2618228E+02  0.7546771E-02  0.1456000E+00
          2   -1    0    0  501    0  0.00000000000E+00  0.00000000000E+00  0.44561694068E+03  0.44561694068E+03  0.00000000000E+00 0. -1.
         -2   -1    0    0    0  501 -0.00000000000E+00 -0.00000000000E+00 -0.16336260015E+02  0.16336260015E+02  0.00000000000E+00 0.  1.
          2    1    1    2  502    0  0.31179292332E+01  0.25995969814E+02  0.43447286748E+03  0.43526105329E+03  0.00000000000E+00 0. -1.
         -2    1    1    2    0  502 -0.31179292332E+01 -0.25995969814E+02 -0.51921868183E+01  0.26692147408E+02  0.00000000000E+00 0.  1.
</event>
<event>
 4    1  0.6145708E+003  0.2090550E+02  0.7546771E-02  0.1520618E+00
          2   -1    0    0  501    0  0.00000000000E+00  0.00000000000E+00  0.21954822847E+02  0.21954822847E+02  0.00000000000E+00 0. -1.
         -2   -1    0    0    0  501 -0.00000000000E+00 -0.00000000000E+00 -0.44697544872E+02  0.44697544872E+02  0.00000000000E+00 0. -1.
          2    1    1    2  502    0 -0.13000162053E+01 -0.20865038606E+02  0.13448119337E+02  0.24857429310E+02  0.00000000000E+00 0. -1.
         -2    1    1    2    0  502  0.13000162053E+01  0.20865038606E+02 -0.36190841362E+02  0.41794938410E+02  0.00000000000E+00 0. -1.
</event>
<event>
 4    1  0.6145708E+003  0.2705364E+02  0.7546771E-02  0.1447070E+00
          2   -1    0    0  501    0  0.00000000000E+00  0.00000000000E+00  0.11530157323E+03  0.11530157323E+03  0.00000000000E+00 0.  1.
         -2   -1    0    0    0  501 -0.00000000000E+00 -0.00000000000E+00 -0.24129456272E+02  0.24129456272E+02  0.00000000000E+00 0.  1.
          2    1    1    2  502    0 -0.18806466569E+01 -0.26988192604E+02  0.10543314902E+03  0.10884874039E+03  0.00000000000E+00 0.  1.
         -2    1    1    2    0  502  0.18806466569E+01  0.26988192604E+02 -0.14261032062E+02  0.30582289113E+02  0.00000000000E+00 0.  1.
</event>
<event>
 4    1  0.6145708E+003  0.2273248E+02  0.7546771E-02  0.1495885E+00
          2   -1    0    0  501    0  0.00000000000E+00  0.00000000000E+00  0.67962455924E+03  0.67962455924E+03  0.00000000000E+00 0.  1.
         -2   -1    0    0    0  501 -0.00000000000E+00 -0.00000000000E+00 -0.28169278888E+01  0.28169278888E+01  0.00000000000E+00 0. -1.
          2    1    1    2  502    0  0.74761691149E+01  0.21467937169E+02  0.62995723396E+03  0.63036725966E+03  0.00000000000E+00 0.  1.
         -2    1    1    2    0  502 -0.74761691149E+01 -0.21467937169E+02  0.46850397392E+02  0.52074227471E+02  0.00000000000E+00 0. -1.
</event>
<event>
 4    1  0.6145708E+003  0.2325354E+02  0.7546771E-02  0.1489339E+00
          2   -1    0    0  501    0  0.00000000000E+00  0.00000000000E+00  0.37397514815E+03  0.37397514815E+03  0.00000000000E+00 0.  1.
         -2   -1    0    0    0  501 -0.00000000000E+00 -0.00000000000E+00 -0.26447282794E+01  0.26447282794E+01  0.00000000000E+00 0.  1.
          2    1    1    2  502    0 -0.37271084563E-01 -0.23253508571E+02  0.31244877295E+03  0.31331288318E+03  0.00000000000E+00 0.  1.
         -2    1    1    2    0  502  0.37271084563E-01  0.23253508571E+02  0.58881646928E+02  0.63306993255E+02  0.00000000000E+00 0.  1.
</event>
<event>
 4    1  0.6145708E+003  0.2397759E+02  0.7546771E-02  0.1480574E+00
          2   -1    0    0  501    0  0.00000000000E+00  0.00000000000E+00  0.51019731927E+01  0.51019731927E+01  0.00000000000E+00 0.  1.
         -2   -1    0    0    0  501 -0.00000000000E+00 -0.00000000000E+00 -0.14956489660E+03  0.14956489660E+03  0.00000000000E+00 0. -1.
          2    1    1    2  502    0 -0.80161908363E+01 -0.22597914293E+02 -0.33830977847E+02  0.41466373220E+02  0.00000000000E+00 0.  1.
         -2    1    1    2    0  502  0.80161908363E+01  0.22597914293E+02 -0.11063194556E+03  0.11320049657E+03  0.00000000000E+00 0. -1.
</event>
<event>
 4    1  0.6145708E+003  0.3289091E+02  0.7546771E-02  0.1396030E+00
          2   -1    0    0  501    0  0.00000000000E+00  0.00000000000E+00  0.65685916678E+02  0.65685916678E+02  0.00000000000E+00 0.  1.
         -2   -1    0    0    0  501 -0.00000000000E+00 -0.00000000000E+00 -0.28851095605E+03  0.28851095605E+03  0.00000000000E+00 0.  1.
          2    1    1    2  502    0  0.11576528902E+02 -0.30786295364E+02  0.60556867581E+02  0.68912598376E+02  0.00000000000E+00 0.  1.
         -2    1    1    2    0  502 -0.11576528902E+02  0.30786295364E+02 -0.28338190695E+03  0.28528427435E+03  0.00000000000E+00 0.  1.
</event>
<event>
 4    1  0.6145708E+003  0.4645064E+02  0.7546771E-02  0.1314341E+00
          2   -1    0    0  501    0  0.00000000000E+00  0.00000000000E+00  0.25893413432E+04  0.25893413432E+04  0.00000000000E+00 0.  1.
         -2   -1    0    0    0  501 -0.00000000000E+00 -0.00000000000E+00 -0.33102384241E+03  0.33102384241E+03  0.00000000000E+00 0. -1.
          2    1    1    2  502    0  0.30330713626E+02  0.35181097425E+02  0.25875023271E+04  0.25879192326E+04  0.00000000000E+00 0.  1.
         -2    1    1    2    0  502 -0.30330713626E+02 -0.35181097425E+02 -0.32918482629E+03  0.33244595300E+03  0.00000000000E+00 0. -1.
</event>
<event>
 4    1  0.6145708E+003  0.3267432E+02  0.7546771E-02  0.1397695E+00
          2   -1    0    0  501    0  0.00000000000E+00  0.00000000000E+00  0.49462543325E+02  0.49462543325E+02  0.00000000000E+00 0. -1.
         -2   -1    0    0    0  501 -0.00000000000E+00 -0.00000000000E+00 -0.15158578955E+03  0.15158578955E+03  0.00000000000E+00 0. -1.
          2    1    1    2  502    0 -0.16573832731E+02 -0.28158819526E+02  0.42031052348E+02  0.53237396724E+02  0.00000000000E+00 0. -1.
         -2    1    1    2    0  502  0.16573832731E+02  0.28158819526E+02 -0.14415429857E+03  0.14781093615E+03  0.00000000000E+00 0. -1.
</event>
<event>
 4    1  0.6145708E+003  0.3585349E+02  0.7546771E-02  0.1374660E+00
          2   -1    0    0  501    0  0.00000000000E+00  0.00000000000E+00  0.12842709304E+03  0.12842709304E+03  0.00000000000E+00 0.  1.
         -2   -1    0    0    0  501 -0.00000000000E+00 -0.00000000000E+00 -0.15802618346E+03  0.15802618346E+03  0.00000000000E+00 0. -1.
          2    1    1    2  502    0 -0.32760768543E+02  0.14567241700E+02  0.12381691958E+03  0.12890346023E+03  0.00000000000E+00 0.  1.
         -2    1    1    2    0  502  0.32760768543E+02 -0.14567241700E+02 -0.15341600999E+03  0.15754981628E+03  0.00000000000E+00 0. -1.
</event>
<event>
 4    1  0.6145708E+003  0.2143051E+02  0.7546771E-02  0.1513206E+00
          2   -1    0    0  501    0  0.00000000000E+00  0.00000000000E+00  0.38063240714E+03  0.38063240714E+03  0.00000000000E+00 0. -1.
         -2   -1    0    0    0  501 -0.00000000000E+00 -0.00000000000E+00 -0.15789546782E+01  0.15789546782E+01  0.00000000000E+00 0. -1.
          2    1    1    2  502    0  0.18324118815E+01  0.21352021879E+02  0.28233229844E+03  0.28314447428E+03  0.00000000000E+00 0. -1.
         -2    1    1    2    0  502 -0.18324118815E+01 -0.21352021879E+02  0.96721154020E+02  0.99066887539E+02  0.00000000000E+00 0. -1.
</event>
<event>
 4    1  0.6145708E+003  0.2784773E+02  0.7546771E-02  0.1439273E+00
          2   -1    0    0  501    0  0.00000000000E+00  0.00000000000E+00  0.23565232140E+02  0.23565232140E+02  0.00000000000E+00 0.  1.
         -2   -1    0    0    0  501 -0.00000000000E+00 -0.00000000000E+00 -0.36865454320E+02  0.36865454320E+02  0.00000000000E+00 0. -1.
          2    1    1    2  502    0  0.56359835378E+01  0.27271441763E+02  0.32490785042E+01  0.28036625285E+02  0.00000000000E+00 0.  1.
         -2    1    1    2    0  502 -0.56359835378E+01 -0.27271441763E+02 -0.16549300685E+02  0.32394061175E+02  0.00000000000E+00 0. -1.
</event>
<event>
 4    1  0.6145708E+003  0.2027791E+02  0.7546771E-02  0.1529829E+00
          2   -1    0    0  501    0  0.00000000000E+00  0.00000000000E+00  0.66562742104E+01  0.66562742104E+01  0.00000000000E+00 0.  1.
         -2   -1    0    0    0  501 -0.00000000000E+00 -0.00000000000E+00 -0.18388474302E+03  0.18388474302E+03  0.00000000000E+00 0. -1.
          2    1    1    2  502    0 -0.15881342755E+02 -0.12608586764E+02 -0.10978759412E+02  0.23059199164E+02  0.00000000000E+00 0.  1.
         -2    1    1    2    0  502  0.15881342755E+02  0.12608586764E+02 -0.16624970940E+03  0.16748181807E+03  0.00000000000E+00 0. -1.
</event>
<event>
 4    1  0.6145708E+003  0.2624671E+02  0.7546771E-02  0.1455325E+00
          2   -1    0    0  501    0  0.00000000000E+00  0.00000000000E+00  0.78464126843E+02  0.78464126843E+02  0.00000000000E+00 0. -1.
         -2   -1    0    0    0  501 -0.00000000000E+00 -0.00000000000E+00 -0.10153784257E+03  0.10153784257E+03  0.00000000000E+00 0. -1.
          2    1    1    2  502    0 -0.66903459872E+01  0.25379701995E+02  0.74485107677E+02  0.78974181024E+02  0.00000000000E+00 0. -1.
         -2    1    1    2    0  502  0.66903459872E+01 -0.25379701995E+02 -0.97558823400E+02  0.10102778839E+03  0.00000000000E+00 0. -1.
</event>
<event>
 4    1  0.6145708E+003  0.3343939E+02  0.7546771E-02  0.1391880E+00
          2   -1    0    0  501    0  0.00000000000E+00  0.00000000000E+00  0.29849050944E+03  0.29849050944E+03  0.00000000000E+00 0.  1.
         -2   -1    0    0    0  501 -0.00000000000E+00 -0.00000000000E+00 -0.42538641641E+01  0.42538641641E+01  0.00000000000E+00 0.  1.
          2    1    1    2  502    0 -0.27299207722E+02  0.19311805792E+02  0.19941336626E+03  0.20219763409E+03  0.00000000000E+00 0.  1.
         -2    1    1    2    0  502  0.27299207722E+02 -0.19311805792E+02  0.94823279011E+02  0.10054673952E+03  0.00000000000E+00 0.  1.
</event>
<event>
 4    1  0.6145708E+003  0.2552805E+02  0.7546771E-02  0.1462982E+00
          2   -1    0    0  501    0  0.00000000000E+00  0.00000000000E+00  0.16183762383E+03  0.16183762383E+03  0.00000000000E+00 0.  1.
         -2   -1    0    0    0  501 -0.00000000000E+00 -0.00000000000E+00 -0.25129785614E+03  0.25129785614E+03  0.00000000000E+00 0. -1.
          2    1    1    2  502    0  0.40090944350E+01  0.25211276028E+02  0.16017593467E+03  0.16219744550E+03  0.00000000000E+00 0.  1.
         -2    1    1    2    0  502 -0.40090944350E+01 -0.25211276028E+02 -0.24963616699E+03  0.25093803447E+03  0.00000000000E+00 0. -1.
</event>
<event>
 4    1  0.6145708E+003  0.3013590E+02  0.7546771E-02  0.1418419E+00
          2   -1    0    0  501    0  0.00000000000E+00  0.00000000000E+00  0.74270283318E+03  0.74270283318E+03  0.00000000000E+00 0. -1.
         -2   -1    0    0    0  501 -0.00000000000E+00 -0.00000000000E+00 -0.15369233302E+01  0.15369233302E+01  0.00000000000E+00 0. -1.
          2    1    1    2  502    0 -0.28511414898E+02  0.97607254616E+01  0.53881589624E+03  0.53965798668E+03  0.00000000000E+00 0. -1.
         -2    1    1    2    0  502  0.28511414898E+02 -0.97607254616E+01  0.20235001361E+03  0.20458176984E+03  0.00000000000E+00 0. -1.
</event>
<event>
 4    1  0.6145708E+003  0.2995398E+02  0.7546771E-02  0.1419997E+00
          2   -1    0    0  501    0  0.00000000000E+00  0.00000000000E+00  0.71657356354E+03  0.71657356354E+03  0.00000000000E+00 0.  1.
         -2   -1    0    0    0  501 -0.00000000000E+00 -0.00000000000E+00 -0.38329595887E+01  0.38329595887E+01  0.00000000000E+00 0.  1.
          2    1    1    2  502    0  0.29952703575E+02  0.27616808990E+00  0.65194039144E+03  0.65262815961E+03  0.00000000000E+00 0.  1.
         -2    1    1    2    0  502 -0.29952703575E+02 -0.27616808990E+00  0.60800212505E+02  0.67778363516E+02  0.00000000000E+00 0.  1.
</event>
<event>
 4    1  0.6145708E+003  0.3329786E+02  0.7546771E-02  0.1392941E+00
          2   -1    0    0  501    0  0.00000000000E+00  0.00000000000E+00  0.11871126730E+03  0.11871126730E+03  0.00000000000E+00 0.  1.
         -2   -1    0    0    0  501 -0.00000000000E+00 -0.00000000000E+00 -0.68687165032E+03  0.68687165032E+03  0.00000000000E+00 0. -1.
          2    1    1    2  502    0 -0.13315180550E+02 -0.30519719023E+02  0.11596337803E+03  0.12064929477E+03  0.00000000000E+00 0.  1.
         -2    1    1    2    0  502  0.13315180550E+02  0.30519719023E+02 -0.68412376105E+03  0.68493362286E+03  0.00000000000E+00 0. -1.
</event>
<event>
 4    1  0.6145708E+003  0.3378078E+02  0.7546771E-02  0.1389343E+00
          2   -1    0    0  501    0  0.00000000000E+00  0.00000000000E+00  0.13657150226E+04  0.13657150226E+04  0.00000000000E+00 0.  1.
         -2   -1    0    0    0  501 -0.00000000000E+00 -0.00000000000E+00 -0.96916883459E+00  0.96916883459E+00  0.00000000000E+00 0.  1.
          2    1    1    2  502    0  0.33475567089E+02  0.45307447687E+01  0.93609065387E+03  0.93669998052E+03  0.00000000000E+00 0.  1.
         -2    1    1    2    0  502 -0.33475567089E+02 -0.45307447687E+01  0.42865519991E+03  0.42998421093E+03  0.00000000000E+00 0.  1.
</event>
<event>
 4    1  0.6145708E+003  0.2160018E+02  0.7546771E-02  0.1510866E+00
          2   -1    0    0  501    0  0.00000000000E+00  0.00000000000E+00  0.94209931009E+01  0.94209931009E+01  0.00000000000E+00 0. -1.
         -2   -1    0    0    0  501 -0.00000000000E+00 -0.00000000000E+00 -0.13318419997E+04  0.13318419997E+04  0.00000000000E+00 0. -1.
          2    1    1    2  502    0 -0.18047954249E+02  0.11867559833E+02 -0.31657665038E+01  0.21830934623E+02  0.00000000000E+00 0. -1.
         -2    1    1    2    0  502  0.18047954249E+02 -0.11867559833E+02 -0.13192552401E+04  0.13194320581E+04  0.00000000000E+00 0. -1.
</event>
<event>
 4    1  0.6145708E+003  0.6325096E+02  0.7546771E-02  0.1249170E+00
          2   -1    0    0  501    0  0.00000000000E+00  0.00000000000E+00  0.95518441244E+01  0.95518441244E+01  0.00000000000E+00 0. -1.
         -2   -1    0    0    0  501 -0.00000000000E+00 -0.00000000000E+00 -0.42300730544E+03  0.42300730544E+03  0.00000000000E+00 0.  1.
          2    1    1    2  502    0  0.63022692744E+02  0.53688332542E+01 -0.18525807917E+03  0.19575811622E+03  0.00000000000E+00 0. -1.
         -2    1    1    2    0  502 -0.63022692744E+02 -0.53688332542E+01 -0.22819738215E+03  0.23680103334E+03  0.00000000000E+00 0.  1.
</event>
<event>
 4    1  0.6145708E+003  0.2533915E+02  0.7546771E-02  0.1465045E+00
          2   -1    0    0  501    0  0.00000000000E+00  0.00000000000E+00  0.13248242116E+04  0.13248242116E+04  0.00000000000E+00 0.  1.
         -2   -1    0    0    0  501 -0.00000000000E+00 -0.00000000000E+00 -0.34599143677E+02  0.34599143677E+02  0.00000000000E+00 0.  1.
          2    1    1    2  502    0  0.24922837298E+02  0.45743680973E+01  0.13200468930E+04  0.13202900713E+04  0.00000000000E+00 0.  1.
         -2    1    1    2    0  502 -0.24922837298E+02 -0.45743680973E+01 -0.29821825085E+02  0.39133283965E+02  0.00000000000E+00 0.  1.
</event>
<event>
 4    1  0.6145708E+003  0.3017249E+02  0.7546771E-02  0.1418103E+00
          2   -1    0    0  501    0  0.00000000000E+00  0.00000000000E+00  0.54650069752E+03  0.54650069752E+03  0.00000000000E+00 0.  1.
         -2   -1    0    0    0  501 -0.00000000000E+00 -0.00000000000E+00 -0.38359335204E+02  0.38359335204E+02  0.00000000000E+00 0.  1.
          2    1    1    2  502    0 -0.30107089625E+02 -0.19855798918E+01  0.54008053094E+03  0.54092269251E+03  0.00000000000E+00 0.  1.
         -2    1    1    2    0  502  0.30107089625E+02  0.19855798918E+01 -0.31939168619E+02  0.43937340217E+02  0.00000000000E+00 0.  1.
</event>
<event>
 4    1  0.6145708E+003  0.2117462E+02  0.7546771E-02  0.1516786E+00
          2   -1    0    0  501    0  0.00000000000E+00  0.00000000000E+00  0.88586030977E+02  0.88586030977E+02  0.00000000000E+00 0. -1.
         -2   -1    0    0    0  501 -0.00000000000E+00 -0.00000000000E+00 -0.13516568534E+02  0.13516568534E+02  0.00000000000E+00 0.  1.
          2    1    1    2  502    0  0.15164831534E+02 -0.14778106740E+02  0.77911921936E+02  0.80738046385E+02  0.00000000000E+00 0. -1.
         -2    1    1    2    0  502 -0.15164831534E+02  0.14778106740E+02 -0.28424594931E+01  0.21364553125E+02  0.00000000000E+00 0.  1.
</event>
<event>
 4    1  0.6145708E+003  0.2389476E+02  0.7546771E-02  0.1481558E+00
          2   -1    0    0  501    0  0.00000000000E+00  0.00000000000E+00  0.29633230774E+02  0.29633230774E+02  0.00000000000E+00 0. -1.
         -2   -1    0    0    0  501 -0.00000000000E+00 -0.00000000000E+00 -0.29652522506E+02  0.29652522506E+02  0.00000000000E+00 0.  1.
          2    1    1    2  502    0  0.20741188544E+02 -0.11864344224E+02  0.17532888413E+02  0.29637168255E+02  0.00000000000E+00 0. -1.
         -2    1    1    2    0  502 -0.20741188544E+02  0.11864344224E+02 -0.17552180146E+02  0.29648585025E+02  0.00000000000E+00 0.  1.
</event>
<event>
 4    1  0.6145708E+003  0.2332198E+02  0.7546771E-02  0.1488494E+00
          2   -1    0    0  501    0  0.00000000000E+00  0.00000000000E+00  0.35336283726E+03  0.35336283726E+03  0.00000000000E+00 0.  1.
         -2   -1    0    0    0  501 -0.00000000000E+00 -0.00000000000E+00 -0.71446469696E+01  0.71446469696E+01  0.00000000000E+00 0. -1.
          2    1    1    2  502    0  0.19313988277E+01 -0.23241871173E+02  0.33276940424E+03  0.33358565808E+03  0.00000000000E+00 0.  1.
         -2    1    1    2    0  502 -0.19313988277E+01  0.23241871173E+02  0.13448786048E+02  0.26921826149E+02  0.00000000000E+00 0. -1.
</event>
<event>
 4    1  0.6145708E+003  0.2918009E+02  0.7546771E-02  0.1426858E+00
          2   -1    0    0  501    0  0.00000000000E+00  0.00000000000E+00  0.97252178079E+02  0.97252178079E+02  0.00000000000E+00 0. -1.
         -2   -1    0    0    0  501 -0.00000000000E+00 -0.00000000000E+00 -0.35835587051E+02  0.35835587051E+02  0.00000000000E+00 0. -1.
          2    1    1    2  502    0  0.23980168399E+02  0.16626154348E+02  0.88554791104E+02  0.93238557004E+02  0.00000000000E+00 0. -1.
         -2    1    1    2    0  502 -0.23980168399E+02 -0.16626154348E+02 -0.27138200076E+02  0.39849208125E+02  0.00000000000E+00 0. -1.
</event>
<event>
 4    1  0.6145708E+003  0.2493649E+02  0.7546771E-02  0.1469515E+00
          2   -1    0    0  501    0  0.00000000000E+00  0.00000000000E+00  0.58756801712E+02  0.58756801712E+02  0.00000000000E+00 0. -1.
         -2   -1    0    0    0  501 -0.00000000000E+00 -0.00000000000E+00 -0.14149949118E+02  0.14149949118E+02  0.00000000000E+00 0. -1.
          2    1    1    2  502    0 -0.12005095491E+02  0.21856496431E+02  0.40605615699E+02  0.47651283092E+02  0.00000000000E+00 0. -1.
         -2    1    1    2    0  502  0.12005095491E+02 -0.21856496431E+02  0.40012368942E+01  0.25255467738E+02  0.00000000000E+00 0. -1.
</event>
<event>
 4    1  0.6145708E+003  0.2787877E+02  0.7546771E-02  0.1438975E+00
          2   -1    0    0  501    0  0.00000000000E+00  0.00000000000E+00  0.13358808128E+03  0.13358808128E+03  0.00000000000E+00 0.  1.
         -2   -1    0    0    0  501 -0.00000000000E+00 -0.00000000000E+00 -0.21519624833E+02  0.21519624833E+02  0.00000000000E+00 0.  1.
          2    1    1    2  502    0 -0.22156028873E+02 -0.16921473922E+02  0.12227986045E+03  0.12541766289E+03  0.00000000000E+00 0.  1.
         -2    1    1    2    0  502  0.22156028873E+02  0.16921473922E+02 -0.10211403995E+02  0.29690043224E+02  0.00000000000E+00 0.  1.
</event>
<event>
 4    1  0.6145708E+003  0.3796438E+02  0.7546771E-02  0.1360846E+00
          2   -1    0    0  501    0  0.00000000000E+00  0.00000000000E+00  0.28420815948E+01  0.28420815948E+01  0.00000000000E+00 0. -1.
         -2   -1    0    0    0  501 -0.00000000000E+00 -0.00000000000E+00 -0.63328967566E+03  0.63328967566E+03  0.00000000000E+00 0.  1.
          2    1    1    2  502    0 -0.93011543091E+01  0.36807372038E+02 -0.17325834866E+03  0.17736896427E+03  0.00000000000E+00 0. -1.
         -2    1    1    2    0  502  0.93011543091E+01 -0.36807372038E+02 -0.45718924541E+03  0.45876279298E+03  0.00000000000E+00 0.  1.
</event>
<event>
 4    1  0.6145708E+003  0.3547785E+02  0.7546771E-02  0.1377235E+00
          2   -1    0    0  501    0  0.00000000000E+00  0.00000000000E+00  0.14543578778E+03  0.14543578778E+03  0.00000000000E+00 0. -1.
         -2   -1    0    0    0  501 -0.00000000000E+00 -0.00000000000E+00 -0.92963764806E+01  0.92963764806E+01  0.00000000000E+00 0. -1.
          2    1    1    2  502    0  0.54064152330E+01 -0.35063491700E+02  0.88398459615E+02  0.95252115137E+02  0.00000000000E+00 0. -1.
         -2    1    1    2    0  502 -0.54064152330E+01  0.35063491700E+02  0.47740951682E+02  0.59480049121E+02  0.00000000000E+00 0. -1.
</event>
<event>
 4    1  0.6145708E+003  0.2317017E+02  0.7546771E-02  0.1490372E+00
          2   -1    0    0  501    0  0.00000000000E+00  0.00000000000E+00  0.28714870380E+03  0.28714870380E+03  0.00000000000E+00 0.  1.
         -2   -1    0    0    0  501 -0.00000000000E+00 -0.00000000000E+00 -0.43145745738E+01  0.43145745738E+01  0.00000000000E+00 0. -1.
          2    1    1    2  502    0 -0.19347866670E+02  0.12748205879E+02  0.25112068414E+03  0.25218734049E+03  0.00000000000E+00 0.  1.
         -2    1    1    2    0  502  0.19347866670E+02 -0.12748205879E+02  0.31713445086E+02  0.39275937888E+02  0.00000000000E+00 0. -1.
</event>
<event>
 4    1  0.6145708E+003  0.2617196E+02  0.7546771E-02  0.1456108E+00
          2   -1    0    0  501    0  0.00000000000E+00  0.00000000000E+00  0.40944881442E+03  0.40944881442E+03  0.00000000000E+00 0.  1.
         -2   -1    0    0    0  501 -0.00000000000E+00 -0.00000000000E+00 -0.18437189597E+01  0.18437189597E+01  0.00000000000E+00 0.  1.
          2    1    1    2  502    0 -0.24512847799E+02 -0.91701476525E+01  0.26639584996E+03  0.26767838948E+03  0.00000000000E+00 0.  1.
         -2    1    1    2    0  502  0.24512847799E+02  0.91701476525E+01  0.14120924549E+03  0.14361414390E+03  0.00000000000E+00 0.  1.
</event>
<event>
 4    1  0.6145708E+003  0.2008623E+02  0.7546771E-02  0.1532722E+00
          2   -1    0    0  501    0  0.00000000000E+00  0.00000000000E+00  0.28354556792E+02  0.28354556792E+02  0.00000000000E+00 0. -1.
         -2   -1    0    0    0  501 -0.00000000000E+00 -0.00000000000E+00 -0.20278333046E+03  0.20278333046E+03  0.00000000000E+00 0. -1.
          2    1    1    2  502    0 -0.19720006746E+02 -0.38181358873E+01  0.24226171657E+02  0.31470052763E+02  0.00000000000E+00 0. -1.
         -2    1    1    2    0  502  0.19720006746E+02  0.38181358873E+01 -0.19865494532E+03  0.19966783449E+03  0.00000000000E+00 0. -1.
</event>
<event>
 4    1  0.6145708E+003  0.2456514E+02  0.7546771E-02  0.1473727E+00
          2   -1    0    0  501    0  0.00000000000E+00  0.00000000000E+00  0.96472814710E+03  0.96472814710E+03  0.00000000000E+00 0.  1.
         -2   -1    0    0    0  501 -0.00000000000E+00 -0.00000000000E+00 -0.14149448434E+01  0.14149448434E+01  0.00000000000E+00 0.  1.
          2    1    1    2  502    0  0.14386906012E+02  0.19911379594E+02  0.84248451954E+03  0.84284257828E+03  0.00000000000E+00 0.  1.
         -2    1    1    2    0  502 -0.14386906012E+02 -0.19911379594E+02  0.12082868272E+03  0.12330051366E+03  0.00000000000E+00 0.  1.
</event>
<event>
 4    1  0.6145708E+003  0.2104455E+02  0.7546771E-02  0.1518630E+00
          2   -1    0    0  501    0  0.00000000000E+00  0.00000000000E+00  0.12174268582E+03  0.12174268582E+03  0.00000000000E+00 0.  1.
         -2   -1    0    0    0  501 -0.00000000000E+00 -0.00000000000E+00 -0.13724712490E+03  0.13724712490E+03  0.00000000000E+00 0. -1.
          2    1    1    2  502    0 -0.19554891635E+02  0.77768302366E+01  0.12001500924E+03  0.12184611327E+03  0.00000000000E+00 0.  1.
         -2    1    1    2    0  502  0.19554891635E+02 -0.77768302366E+01 -0.13551944833E+03  0.13714369745E+03  0.00000000000E+00 0. -1.
</event>
<event>
 4    1  0.6145708E+003  0.2049571E+02  0.7546771E-02  0.1526588E+00
          2   -1    0    0  501    0  0.00000000000E+00  0.00000000000E+00  0.52325191904E+02  0.52325191904E+02  0.00000000000E+00 0. -1.
         -2   -1    0    0    0  501 -0.00000000000E+00 -0.00000000000E+00 -0.31285941989E+02  0.31285941989E+02  0.00000000000E+00 0.  1.
          2    1    1    2  502    0  0.58800415471E+01  0.19634133206E+02  0.46564524089E+02  0.50875622640E+02  0.00000000000E+00 0. -1.
         -2    1    1    2    0  502 -0.58800415471E+01 -0.19634133206E+02 -0.25525274174E+02  0.32735511253E+02  0.00000000000E+00 0.  1.
</event>
<event>
 4    1  0.6145708E+003  0.4214747E+02  0.7546771E-02  0.1336341E+00
          2   -1    0    0  501    0  0.00000000000E+00  0.00000000000E+00  0.68390203098E+03  0.68390203098E+03  0.00000000000E+00 0.  1.
         -2   -1    0    0    0  501 -0.00000000000E+00 -0.00000000000E+00 -0.41146841702E+02  0.41146841702E+02  0.00000000000E+00 0.  1.
          2    1    1    2  502    0 -0.41796157357E+02  0.54305156153E+01  0.67227304105E+03  0.67359294161E+03  0.00000000000E+00 0.  1.
         -2    1    1    2    0  502  0.41796157357E+02 -0.54305156153E+01 -0.29517851767E+02  0.51455931073E+02  0.00000000000E+00 0.  1.
</event>
<event>
 4    1  0.6145708E+003  0.3978730E+02  0.7546771E-02  0.1349737E+00
          2   -1    0    0  501    0  0.00000000000E+00  0.00000000000E+00  0.60197252621E+03  0.60197252621E+03  0.00000000000E+00 0.  1.
         -2   -1    0    0    0  501 -0.00000000000E+00 -0.00000000000E+00 -0.20558694795E+02  0.20558694795E+02  0.00000000000E+00 0.  1.
          2    1    1    2  502    0  0.28442368677E+02 -0.27821946136E+02  0.58138407157E+03  0.58274391262E+03  0.00000000000E+00 0.  1.
         -2    1    1    2    0  502 -0.28442368677E+02  0.27821946136E+02  0.29759845694E-01  0.39787308383E+02  0.00000000000E+00 0.  1.
</event>
<event>
 4    1  0.6145708E+003  0.4460044E+02  0.7546771E-02  0.1323450E+00
          2   -1    0    0  501    0  0.00000000000E+00  0.00000000000E+00  0.13639625229E+02  0.13639625229E+02  0.00000000000E+00 0.  1.
         -2   -1    0    0    0  501 -0.00000000000E+00 -0.00000000000E+00 -0.17833504282E+03  0.17833504282E+03  0.00000000000E+00 0.  1.
          2    1    1    2  502    0  0.41388514063E+01 -0.44407983476E+02 -0.41373928870E+02  0.60835853552E+02  0.00000000000E+00 0.  1.
         -2    1    1    2    0  502 -0.41388514063E+01  0.44407983476E+02 -0.12332148872E+03  0.13113881450E+03  0.00000000000E+00 0.  1.
</event>
<event>
 4    1  0.6145708E+003  0.2039769E+02  0.7546771E-02  0.1528041E+00
          2   -1    0    0  501    0  0.00000000000E+00  0.00000000000E+00  0.15022595755E+04  0.15022595755E+04  0.00000000000E+00 0. -1.
         -2   -1    0    0    0  501 -0.00000000000E+00 -0.00000000000E+00 -0.12003709812E+01  0.12003709812E+01  0.00000000000E+00 0. -1.
          2    1    1    2  502    0  0.16568844950E+01  0.20330283881E+02  0.14098578103E+04  0.14100053585E+04  0.00000000000E+00 0. -1.
         -2    1    1    2    0  502 -0.16568844950E+01 -0.20330283881E+02  0.91201394203E+02  0.93454587974E+02  0.00000000000E+00 0. -1.
</event>
<event>
 4    1  0.6145708E+003  0.2327874E+02  0.7546771E-02  0.1489027E+00
          2   -1    0    0  501    0  0.00000000000E+00  0.00000000000E+00  0.72615335947E+02  0.72615335947E+02  0.00000000000E+00 0. -1.
         -2   -1    0    0    0  501 -0.00000000000E+00 -0.00000000000E+00 -0.23401512574E+02  0.23401512574E+02  0.00000000000E+00 0.  1.
          2    1    1    2  502    0  0.17906223868E+02  0.14875039799E+02  0.64227849029E+02  0.68316295663E+02  0.00000000000E+00 0. -1.
         -2    1    1    2    0  502 -0.17906223868E+02 -0.14875039799E+02 -0.15014025656E+02  0.27700552857E+02  0.00000000000E+00 0.  1.
</event>
<event>
 4    1  0.6145708E+003  0.2675938E+02  0.7546771E-02  0.1450040E+00
          2   -1    0    0  501    0  0.00000000000E+00  0.00000000000E+00  0.81734293760E+02  0.81734293760E+02  0.00000000000E+00 0. -1.
         -2   -1    0    0    0  501 -0.00000000000E+00 -0.00000000000E+00 -0.17809777372E+02  0.17809777372E+02  0.00000000000E+00 0. -1.
          2    1    1    2  502    0 -0.11258789448E+02  0.24275581638E+02  0.67439841513E+02  0.72554782248E+02  0.00000000000E+00 0. -1.
         -2    1    1    2    0  502  0.11258789448E+02 -0.24275581638E+02 -0.35153251250E+01  0.26989288884E+02  0.00000000000E+00 0. -1.
</event>
<event>
 4    1  0.6145708E+003  0.2164452E+02  0.7546771E-02  0.1510258E+00
          2   -1    0    0  501    0  0.00000000000E+00  0.00000000000E+00  0.10559203513E+04  0.10559203513E+04  0.00000000000E+00 0. -1.
         -2   -1    0    0    0  501 -0.00000000000E+00 -0.00000000000E+00 -0.16183862547E+01  0.16183862547E+01  0.00000000000E+00 0. -1.
          2    1    1    2  502    0  0.20331410398E+02  0.74242073024E+01  0.97764686498E+03  0.97788643395E+03  0.00000000000E+00 0. -1.
         -2    1    1    2    0  502 -0.20331410398E+02 -0.74242073024E+01  0.76655100018E+02  0.79652303555E+02  0.00000000000E+00 0. -1.
</event>
<event>
 4    1  0.6145708E+003  0.2092989E+02  0.7546771E-02  0.1520268E+00
          2   -1    0    0  501    0  0.00000000000E+00  0.00000000000E+00  0.13175644523E+02  0.13175644523E+02  0.00000000000E+00 0.  1.
         -2   -1    0    0    0  501 -0.00000000000E+00 -0.00000000000E+00 -0.16665324067E+03  0.16665324067E+03  0.00000000000E+00 0. -1.
          2    1    1    2  502    0  0.13026631256E+01  0.20889310851E+02  0.37081297558E+01  0.21255833678E+02  0.00000000000E+00 0.  1.
         -2    1    1    2    0  502 -0.13026631256E+01 -0.20889310851E+02 -0.15718572591E+03  0.15857305152E+03  0.00000000000E+00 0. -1.
</event>
<event>
 4    1  0.6145708E+003  0.2896506E+02  0.7546771E-02  0.1428808E+00
          2   -1    0    0  501    0  0.00000000000E+00  0.00000000000E+00  0.31751256064E+02  0.31751256064E+02  0.00000000000E+00 0.  1.
         -2   -1    0    0    0  501 -0.00000000000E+00 -0.00000000000E+00 -0.29025932375E+02  0.29025932375E+02  0.00000000000E+00 0. -1.
          2    1    1    2  502    0  0.11962604480E+02 -0.26379347245E+02 -0.77369226593E+01  0.29980557687E+02  0.00000000000E+00 0. -1.
         -2    1    1    2    0  502 -0.11962604480E+02  0.26379347245E+02  0.10462246348E+02  0.30796630752E+02  0.00000000000E+00 0.  1.
</event>
<event>
 4    1  0.6145708E+003  0.2833788E+02  0.7546771E-02  0.1434613E+00
          2   -1    0    0  501    0  0.00000000000E+00  0.00000000000E+00  0.12008652247E+03  0.12008652247E+03  0.00000000000E+00 0.  1.
         -2   -1    0    0    0  501 -0.00000000000E+00 -0.00000000000E+00 -0.10289160554E+02  0.10289160554E+02  0.00000000000E+00 0.  1.
          2    1    1    2  502    0 -0.21535018633E+02  0.18419517781E+02  0.93468676115E+02  0.97670000908E+02  0.00000000000E+00 0.  1.
         -2    1    1    2    0  502  0.21535018633E+02 -0.18419517781E+02  0.16328685806E+02  0.32705682120E+02  0.00000000000E+00 0.  1.
</event>
<event>
 4    1  0.6145708E+003  0.6764029E+02  0.7546771E-02  0.1235872E+00
          2   -1    0    0  501    0  0.00000000000E+00  0.00000000000E+00  0.16330126971E+03  0.16330126971E+03  0.00000000000E+00 0.  1.
         -2   -1    0    0    0  501 -0.00000000000E+00 -0.00000000000E+00 -0.42252078715E+03  0.42252078715E+03  0.00000000000E+00 0.  1.
          2    1    1    2  502    0 -0.30222526993E+02 -0.60512868757E+02  0.15342337695E+03  0.16767212356E+03  0.00000000000E+00 0.  1.
         -2    1    1    2    0  502  0.30222526993E+02  0.60512868757E+02 -0.41264289440E+03  0.41814993330E+03  0.00000000000E+00 0.  1.
</event>
<event>
 4    1  0.6145708E+003  0.5483707E+02  0.7546771E-02  0.1278461E+00
          2   -1    0    0  501    0  0.00000000000E+00  0.00000000000E+00  0.91842463818E+03  0.91842463818E+03  0.00000000000E+00 0.  1.
         -2   -1    0    0    0  501 -0.00000000000E+00 -0.00000000000E+00 -0.35532515128E+01  0.35532515128E+01  0.00000000000E+00 0.  1.
          2    1    1    2  502    0 -0.30243649580E+02 -0.45743045033E+02  0.58662332831E+03  0.58918081590E+03  0.00000000000E+00 0.  1.
         -2    1    1    2    0  502  0.30243649580E+02  0.45743045033E+02  0.32824805837E+03  0.33279707380E+03  0.00000000000E+00 0.  1.
</event>
<event>
 4    1  0.6145708E+003  0.2133701E+02  0.7546771E-02  0.1514507E+00
          2   -1    0    0  501    0  0.00000000000E+00  0.00000000000E+00  0.12048358229E+04  0.12048358229E+04  0.00000000000E+00 0.  1.
         -2   -1    0    0    0  501 -0.00000000000E+00 -0.00000000000E+00 -0.21350614191E+01  0.21350614191E+01  0.00000000000E+00 0. -1.
          2    1    1    2  502    0 -0.14501124915E+02  0.15652009944E+02  0.11488344472E+04  0.11490325735E+04  0.00000000000E+00 0.  1.
         -2    1    1    2    0  502  0.14501124915E+02 -0.15652009944E+02  0.53866314305E+02  0.57938310778E+02  0.00000000000E+00 0. -1.
</event>
<event>
 4    1  0.6145708E+003  0.3391231E+02  0.7546771E-02  0.1388375E+00
          2   -1    0    0  501    0  0.00000000000E+00  0.00000000000E+00  0.35879017679E+03  0.35879017679E+03  0.00000000000E+00 0.  1.
         -2   -1    0    0    0  501 -0.00000000000E+00 -0.00000000000E+00 -0.23514740951E+02  0.23514740951E+02  0.00000000000E+00 0. -1.
          2    1    1    2  502    0  0.30208979522E+02  0.15409822173E+02  0.34528490278E+03  0.34694626263E+03  0.00000000000E+00 0.  1.
         -2    1    1    2    0  502 -0.30208979522E+02 -0.15409822173E+02 -0.10009466940E+02  0.35358655115E+02  0.00000000000E+00 0. -1.
</event>
<event>
 4    1  0.6145708E+003  0.3488372E+02  0.7546771E-02  0.1381383E+00
          2   -1    0    0  501    0  0.00000000000E+00  0.00000000000E+00  0.10089383892E+04  0.10089383892E+04  0.00000000000E+00 0. -1.
         -2   -1    0    0    0  501 -0.00000000000E+00 -0.00000000000E+00 -0.34983679364E+01  0.34983679364E+01  0.00000000000E+00 0. -1.
          2    1    1    2  502    0 -0.13936111807E+01  0.34855869208E+02  0.91248844150E+03  0.91315498665E+03  0.00000000000E+00 0. -1.
         -2    1    1    2    0  502  0.13936111807E+01 -0.34855869208E+02  0.92951579744E+02  0.99281770468E+02  0.00000000000E+00 0. -1.
</event>
<event>
 4    1  0.6145708E+003  0.3148539E+02  0.7546771E-02  0.1407113E+00
          2   -1    0    0  501    0  0.00000000000E+00  0.00000000000E+00  0.11516674086E+04  0.11516674086E+04  0.00000000000E+00 0. -1.
         -2   -1    0    0    0  501 -0.00000000000E+00 -0.00000000000E+00 -0.23018641026E+02  0.23018641026E+02  0.00000000000E+00 0.  1.
          2    1    1    2  502    0 -0.19687308484E+02 -0.24571112844E+02  0.11405809862E+04  0.11410154757E+04  0.00000000000E+00 0. -1.
         -2    1    1    2    0  502  0.19687308484E+02  0.24571112844E+02 -0.11932218687E+02  0.33670573867E+02  0.00000000000E+00 0.  1.
</event>
<event>
 4    1  0.6145708E+003  0.2226463E+02  0.7546771E-02  0.1501945E+00
          2   -1    0    0  501    0  0.00000000000E+00  0.00000000000E+00  0.18904360044E+02  0.18904360044E+02  0.00000000000E+00 0.  1.
         -2   -1    0    0    0  501 -0.00000000000E+00 -0.00000000000E+00 -0.45726173963E+02  0.45726173963E+02  0.00000000000E+00 0. -1.
          2    1    1    2  502    0  0.63625137432E+01 -0.21336169872E+02  0.76941718927E+01  0.23556612810E+02  0.00000000000E+00 0.  1.
         -2    1    1    2    0  502 -0.63625137432E+01  0.21336169872E+02 -0.34515985812E+02  0.41073921197E+02  0.00000000000E+00 0. -1.
</event>
<event>
 4    1  0.6145708E+003  0.2948599E+02  0.7546771E-02  0.1424116E+00
          2   -1    0    0  501    0  0.00000000000E+00  0.00000000000E+00  0.10852369685E+02  0.10852369685E+02  0.00000000000E+00 0. -1.
         -2   -1    0    0    0  501 -0.00000000000E+00 -0.00000000000E+00 -0.15563759350E+03  0.15563759350E+03  0.00000000000E+00 0.  1.
          2    1    1    2  502    0  0.21860500635E+02 -0.19787418895E+02 -0.14403960591E+02  0.32816116700E+02  0.00000000000E+00 0. -1.
         -2    1    1    2    0  502 -0.21860500635E+02  0.19787418895E+02 -0.13038126322E+03  0.13367384648E+03  0.00000000000E+00 0.  1.
</event>
<event>
 4    1  0.6145708E+003  0.2276508E+02  0.7546771E-02  0.1495469E+00
          2   -1    0    0  501    0  0.00000000000E+00  0.00000000000E+00  0.38480766880E+02  0.38480766880E+02  0.00000000000E+00 0.  1.
         -2   -1    0    0    0  501 -0.00000000000E+00 -0.00000000000E+00 -0.26773677807E+03  0.26773677807E+03  0.00000000000E+00 0. -1.
          2    1    1    2  502    0 -0.19686901066E+02  0.11431300224E+02  0.34580233197E+02  0.41400980983E+02  0.00000000000E+00 0.  1.
         -2    1    1    2    0  502  0.19686901066E+02 -0.11431300224E+02 -0.26383624439E+03  0.26481656397E+03  0.00000000000E+00 0. -1.
</event>
<event>
 4    1  0.6145708E+003  0.4769734E+02  0.7546771E-02  0.1308477E+00
          2   -1    0    0  501    0  0.00000000000E+00  0.00000000000E+00  0.10653490243E+04  0.10653490243E+04  0.00000000000E+00 0.  1.
         -2   -1    0    0    0  501 -0.00000000000E+00 -0.00000000000E+00 -0.15455795923E+03  0.15455795923E+03  0.00000000000E+00 0.  1.
          2    1    1    2  502    0 -0.36178611721E+02  0.31082859904E+02  0.10611205889E+04  0.10621920449E+04  0.00000000000E+00 0.  1.
         -2    1    1    2    0  502  0.36178611721E+02 -0.31082859904E+02 -0.15032952382E+03  0.15771493860E+03  0.00000000000E+00 0.  1.
</event>
<event>
 4    1  0.6145708E+003  0.3227310E+02  0.7546771E-02  0.1400819E+00
          2   -1    0    0  501    0  0.00000000000E+00  0.00000000000E+00  0.34639372795E+03  0.34639372795E+03  0.00000000000E+00 0.  1.
         -2   -1    0    0    0  501 -0.00000000000E+00 -0.00000000000E+00 -0.48974965725E+01  0.48974965725E+01  0.00000000000E+00 0.  1.
          2    1    1    2  502    0  0.30319892538E+02  0.11056995892E+02  0.27988102230E+03  0.28173558470E+03  0.00000000000E+00 0.  1.
         -2    1    1    2    0  502 -0.30319892538E+02 -0.11056995892E+02  0.61615209076E+02  0.69555639822E+02  0.00000000000E+00 0.  1.
</event>
<event>
 4    1  0.6145708E+003  0.4375791E+02  0.7546771E-02  0.1327768E+00
          2   -1    0    0  501    0  0.00000000000E+00  0.00000000000E+00  0.56559955442E+01  0.56559955442E+01  0.00000000000E+00 0.  1.
         -2   -1    0    0    0  501 -0.00000000000E+00 -0.00000000000E+00 -0.36657783543E+03  0.36657783543E+03  0.00000000000E+00 0.  1.
          2    1    1    2  502    0  0.39669115124E+02  0.18469331971E+02 -0.12898426358E+03  0.13620460774E+03  0.00000000000E+00 0.  1.
         -2    1    1    2    0  502 -0.39669115124E+02 -0.18469331971E+02 -0.23193757631E+03  0.23602922324E+03  0.00000000000E+00 0.  1.
</event>
<event>
 4    1  0.6145708E+003  0.3164564E+02  0.7546771E-02  0.1405815E+00
          2   -1    0    0  501    0  0.00000000000E+00  0.00000000000E+00  0.26015422337E+03  0.26015422337E+03  0.00000000000E+00 0. -1.
         -2   -1    0    0    0  501 -0.00000000000E+00 -0.00000000000E+00 -0.40644913910E+01  0.40644913910E+01  0.00000000000E+00 0. -1.
          2    1    1    2  502    0 -0.30457627454E+02  0.85894207972E+01  0.97656126890E+02  0.10265556166E+03  0.00000000000E+00 0. -1.
         -2    1    1    2    0  502  0.30457627454E+02 -0.85894207972E+01  0.15843360509E+03  0.16156315311E+03  0.00000000000E+00 0. -1.
</event>
<event>
 4    1  0.6145708E+003  0.3374174E+02  0.7546771E-02  0.1389632E+00
          2   -1    0    0  501    0  0.00000000000E+00  0.00000000000E+00  0.65754979481E+03  0.65754979481E+03  0.00000000000E+00 0. -1.
         -2   -1    0    0    0  501 -0.00000000000E+00 -0.00000000000E+00 -0.15018733603E+03  0.15018733603E+03  0.00000000000E+00 0.  1.
          2    1    1    2  502    0 -0.14306254256E+02 -0.30558729591E+02  0.65521504621E+03  0.65608327341E+03  0.00000000000E+00 0. -1.
         -2    1    1    2    0  502  0.14306254256E+02  0.30558729591E+02 -0.14785258743E+03  0.15165385744E+03  0.00000000000E+00 0.  1.
</event>
<event>
 4    1  0.6145708E+003  0.2582968E+02  0.7546771E-02  0.1459732E+00
          2   -1    0    0  501    0  0.00000000000E+00  0.00000000000E+00  0.89205806729E+03  0.89205806729E+03  0.00000000000E+00 0.  1.
         -2   -1    0    0    0  501 -0.00000000000E+00 -0.00000000000E+00 -0.86675444523E+01  0.86675444523E+01  0.00000000000E+00 0. -1.
          2    1    1    2  502    0 -0.10686134447E+02  0.23515507226E+02  0.87218940567E+03  0.87257179184E+03  0.00000000000E+00 0.  1.
         -2    1    1    2    0  502  0.10686134447E+02 -0.23515507226E+02  0.11201117172E+02  0.28153819908E+02  0.00000000000E+00 0. -1.
</event>
<event>
 4    1  0.6145708E+003  0.3440206E+02  0.7546771E-02  0.1384816E+00
          2   -1    0    0  501    0  0.00000000000E+00  0.00000000000E+00  0.44673188624E+03  0.44673188624E+03  0.00000000000E+00 0.  1.
         -2   -1    0    0    0  501 -0.00000000000E+00 -0.00000000000E+00 -0.32291934404E+02  0.32291934404E+02  0.00000000000E+00 0.  1.
          2    1    1    2  502    0 -0.57802854571E+01  0.33912980486E+02  0.43669683135E+03  0.43804979678E+03  0.00000000000E+00 0.  1.
         -2    1    1    2    0  502  0.57802854571E+01 -0.33912980486E+02 -0.22256879520E+02  0.40974023861E+02  0.00000000000E+00 0.  1.
</event>
<event>
 4    1  0.6145708E+003  0.3052037E+02  0.7546771E-02  0.1415127E+00
          2   -1    0    0  501    0  0.00000000000E+00  0.00000000000E+00  0.11720706820E+03  0.11720706820E+03  0.00000000000E+00 0. -1.
         -2   -1    0    0    0  501 -0.00000000000E+00 -0.00000000000E+00 -0.75023244523E+02  0.75023244523E+02  0.00000000000E+00 0.  1.
          2    1    1    2  502    0 -0.22714749893E+02 -0.20384634704E+02  0.11197372487E+03  0.11605864145E+03  0.00000000000E+00 0. -1.
         -2    1    1    2    0  502  0.22714749893E+02  0.20384634704E+02 -0.69789901196E+02  0.76171671268E+02  0.00000000000E+00 0.  1.
</event>
<event>
 4    1  0.6145708E+003  0.2029462E+02  0.7546771E-02  0.1529579E+00
          2   -1    0    0  501    0  0.00000000000E+00  0.00000000000E+00  0.82496122565E+02  0.82496122565E+02  0.00000000000E+00 0. -1.
         -2   -1    0    0    0  501 -0.00000000000E+00 -0.00000000000E+00 -0.49979607333E+01  0.49979607333E+01  0.00000000000E+00 0. -1.
          2    1    1    2  502    0 -0.10411424278E+02 -0.17420495185E+02  0.40179758025E+02  0.45014268437E+02  0.00000000000E+00 0. -1.
         -2    1    1    2    0  502  0.10411424278E+02  0.17420495185E+02  0.37318403807E+02  0.42479814861E+02  0.00000000000E+00 0. -1.
</event>
<event>
 4    1  0.6145708E+003  0.3102728E+02  0.7546771E-02  0.1410874E+00
          2   -1    0    0  501    0  0.00000000000E+00  0.00000000000E+00  0.33800773705E+03  0.33800773705E+03  0.00000000000E+00 0.  1.
         -2   -1    0    0    0  501 -0.00000000000E+00 -0.00000000000E+00 -0.11443996146E+03  0.11443996146E+03  0.00000000000E+00 0.  1.
          2    1    1    2  502    0 -0.31010419064E+02 -0.10228270666E+01  0.33517491535E+03  0.33660795615E+03  0.00000000000E+00 0.  1.
         -2    1    1    2    0  502  0.31010419064E+02  0.10228270666E+01 -0.11160713976E+03  0.11583974236E+03  0.00000000000E+00 0.  1.
</event>
<event>
 4    1  0.6145708E+003  0.4443996E+02  0.7546771E-02  0.1324264E+00
          2   -1    0    0  501    0  0.00000000000E+00  0.00000000000E+00  0.97501697619E+02  0.97501697619E+02  0.00000000000E+00 0. -1.
         -2   -1    0    0    0  501 -0.00000000000E+00 -0.00000000000E+00 -0.40991786592E+03  0.40991786592E+03  0.00000000000E+00 0. -1.
          2    1    1    2  502    0 -0.65754044969E+01 -0.43950813010E+02  0.91154052720E+02  0.10140991685E+03  0.00000000000E+00 0. -1.
         -2    1    1    2    0  502  0.65754044969E+01  0.43950813010E+02 -0.40357022102E+03  0.40600964668E+03  0.00000000000E+00 0. -1.
</event>
<event>
 4    1  0.6145708E+003  0.4129655E+02  0.7546771E-02  0.1341051E+00
          2   -1    0    0  501    0  0.00000000000E+00  0.00000000000E+00  0.78330579568E+01  0.78330579568E+01  0.00000000000E+00 0.  1.
         -2   -1    0    0    0  501 -0.00000000000E+00 -0.00000000000E+00 -0.45600818053E+03  0.45600818053E+03  0.00000000000E+00 0.  1.
          2    1    1    2  502    0  0.35450946962E+02  0.21181011526E+02 -0.56436895212E+02  0.69932310350E+02  0.00000000000E+00 0.  1.
         -2    1    1    2    0  502 -0.35450946962E+02 -0.21181011526E+02 -0.39173822736E+03  0.39390892814E+03  0.00000000000E+00 0.  1.
</event>
<event>
 4    1  0.6145708E+003  0.2513405E+02  0.7546771E-02  0.1467309E+00
          2   -1    0    0  501    0  0.00000000000E+00  0.00000000000E+00  0.14306132491E+04  0.14306132491E+04  0.00000000000E+00 0. -1.
         -2   -1    0    0    0  501 -0.00000000000E+00 -0.00000000000E+00 -0.80269129448E+01  0.80269129448E+01  0.00000000000E+00 0. -1.
          2    1    1    2  502    0 -0.21673491633E+02  0.12727150326E+02  0.14105479167E+04  0.14107718263E+04  0.00000000000E+00 0. -1.
         -2    1    1    2    0  502  0.21673491633E+02 -0.12727150326E+02  0.12038419493E+02  0.27868335776E+02  0.00000000000E+00 0. -1.
</event>
<event>
 4    1  0.6145708E+003  0.2398217E+02  0.7546771E-02  0.1480520E+00
          2   -1    0    0  501    0  0.00000000000E+00  0.00000000000E+00  0.79131319567E+03  0.79131319567E+03  0.00000000000E+00 0. -1.
         -2   -1    0    0    0  501 -0.00000000000E+00 -0.00000000000E+00 -0.77106578612E+00  0.77106578612E+00  0.00000000000E+00 0. -1.
          2    1    1    2  502    0 -0.47686495809E+01 -0.23503288734E+02  0.49013848639E+03  0.49072485207E+03  0.00000000000E+00 0. -1.
         -2    1    1    2    0  502  0.47686495809E+01  0.23503288734E+02  0.30040364350E+03  0.30135940939E+03  0.00000000000E+00 0. -1.
</event>
<event>
 4    1  0.6145708E+003  0.3117742E+02  0.7546771E-02  0.1409633E+00
          2   -1    0    0  501    0  0.00000000000E+00  0.00000000000E+00  0.13292938298E+02  0.13292938298E+02  0.00000000000E+00 0.  1.
         -2   -1    0    0    0  501 -0.00000000000E+00 -0.00000000000E+00 -0.73411165909E+02  0.73411165909E+02  0.00000000000E+00 0. -1.
          2    1    1    2  502    0 -0.23503775932E+02 -0.20484216105E+02 -0.32771313874E+02  0.45232616611E+02  0.00000000000E+00 0.  1.
         -2    1    1    2    0  502  0.23503775932E+02  0.20484216105E+02 -0.27346913738E+02  0.41471487596E+02  0.00000000000E+00 0. -1.
</event>
<event>
 4    1  0.6145708E+003  0.2343703E+02  0.7546771E-02  0.1487082E+00
          2   -1    0    0  501    0  0.00000000000E+00  0.00000000000E+00  0.82472505420E+03  0.82472505420E+03  0.00000000000E+00 0. -1.
         -2   -1    0    0    0  501 -0.00000000000E+00 -0.00000000000E+00 -0.70538544587E+00  0.70538544587E+00  0.00000000000E+00 0. -1.
          2    1    1    2  502    0  0.13372500981E+02 -0.19247602261E+02  0.31452794218E+03  0.31539993720E+03  0.00000000000E+00 0. -1.
         -2    1    1    2    0  502 -0.13372500981E+02  0.19247602261E+02  0.50949172657E+03  0.51003050244E+03  0.00000000000E+00 0. -1.
</event>
<event>
 4    1  0.6145708E+003  0.4970785E+02  0.7546771E-02  0.1299444E+00
          2   -1    0    0  501    0  0.00000000000E+00  0.00000000000E+00  0.48521570166E+02  0.48521570166E+02  0.00000000000E+00 0.  1.
         -2   -1    0    0    0  501 -0.00000000000E+00 -0.00000000000E+00 -0.54324722316E+02  0.54324722316E+02  0.00000000000E+00 0.  1.
          2    1    1    2  502    0 -0.49649988924E+02  0.23972360342E+01 -0.15769360029E+02  0.52149217218E+02  0.00000000000E+00 0.  1.
         -2    1    1    2    0  502  0.49649988924E+02 -0.23972360342E+01  0.99662078798E+01  0.50697075264E+02  0.00000000000E+00 0.  1.
</event>
<event>
 4    1  0.6145708E+003  0.3571272E+02  0.7546771E-02  0.1375621E+00
          2   -1    0    0  501    0  0.00000000000E+00  0.00000000000E+00  0.76223047340E+03  0.76223047340E+03  0.00000000000E+00 0. -1.
         -2   -1    0    0    0  501 -0.00000000000E+00 -0.00000000000E+00 -0.14448483437E+02  0.14448483437E+02  0.00000000000E+00 0. -1.
          2    1    1    2  502    0 -0.30394122442E+02  0.18750883137E+02  0.73905244145E+03  0.73991479882E+03  0.00000000000E+00 0. -1.
         -2    1    1    2    0  502  0.30394122442E+02 -0.18750883137E+02  0.87295485120E+01  0.36764158017E+02  0.00000000000E+00 0. -1.
</event>
<event>
 4    1  0.6145708E+003  0.2627912E+02  0.7546771E-02  0.1454987E+00
          2   -1    0    0  501    0  0.00000000000E+00  0.00000000000E+00  0.51940340619E+02  0.51940340619E+02  0.00000000000E+00 0.  1.
         -2   -1    0    0    0  501 -0.00000000000E+00 -0.00000000000E+00 -0.15219131762E+02  0.15219131762E+02  0.00000000000E+00 0.  1.
          2    1    1    2  502    0 -0.59300726564E+01  0.25601293217E+02  0.30297781278E+02  0.40106701765E+02  0.00000000000E+00 0.  1.
         -2    1    1    2    0  502  0.59300726564E+01 -0.25601293217E+02  0.64234275786E+01  0.27052770615E+02  0.00000000000E+00 0.  1.
</event>
<event>
 4    1  0.6145708E+003  0.3834068E+02  0.7546771E-02  0.1358494E+00
          2   -1    0    0  501    0  0.00000000000E+00  0.00000000000E+00  0.51457736255E+03  0.51457736255E+03  0.00000000000E+00 0.  1.
         -2   -1    0    0    0  501 -0.00000000000E+00 -0.00000000000E+00 -0.19149778218E+02  0.19149778218E+02  0.00000000000E+00 0. -1.
          2    1    1    2  502    0  0.97985203712E+01  0.37067464876E+02  0.49386876040E+03  0.49535478241E+03  0.00000000000E+00 0.  1.
         -2    1    1    2    0  502 -0.97985203712E+01 -0.37067464876E+02  0.15588239280E+01  0.38372358357E+02  0.00000000000E+00 0. -1.
</event>
<event>
 4    1  0.6145708E+003  0.2886182E+02  0.7546771E-02  0.1429752E+00
          2   -1    0    0  501    0  0.00000000000E+00  0.00000000000E+00  0.74994957298E+03  0.74994957298E+03  0.00000000000E+00 0.  1.
         -2   -1    0    0    0  501 -0.00000000000E+00 -0.00000000000E+00 -0.38572805039E+01  0.38572805039E+01  0.00000000000E+00 0. -1.
          2    1    1    2  502    0  0.19894813227E+00  0.28861132829E+02  0.69108625308E+03  0.69168866824E+03  0.00000000000E+00 0.  1.
         -2    1    1    2    0  502 -0.19894813227E+00 -0.28861132829E+02  0.55006039393E+02  0.62118185245E+02  0.00000000000E+00 0. -1.
</event>
<event>
 4    1  0.6145708E+003  0.2230754E+02  0.7546771E-02  0.1501381E+00
          2   -1    0    0  501    0  0.00000000000E+00  0.00000000000E+00  0.71490816210E+02  0.71490816210E+02  0.00000000000E+00 0. -1.
         -2   -1    0    0    0  501 -0.00000000000E+00 -0.00000000000E+00 -0.71199169031E+01  0.71199169031E+01  0.00000000000E+00 0. -1.
          2    1    1    2  502    0 -0.20931384714E+02  0.77138098019E+01  0.26307626142E+02  0.34492273352E+02  0.00000000000E+00 0. -1.
         -2    1    1    2    0  502  0.20931384714E+02 -0.77138098019E+01  0.38063273165E+02  0.44118459762E+02  0.00000000000E+00 0. -1.
</event>
<event>
 4    1  0.6145708E+003  0.2013720E+02  0.7546771E-02  0.1531949E+00
          2   -1    0    0  501    0  0.00000000000E+00  0.00000000000E+00  0.54773180188E+03  0.54773180188E+03  0.00000000000E+00 0. -1.
         -2   -1    0    0    0  501 -0.00000000000E+00 -0.00000000000E+00 -0.31506121773E+03  0.31506121773E+03  0.00000000000E+00 0. -1.
          2    1    1    2  502    0 -0.13784311804E+02  0.14679909756E+02  0.54722465070E+03  0.54759503772E+03  0.00000000000E+00 0. -1.
         -2    1    1    2    0  502  0.13784311804E+02 -0.14679909756E+02 -0.31455406655E+03  0.31519798189E+03  0.00000000000E+00 0. -1.
</event>
<event>
 4    1  0.6145708E+003  0.2213020E+02  0.7546771E-02  0.1503719E+00
          2   -1    0    0  501    0  0.00000000000E+00  0.00000000000E+00  0.66521463148E+03  0.66521463148E+03  0.00000000000E+00 0. -1.
         -2   -1    0    0    0  501 -0.00000000000E+00 -0.00000000000E+00 -0.73703302951E+00  0.73703302951E+00  0.00000000000E+00 0. -1.
          2    1    1    2  502    0 -0.16931771373E+02  0.14249936383E+02  0.34328514966E+03  0.34399773189E+03  0.00000000000E+00 0. -1.
         -2    1    1    2    0  502  0.16931771373E+02 -0.14249936383E+02  0.32119244879E+03  0.32195393262E+03  0.00000000000E+00 0. -1.
</event>
<event>
 4    1  0.6145708E+003  0.2959281E+02  0.7546771E-02  0.1423168E+00
          2   -1    0    0  501    0  0.00000000000E+00  0.00000000000E+00  0.79185455561E+02  0.79185455561E+02  0.00000000000E+00 0. -1.
         -2   -1    0    0    0  501 -0.00000000000E+00 -0.00000000000E+00 -0.29438234817E+02  0.29438234817E+02  0.00000000000E+00 0.  1.
          2    1    1    2  502    0 -0.16688760890E+02  0.24438078981E+02  0.67787613900E+02  0.73965499002E+02  0.00000000000E+00 0. -1.
         -2    1    1    2    0  502  0.16688760890E+02 -0.24438078981E+02 -0.18040393155E+02  0.34658191377E+02  0.00000000000E+00 0.  1.
</event>
<event>
 4    1  0.6145708E+003  0.5492155E+02  0.7546771E-02  0.1278137E+00
          2   -1    0    0  501    0  0.00000000000E+00  0.00000000000E+00  0.62379151801E+03  0.62379151801E+03  0.00000000000E+00 0.  1.
         -2   -1    0    0    0  501 -0.00000000000E+00 -0.00000000000E+00 -0.87435305665E+01  0.87435305665E+01  0.00000000000E+00 0.  1.
          2    1    1    2  502    0  0.15968148677E+02  0.52548973133E+02  0.51896405055E+03  0.52186211024E+03  0.00000000000E+00 0.  1.
         -2    1    1    2    0  502 -0.15968148677E+02 -0.52548973133E+02  0.96083936902E+02  0.11067293834E+03  0.00000000000E+00 0.  1.
</event>
<event>
 4    1  0.6145708E+003  0.2375809E+02  0.7546771E-02  0.1483192E+00
          2   -1    0    0  501    0  0.00000000000E+00  0.00000000000E+00  0.68951370460E+02  0.68951370460E+02  0.00000000000E+00 0.  1.
         -2   -1    0    0    0  501 -0.00000000000E+00 -0.00000000000E+00 -0.25678139921E+02  0.25678139921E+02  0.00000000000E+00 0. -1.
          2    1    1    2  502    0  0.15129203834E+02  0.18318135359E+02  0.60687808865E+02  0.65172517494E+02  0.00000000000E+00 0.  1.
         -2    1    1    2    0  502 -0.15129203834E+02 -0.18318135359E+02 -0.17414578326E+02  0.29456992887E+02  0.00000000000E+00 0. -1.
</event>
<event>
 4    1  0.6145708E+003  0.2210767E+02  0.7546771E-02  0.1504018E+00
          2   -1    0    0  501    0  0.00000000000E+00  0.00000000000E+00  0.23795351571E+03  0.23795351571E+03  0.00000000000E+00 0.  1.
         -2   -1    0    0    0  501 -0.00000000000E+00 -0.00000000000E+00 -0.31679370624E+03  0.31679370624E+03  0.00000000000E+00 0.  1.
          2    1    1    2  502    0  0.14359097634E+02  0.16809680211E+02  0.23705286157E+03  0.23808151589E+03  0.00000000000E+00 0.  1.
         -2    1    1    2    0  502 -0.14359097634E+02 -0.16809680211E+02 -0.31589305209E+03  0.31666570606E+03  0.00000000000E+00 0.  1.
</event>
<event>
 4    1  0.6145708E+003  0.2141284E+02  0.7546771E-02  0.1513452E+00
          2   -1    0    0  501    0  0.00000000000E+00  0.00000000000E+00  0.39323653757E+02  0.39323653757E+02  0.00000000000E+00 0. -1.
         -2   -1    0    0    0  501 -0.00000000000E+00 -0.00000000000E+00 -0.15344578100E+03  0.15344578100E+03  0.00000000000E+00 0.  1.
          2    1    1    2  502    0 -0.52416456651E+01  0.20761375344E+02  0.35589316950E+02  0.41534431938E+02  0.00000000000E+00 0. -1.
         -2    1    1    2    0  502  0.52416456651E+01 -0.20761375344E+02 -0.14971144419E+03  0.15123500282E+03  0.00000000000E+00 0.  1.
</event>
<event>
 4    1  0.6145708E+003  0.3354541E+02  0.7546771E-02  0.1391088E+00
          2   -1    0    0  501    0  0.00000000000E+00  0.00000000000E+00  0.97107232830E+02  0.97107232830E+02  0.00000000000E+00 0.  1.
         -2   -1    0    0    0  501 -0.00000000000E+00 -0.00000000000E+00 -0.13477190326E+02  0.13477190326E+02  0.00000000000E+00 0.  1.
          2    1    1    2  502    0 -0.30083472326E+02  0.14841797842E+02  0.62515653226E+02  0.70947171675E+02  0.00000000000E+00 0.  1.
         -2    1    1    2    0  502  0.30083472326E+02 -0.14841797842E+02  0.21114389278E+02  0.39637251481E+02  0.00000000000E+00 0.  1.
</event>
<event>
 4    1  0.6145708E+003  0.2743864E+02  0.7546771E-02  0.1443251E+00
          2   -1    0    0  501    0  0.00000000000E+00  0.00000000000E+00  0.53670954597E+02  0.53670954597E+02  0.00000000000E+00 0.  1.
         -2   -1    0    0    0  501 -0.00000000000E+00 -0.00000000000E+00 -0.57386002793E+02  0.57386002793E+02  0.00000000000E+00 0. -1.
          2    1    1    2  502    0  0.90569631234E+01 -0.25900776678E+02  0.46409335167E+02  0.53913868385E+02  0.00000000000E+00 0.  1.
         -2    1    1    2    0  502 -0.90569631234E+01  0.25900776678E+02 -0.50124383363E+02  0.57143089005E+02  0.00000000000E+00 0. -1.
</event>
<event>
 4    1  0.6145708E+003  0.2219047E+02  0.7546771E-02  0.1502921E+00
          2   -1    0    0  501    0  0.00000000000E+00  0.00000000000E+00  0.12883788075E+04  0.12883788075E+04  0.00000000000E+00 0.  1.
         -2   -1    0    0    0  501 -0.00000000000E+00 -0.00000000000E+00 -0.13574467516E+01  0.13574467516E+01  0.00000000000E+00 0.  1.
          2    1    1    2  502    0 -0.21427969440E+02 -0.57670845324E+01  0.11901073507E+04  0.11903142120E+04  0.00000000000E+00 0.  1.
         -2    1    1    2    0  502  0.21427969440E+02  0.57670845324E+01  0.96914010005E+02  0.99422042192E+02  0.00000000000E+00 0.  1.
</event>
<event>
 4    1  0.6145708E+003  0.4348322E+02  0.7546771E-02  0.1329200E+00
          2   -1    0    0  501    0  0.00000000000E+00  0.00000000000E+00  0.79398842712E+03  0.79398842712E+03  0.00000000000E+00 0.  1.
         -2   -1    0    0    0  501 -0.00000000000E+00 -0.00000000000E+00 -0.12266286842E+03  0.12266286842E+03  0.00000000000E+00 0. -1.
          2    1    1    2  502    0  0.18551816004E+02 -0.39327096302E+02  0.78951764375E+03  0.79071417097E+03  0.00000000000E+00 0.  1.
         -2    1    1    2    0  502 -0.18551816004E+02  0.39327096302E+02 -0.11819208504E+03  0.12593712458E+03  0.00000000000E+00 0. -1.
</event>
<event>
 4    1  0.6145708E+003  0.2043611E+02  0.7546771E-02  0.1527470E+00
          2   -1    0    0  501    0  0.00000000000E+00  0.00000000000E+00  0.62985107802E+02  0.62985107802E+02  0.00000000000E+00 0.  1.
         -2   -1    0    0    0  501 -0.00000000000E+00 -0.00000000000E+00 -0.20789421615E+02  0.20789421615E+02  0.00000000000E+00 0.  1.
          2    1    1    2  502    0  0.87165122516E+01  0.18483968915E+02  0.55665741773E+02  0.59298478056E+02  0.00000000000E+00 0.  1.
         -2    1    1    2    0  502 -0.87165122516E+01 -0.18483968915E+02 -0.13470055586E+02  0.24476051360E+02  0.00000000000E+00 0.  1.
</event>
<event>
 4    1  0.6145708E+003  0.4407310E+02  0.7546771E-02  0.1326140E+00
          2   -1    0    0  501    0  0.00000000000E+00  0.00000000000E+00  0.62626124772E+03  0.62626124772E+03  0.00000000000E+00 0.  1.
         -2   -1    0    0    0  501 -0.00000000000E+00 -0.00000000000E+00 -0.93488342445E+02  0.93488342445E+02  0.00000000000E+00 0.  1.
          2    1    1    2  502    0 -0.35986608300E+02  0.25444103127E+02  0.62024115105E+03  0.62180505290E+03  0.00000000000E+00 0.  1.
         -2    1    1    2    0  502  0.35986608300E+02 -0.25444103127E+02 -0.87468245774E+02  0.97944537263E+02  0.00000000000E+00 0.  1.
</event>
<event>
 4    1  0.6145708E+003  0.2246605E+02  0.7546771E-02  0.1499314E+00
          2   -1    0    0  501    0  0.00000000000E+00  0.00000000000E+00  0.10866967936E+04  0.10866967936E+04  0.00000000000E+00 0. -1.
         -2   -1    0    0    0  501 -0.00000000000E+00 -0.00000000000E+00 -0.56456133351E+02  0.56456133351E+02  0.00000000000E+00 0.  1.
          2    1    1    2  502    0  0.18152226260E+02 -0.13237073648E+02  0.10843407990E+04  0.10845735069E+04  0.00000000000E+00 0. -1.
         -2    1    1    2    0  502 -0.18152226260E+02  0.13237073648E+02 -0.54100138781E+02  0.58579420047E+02  0.00000000000E+00 0.  1.
</event>
<event>
 4    1  0.6145708E+003  0.3486909E+02  0.7546771E-02  0.1381486E+00
          2   -1    0    0  501    0  0.00000000000E+00  0.00000000000E+00  0.77891546555E+03  0.77891546555E+03  0.00000000000E+00 0. -1.
         -2   -1    0    0    0  501 -0.00000000000E+00 -0.00000000000E+00 -0.41324264486E+01  0.41324264486E+01  0.00000000000E+00 0.  1.
          2    1    1    2  502    0 -0.16222709079E+02  0.30865465236E+02  0.69624072000E+03  0.69711332896E+03  0.00000000000E+00 0. -1.
         -2    1    1    2    0  502  0.16222709079E+02 -0.30865465236E+02  0.78542319106E+02  0.85934563038E+02  0.00000000000E+00 0.  1.
</event>
<event>
 4    1  0.6145708E+003  0.2861151E+02  0.7546771E-02  0.1432059E+00
          2   -1    0    0  501    0  0.00000000000E+00  0.00000000000E+00  0.61599896891E+03  0.61599896891E+03  0.00000000000E+00 0.  1.
         -2   -1    0    0    0  501 -0.00000000000E+00 -0.00000000000E+00 -0.17785049423E+01  0.17785049423E+01  0.00000000000E+00 0. -1.
          2    1    1    2  502    0  0.16877215256E+02 -0.23103633534E+02  0.46241205353E+03  0.46329636900E+03  0.00000000000E+00 0.  1.
         -2    1    1    2    0  502 -0.16877215256E+02  0.23103633534E+02  0.15180841044E+03  0.15448110485E+03  0.00000000000E+00 0. -1.
</event>
<event>
 4    1  0.6145708E+003  0.2828521E+02  0.7546771E-02  0.1435108E+00
          2   -1    0    0  501    0  0.00000000000E+00  0.00000000000E+00  0.32653023440E+03  0.32653023440E+03  0.00000000000E+00 0. -1.
         -2   -1    0    0    0  501 -0.00000000000E+00 -0.00000000000E+00 -0.97047165186E+01  0.97047165186E+01  0.00000000000E+00 0. -1.
          2    1    1    2  502    0  0.23410767557E+02  0.15874162572E+02  0.30376666474E+03  0.30508071011E+03  0.00000000000E+00 0. -1.
         -2    1    1    2    0  502 -0.23410767557E+02 -0.15874162572E+02  0.13058853144E+02  0.31154240809E+02  0.00000000000E+00 0. -1.
</event>
<event>
 4    1  0.6145708E+003  0.3079431E+02  0.7546771E-02  0.1412817E+00
          2   -1    0    0  501    0  0.00000000000E+00  0.00000000000E+00  0.51015283198E+03  0.51015283198E+03  0.00000000000E+00 0.  1.
         -2   -1    0    0    0  501 -0.00000000000E+00 -0.00000000000E+00 -0.23629184944E+01  0.23629184944E+01  0.00000000000E+00 0.  1.
          2    1    1    2  502    0  0.35662336211E+01 -0.30587112673E+02  0.37225482507E+03  0.37352636356E+03  0.00000000000E+00 0.  1.
         -2    1    1    2    0  502 -0.35662336211E+01  0.30587112673E+02  0.13553508841E+03  0.13898938692E+03  0.00000000000E+00 0.  1.
</event>
<event>
 4    1  0.6145708E+003  0.3099133E+02  0.7546771E-02  0.1411173E+00
          2   -1    0    0  501    0  0.00000000000E+00  0.00000000000E+00  0.28229107391E+03  0.28229107391E+03  0.00000000000E+00 0.  1.
         -2   -1    0    0    0  501 -0.00000000000E+00 -0.00000000000E+00 -0.78710608451E+02  0.78710608451E+02  0.00000000000E+00 0.  1.
          2    1    1    2  502    0  0.27792030461E+02  0.13713703771E+02  0.27834676877E+03  0.28006675332E+03  0.00000000000E+00 0.  1.
         -2    1    1    2    0  502 -0.27792030461E+02 -0.13713703771E+02 -0.74766303313E+02  0.80934929044E+02  0.00000000000E+00 0.  1.
</event>
<event>
 4    1  0.6145708E+003  0.2307124E+02  0.7546771E-02  0.1491605E+00
          2   -1    0    0  501    0  0.00000000000E+00  0.00000000000E+00  0.79559742823E+03  0.79559742823E+03  0.00000000000E+00 0.  1.
         -2   -1    0    0    0  501 -0.00000000000E+00 -0.00000000000E+00 -0.13333088160E+01  0.13333088160E+01  0.00000000000E+00 0.  1.
          2    1    1    2  502    0 -0.14737693289E+02 -0.17750566663E+02  0.67838618352E+03  0.67877838519E+03  0.00000000000E+00 0.  1.
         -2    1    1    2    0  502  0.14737693289E+02  0.17750566663E+02  0.11587793589E+03  0.11815235185E+03  0.00000000000E+00 0.  1.
</event>
<event>
 4    1  0.6145708E+003  0.2376588E+02  0.7546771E-02  0.1483099E+00
          2   -1    0    0  501    0  0.00000000000E+00  0.00000000000E+00  0.12953066807E+03  0.12953066807E+03  0.00000000000E+00 0.  1.
         -2   -1    0    0    0  501 -0.00000000000E+00 -0.00000000000E+00 -0.19627303930E+02  0.19627303930E+02  0.00000000000E+00 0. -1.
          2    1    1    2  502    0 -0.55077068267E+01 -0.23118872633E+02  0.12072660761E+03  0.12304361378E+03  0.00000000000E+00 0.  1.
         -2    1    1    2    0  502  0.55077068267E+01  0.23118872633E+02 -0.10823243467E+02  0.26114358225E+02  0.00000000000E+00 0. -1.
</event>
<event>
 4    1  0.6145708E+003  0.4465813E+02  0.7546771E-02  0.1323158E+00
          2   -1    0    0  501    0  0.00000000000E+00  0.00000000000E+00  0.12571030941E+03  0.12571030941E+03  0.00000000000E+00 0.  1.
         -2   -1    0    0    0  501 -0.00000000000E+00 -0.00000000000E+00 -0.13714707154E+03  0.13714707154E+03  0.00000000000E+00 0. -1.
          2    1    1    2  502    0 -0.25036027893E+01  0.44587894341E+02  0.11787518567E+03  0.12605121080E+03  0.00000000000E+00 0.  1.
         -2    1    1    2    0  502  0.25036027893E+01 -0.44587894341E+02 -0.12931194779E+03  0.13680617015E+03  0.00000000000E+00 0. -1.
</event>
<event>
 4    1  0.6145708E+003  0.2739073E+02  0.7546771E-02  0.1443722E+00
          2   -1    0    0  501    0  0.00000000000E+00  0.00000000000E+00  0.85527226621E+03  0.85527226621E+03  0.00000000000E+00 0. -1.
         -2   -1    0    0    0  501 -0.00000000000E+00 -0.00000000000E+00 -0.29234987173E+01  0.29234987173E+01  0.00000000000E+00 0. -1.
          2    1    1    2  502    0 -0.12589946208E+01  0.27361782961E+02  0.78516947901E+03  0.78564709826E+03  0.00000000000E+00 0. -1.
         -2    1    1    2    0  502  0.12589946208E+01 -0.27361782961E+02  0.67179288479E+02  0.72548666665E+02  0.00000000000E+00 0. -1.
</event>
<event>
 4    1  0.6145708E+003  0.3117715E+02  0.7546771E-02  0.1409635E+00
          2   -1    0    0  501    0  0.00000000000E+00  0.00000000000E+00  0.12989166690E+04  0.12989166690E+04  0.00000000000E+00 0.  1.
         -2   -1    0    0    0  501 -0.00000000000E+00 -0.00000000000E+00 -0.46507433741E+01  0.46507433741E+01  0.00000000000E+00 0.  1.
          2    1    1    2  502    0 -0.55970290135E+01  0.30670635158E+02  0.12441807681E+04  0.12445713312E+04  0.00000000000E+00 0.  1.
         -2    1    1    2    0  502  0.55970290135E+01 -0.30670635158E+02  0.50085157448E+02  0.58996081152E+02  0.00000000000E+00 0.  1.
</event>
<event>
 4    1  0.6145708E+003  0.2479047E+02  0.7546771E-02  0.1471161E+00
          2   -1    0    0  501    0  0.00000000000E+00  0.00000000000E+00  0.33313457678E+01  0.33313457678E+01  0.00000000000E+00 0.  1.
         -2   -1    0    0    0  501 -0.00000000000E+00 -0.00000000000E+00 -0.36160972488E+03  0.36160972488E+03  0.00000000000E+00 0.  1.
          2    1    1    2  502    0 -0.23705436628E+02  0.72539324223E+01 -0.51431160966E+02  0.57094059057E+02  0.00000000000E+00 0.  1.
         -2    1    1    2    0  502  0.23705436628E+02 -0.72539324223E+01 -0.30684721814E+03  0.30784701159E+03  0.00000000000E+00 0.  1.
</event>
<event>
 4    1  0.6145708E+003  0.2118526E+02  0.7546771E-02  0.1516636E+00
          2   -1    0    0  501    0  0.00000000000E+00  0.00000000000E+00  0.12499337900E+04  0.12499337900E+04  0.00000000000E+00 0.  1.
         -2   -1    0    0    0  501 -0.00000000000E+00 -0.00000000000E+00 -0.10647164338E+02  0.10647164338E+02  0.00000000000E+00 0.  1.
          2    1    1    2  502    0  0.19227043919E+02 -0.88958342939E+01  0.12392144999E+04  0.12393955752E+04  0.00000000000E+00 0.  1.
         -2    1    1    2    0  502 -0.19227043919E+02  0.88958342939E+01  0.72125736827E-01  0.21185379104E+02  0.00000000000E+00 0.  1.
</event>
<event>
 4    1  0.6145708E+003  0.2513545E+02  0.7546771E-02  0.1467294E+00
          2   -1    0    0  501    0  0.00000000000E+00  0.00000000000E+00  0.11600823395E+04  0.11600823395E+04  0.00000000000E+00 0.  1.
         -2   -1    0    0    0  501 -0.00000000000E+00 -0.00000000000E+00 -0.62225506848E+01  0.62225506848E+01  0.00000000000E+00 0. -1.
          2    1    1    2  502    0 -0.25114672787E+02  0.10216896814E+01  0.11339788504E+04  0.11342573887E+04  0.00000000000E+00 0.  1.
         -2    1    1    2    0  502  0.25114672787E+02 -0.10216896814E+01  0.19880938378E+02  0.32047501459E+02  0.00000000000E+00 0. -1.
</event>
<event>
 4    1  0.6145708E+003  0.2214236E+02  0.7546771E-02  0.1503558E+00
          2   -1    0    0  501    0  0.00000000000E+00  0.00000000000E+00  0.29187268758E+03  0.29187268758E+03  0.00000000000E+00 0. -1.
         -2   -1    0    0    0  501 -0.00000000000E+00 -0.00000000000E+00 -0.24851898628E+01  0.24851898628E+01  0.00000000000E+00 0. -1.
          2    1    1    2  502    0  0.56114410550E+01 -0.21419519007E+02  0.22847992201E+03  0.22955034050E+03  0.00000000000E+00 0. -1.
         -2    1    1    2    0  502 -0.56114410550E+01  0.21419519007E+02  0.60907575715E+02  0.64807536944E+02  0.00000000000E+00 0. -1.
</event>
<event>
 4    1  0.6145708E+003  0.2682742E+02  0.7546771E-02  0.1449349E+00
          2   -1    0    0  501    0  0.00000000000E+00  0.00000000000E+00  0.30674198162E+02  0.30674198162E+02  0.00000000000E+00 0. -1.
         -2   -1    0    0    0  501 -0.00000000000E+00 -0.00000000000E+00 -0.32974972531E+03  0.32974972531E+03  0.00000000000E+00 0. -1.
          2    1    1    2  502    0 -0.98407248523E+01 -0.24957380972E+02  0.24144485252E+02  0.36092477037E+02  0.00000000000E+00 0. -1.
         -2    1    1    2    0  502  0.98407248523E+01  0.24957380972E+02 -0.32322001240E+03  0.32433144644E+03  0.00000000000E+00 0. -1.
</event>
<event>
 4    1  0.6145708E+003  0.2854727E+02  0.7546771E-02  0.1432655E+00
          2   -1    0    0  501    0  0.00000000000E+00  0.00000000000E+00  0.13120014927E+03  0.13120014927E+03  0.00000000000E+00 0.  1.
         -2   -1    0    0    0  501 -0.00000000000E+00 -0.00000000000E+00 -0.22530090992E+02  0.22530090992E+02  0.00000000000E+00 0.  1.
          2    1    1    2  502    0 -0.24554221842E+02  0.14561477137E+02  0.11975186001E+03  0.12310749126E+03  0.00000000000E+00 0.  1.
         -2    1    1    2    0  502  0.24554221842E+02 -0.14561477137E+02 -0.11081801739E+02  0.30622749002E+02  0.00000000000E+00 0.  1.
</event>
<event>
 4    1  0.6145708E+003  0.2916549E+02  0.7546771E-02  0.1426990E+00
          2   -1    0    0  501    0  0.00000000000E+00  0.00000000000E+00  0.82540706473E+03  0.82540706473E+03  0.00000000000E+00 0.  1.
         -2   -1    0    0    0  501 -0.00000000000E+00 -0.00000000000E+00 -0.42502834650E+01  0.42502834650E+01  0.00000000000E+00 0. -1.
          2    1    1    2  502    0  0.76665621414E+01 -0.28139819521E+02  0.77163025174E+03  0.77218124234E+03  0.00000000000E+00 0.  1.
         -2    1    1    2    0  502 -0.76665621414E+01  0.28139819521E+02  0.49526529523E+02  0.57476105856E+02  0.00000000000E+00 0. -1.
</event>
<event>
 4    1  0.6145708E+003  0.2554254E+02  0.7546771E-02  0.1462825E+00
          2   -1    0    0  501    0  0.00000000000E+00  0.00000000000E+00  0.63954425190E+00  0.63954425190E+00  0.00000000000E+00 0. -1.
         -2   -1    0    0    0  501 -0.00000000000E+00 -0.00000000000E+00 -0.10930672025E+04  0.10930672025E+04  0.00000000000E+00 0. -1.
          2    1    1    2  502    0  0.25026968858E+02 -0.51061157077E+01 -0.40495792643E+03  0.40576266926E+03  0.00000000000E+00 0. -1.
         -2    1    1    2    0  502 -0.25026968858E+02  0.51061157077E+01 -0.68746973177E+03  0.68794407745E+03  0.00000000000E+00 0. -1.
</event>
<event>
 4    1  0.6145708E+003  0.3396069E+02  0.7546771E-02  0.1388021E+00
          2   -1    0    0  501    0  0.00000000000E+00  0.00000000000E+00  0.11208429901E+02  0.11208429901E+02  0.00000000000E+00 0.  1.
         -2   -1    0    0    0  501 -0.00000000000E+00 -0.00000000000E+00 -0.16079596834E+03  0.16079596834E+03  0.00000000000E+00 0. -1.
          2    1    1    2  502    0  0.28661348425E+02 -0.18216905043E+02 -0.23187499382E+02  0.41121632390E+02  0.00000000000E+00 0.  1.
         -2    1    1    2    0  502 -0.28661348425E+02  0.18216905043E+02 -0.12640003905E+03  0.13088276585E+03  0.00000000000E+00 0. -1.
</event>
<event>
 4    1  0.6145708E+003  0.2216241E+02  0.7546771E-02  0.1503292E+00
          2   -1    0    0  501    0  0.00000000000E+00  0.00000000000E+00  0.72735636509E+01  0.72735636509E+01  0.00000000000E+00 0. -1.
         -2   -1    0    0    0  501 -0.00000000000E+00 -0.00000000000E+00 -0.11170529823E+03  0.11170529823E+03  0.00000000000E+00 0.  1.
          2    1    1    2  502    0 -0.12573518539E+02 -0.18250449706E+02 -0.14804771832E+02  0.26652458647E+02  0.00000000000E+00 0. -1.
         -2    1    1    2    0  502  0.12573518539E+02  0.18250449706E+02 -0.89626962742E+02  0.92326403229E+02  0.00000000000E+00 0.  1.
</event>
<event>
 4    1  0.6145708E+003  0.2356870E+02  0.7546771E-02  0.1485478E+00
          2   -1    0    0  501    0  0.00000000000E+00  0.00000000000E+00  0.16063544234E+04  0.16063544234E+04  0.00000000000E+00 0.  1.
         -2   -1    0    0    0  501 -0.00000000000E+00 -0.00000000000E+00 -0.27914879399E+01  0.27914879399E+01  0.00000000000E+00 0. -1.
          2    1    1    2  502    0 -0.32405705928E+01  0.23344856151E+02  0.15548729371E+04  0.15550515536E+04  0.00000000000E+00 0.  1.
         -2    1    1    2    0  502  0.32405705928E+01 -0.23344856151E+02  0.48689998341E+02  0.54094357792E+02  0.00000000000E+00 0. -1.
</event>
<event>
 4    1  0.6145708E+003  0.2139590E+02  0.7546771E-02  0.1513687E+00
          2   -1    0    0  501    0  0.00000000000E+00  0.00000000000E+00  0.60705757306E+02  0.60705757306E+02  0.00000000000E+00 0. -1.
         -2   -1    0    0    0  501 -0.00000000000E+00 -0.00000000000E+00 -0.16937777886E+03  0.16937777886E+03  0.00000000000E+00 0. -1.
          2    1    1    2  502    0 -0.19702768985E+02  0.83417823888E+01  0.58115654865E+02  0.61929102848E+02  0.00000000000E+00 0. -1.
         -2    1    1    2    0  502  0.19702768985E+02 -0.83417823888E+01 -0.16678767642E+03  0.16815443331E+03  0.00000000000E+00 0. -1.
</event>
<event>
 4    1  0.6145708E+003  0.2056199E+02  0.7546771E-02  0.1525611E+00
          2   -1    0    0  501    0  0.00000000000E+00  0.00000000000E+00  0.69601854913E+03  0.69601854913E+03  0.00000000000E+00 0.  1.
         -2   -1    0    0    0  501 -0.00000000000E+00 -0.00000000000E+00 -0.10277497950E+01  0.10277497950E+01  0.00000000000E+00 0.  1.
          2    1    1    2  502    0 -0.52765641166E+01 -0.19873436489E+02  0.57037389063E+03  0.57074440051E+03  0.00000000000E+00 0.  1.
         -2    1    1    2    0  502  0.52765641166E+01  0.19873436489E+02  0.12461690871E+03  0.12630189841E+03  0.00000000000E+00 0.  1.
</event>
<event>
 4    1  0.6145708E+003  0.2576676E+02  0.7546771E-02  0.1460406E+00
          2   -1    0    0  501    0  0.00000000000E+00  0.00000000000E+00  0.51334515451E+03  0.51334515451E+03  0.00000000000E+00 0. -1.
         -2   -1    0    0    0  501 -0.00000000000E+00 -0.00000000000E+00 -0.22618525619E+03  0.22618525619E+03  0.00000000000E+00 0. -1.
          2    1    1    2  502    0 -0.43920688565E+00 -0.25763017308E+02  0.51228647599E+03  0.51293406930E+03  0.00000000000E+00 0. -1.
         -2    1    1    2    0  502  0.43920688565E+00  0.25763017308E+02 -0.22512657768E+03  0.22659634141E+03  0.00000000000E+00 0. -1.
</event>
<event>
 4    1  0.6145708E+003  0.2139500E+02  0.7546771E-02  0.1513699E+00
          2   -1    0    0  501    0  0.00000000000E+00  0.00000000000E+00  0.10607105577E+04  0.10607105577E+04  0.00000000000E+00 0.  1.
         -2   -1    0    0    0  501 -0.00000000000E+00 -0.00000000000E+00 -0.43301503443E+00  0.43301503443E+00  0.00000000000E+00 0.  1.
          2    1    1    2  502    0  0.19715726879E+02 -0.83088028620E+01  0.56103546839E+03  0.56144326773E+03  0.00000000000E+00 0.  1.
         -2    1    1    2    0  502 -0.19715726879E+02  0.83088028620E+01  0.49924207432E+03  0.49970030505E+03  0.00000000000E+00 0.  1.
</event>
<event>
 4    1  0.6145708E+003  0.6660603E+02  0.7546771E-02  0.1238901E+00
          2   -1    0    0  501    0  0.00000000000E+00  0.00000000000E+00  0.18688045394E+04  0.18688045394E+04  0.00000000000E+00 0. -1.
         -2   -1    0    0    0  501 -0.00000000000E+00 -0.00000000000E+00 -0.81795584941E+01  0.81795584941E+01  0.00000000000E+00 0. -1.
          2    1    1    2  502    0 -0.41266011925E+02  0.52282682628E+02  0.17209752031E+04  0.17222636303E+04  0.00000000000E+00 0. -1.
         -2    1    1    2    0  502  0.41266011925E+02 -0.52282682628E+02  0.13964977775E+03  0.15472046752E+03  0.00000000000E+00 0. -1.
</event>
<event>
 4    1  0.6145708E+003  0.2191152E+02  0.7546771E-02  0.1506638E+00
          2   -1    0    0  501    0  0.00000000000E+00  0.00000000000E+00  0.48666903257E+03  0.48666903257E+03  0.00000000000E+00 0. -1.
         -2   -1    0    0    0  501 -0.00000000000E+00 -0.00000000000E+00 -0.31631812591E+01  0.31631812591E+01  0.00000000000E+00 0. -1.
          2    1    1    2  502    0  0.21883245882E+02  0.11128365275E+01  0.44491819907E+03  0.44545742638E+03  0.00000000000E+00 0. -1.
         -2    1    1    2    0  502 -0.21883245882E+02 -0.11128365275E+01  0.38587652241E+02  0.44374787446E+02  0.00000000000E+00 0. -1.
</event>
<event>
 4    1  0.6145708E+003  0.2238505E+02  0.7546771E-02  0.1500368E+00
          2   -1    0    0  501    0  0.00000000000E+00  0.00000000000E+00  0.12392642302E+04  0.12392642302E+04  0.00000000000E+00 0.  1.
         -2   -1    0    0    0  501 -0.00000000000E+00 -0.00000000000E+00 -0.31904274714E+01  0.31904274714E+01  0.00000000000E+00 0.  1.
          2    1    1    2  502    0 -0.21663502724E+02 -0.56376367086E+01  0.11985648039E+04  0.11987738233E+04  0.00000000000E+00 0.  1.
         -2    1    1    2    0  502  0.21663502724E+02  0.56376367086E+01  0.37508998850E+02  0.43680834386E+02  0.00000000000E+00 0.  1.
</event>
<event>
 4    1  0.6145708E+003  0.3870597E+02  0.7546771E-02  0.1356240E+00
          2   -1    0    0  501    0  0.00000000000E+00  0.00000000000E+00  0.11375695399E+04  0.11375695399E+04  0.00000000000E+00 0. -1.
         -2   -1    0    0    0  501 -0.00000000000E+00 -0.00000000000E+00 -0.14558402113E+01  0.14558402113E+01  0.00000000000E+00 0.  1.
          2    1    1    2  502    0  0.34164606124E+02  0.18191479406E+02  0.39216575842E+03  0.39407122746E+03  0.00000000000E+00 0. -1.
         -2    1    1    2    0  502 -0.34164606124E+02 -0.18191479406E+02  0.74394794125E+03  0.74495415264E+03  0.00000000000E+00 0.  1.
</event>
<event>
 4    1  0.6145708E+003  0.2372545E+02  0.7546771E-02  0.1483584E+00
          2   -1    0    0  501    0  0.00000000000E+00  0.00000000000E+00  0.56458183590E+02  0.56458183590E+02  0.00000000000E+00 0.  1.
         -2   -1    0    0    0  501 -0.00000000000E+00 -0.00000000000E+00 -0.42227782487E+02  0.42227782487E+02  0.00000000000E+00 0.  1.
          2    1    1    2  502    0  0.51770600423E+01  0.23153730168E+02  0.50241523941E+02  0.55561748526E+02  0.00000000000E+00 0.  1.
         -2    1    1    2    0  502 -0.51770600423E+01 -0.23153730168E+02 -0.36011122838E+02  0.43124217551E+02  0.00000000000E+00 0.  1.
</event>
<event>
 4    1  0.6145708E+003  0.2347756E+02  0.7546771E-02  0.1486587E+00
          2   -1    0    0  501    0  0.00000000000E+00  0.00000000000E+00  0.13864915933E+02  0.13864915933E+02  0.00000000000E+00 0.  1.
         -2   -1    0    0    0  501 -0.00000000000E+00 -0.00000000000E+00 -0.64263423738E+02  0.64263423738E+02  0.00000000000E+00 0. -1.
          2    1    1    2  502    0  0.21881987146E+02 -0.85073175400E+01 -0.10748347987E+01  0.23502150604E+02  0.00000000000E+00 0.  1.
         -2    1    1    2    0  502 -0.21881987146E+02  0.85073175400E+01 -0.49323673006E+02  0.54626189067E+02  0.00000000000E+00 0. -1.
</event>
<event>
 4    1  0.6145708E+003  0.2397799E+02  0.7546771E-02  0.1480570E+00
          2   -1    0    0  501    0  0.00000000000E+00  0.00000000000E+00  0.10475464999E+04  0.10475464999E+04  0.00000000000E+00 0.  1.
         -2   -1    0    0    0  501 -0.00000000000E+00 -0.00000000000E+00 -0.69036403096E+00  0.69036403096E+00  0.00000000000E+00 0.  1.
          2    1    1    2  502    0 -0.11505683351E+02  0.21037186224E+02  0.76072545273E+03  0.76110325080E+03  0.00000000000E+00 0.  1.
         -2    1    1    2    0  502  0.11505683351E+02 -0.21037186224E+02  0.28613068317E+03  0.28713361316E+03  0.00000000000E+00 0.  1.
</event>
<event>
 4    1  0.6145708E+003  0.2165812E+02  0.7546771E-02  0.1510072E+00
          2   -1    0    0  501    0  0.00000000000E+00  0.00000000000E+00  0.25103232867E+03  0.25103232867E+03  0.00000000000E+00 0.  1.
         -2   -1    0    0    0  501 -0.00000000000E+00 -0.00000000000E+00 -0.96331789843E+02  0.96331789843E+02  0.00000000000E+00 0. -1.
          2    1    1    2  502    0  0.21289964372E+02  0.39763706486E+01  0.24933959487E+03  0.25027846028E+03  0.00000000000E+00 0.  1.
         -2    1    1    2    0  502 -0.21289964372E+02 -0.39763706486E+01 -0.94639056045E+02  0.97085658239E+02  0.00000000000E+00 0. -1.
</event>
<event>
 4    1  0.6145708E+003  0.2199024E+02  0.7546771E-02  0.1505582E+00
          2   -1    0    0  501    0  0.00000000000E+00  0.00000000000E+00  0.56136904007E+03  0.56136904007E+03  0.00000000000E+00 0. -1.
         -2   -1    0    0    0  501 -0.00000000000E+00 -0.00000000000E+00 -0.17392001254E+03  0.17392001254E+03  0.00000000000E+00 0. -1.
          2    1    1    2  502    0  0.18680413787E+02  0.11602275734E+02  0.56045745165E+03  0.56088869286E+03  0.00000000000E+00 0. -1.
         -2    1    1    2    0  502 -0.18680413787E+02 -0.11602275734E+02 -0.17300842412E+03  0.17440035974E+03  0.00000000000E+00 0. -1.
</event>
<event>
 4    1  0.6145708E+003  0.3302934E+02  0.7546771E-02  0.1394973E+00
          2   -1    0    0  501    0  0.00000000000E+00  0.00000000000E+00  0.29846564489E+03  0.29846564489E+03  0.00000000000E+00 0. -1.
         -2   -1    0    0    0  501 -0.00000000000E+00 -0.00000000000E+00 -0.43714691576E+02  0.43714691576E+02  0.00000000000E+00 0.  1.
          2    1    1    2  502    0 -0.17010649589E+00  0.33028905605E+02  0.29115677755E+03  0.29302424243E+03  0.00000000000E+00 0. -1.
         -2    1    1    2    0  502  0.17010649589E+00 -0.33028905605E+02 -0.36405824237E+02  0.49156094028E+02  0.00000000000E+00 0.  1.
</event>
<event>
 4    1  0.6145708E+003  0.2683650E+02  0.7546771E-02  0.1449257E+00
          2   -1    0    0  501    0  0.00000000000E+00  0.00000000000E+00  0.11987860240E+04  0.11987860240E+04  0.00000000000E+00 0. -1.
         -2   -1    0    0    0  501 -0.00000000000E+00 -0.00000000000E+00 -0.19069592944E+02  0.19069592944E+02  0.00000000000E+00 0.  1.
          2    1    1    2  502    0 -0.64422695698E+01  0.26051771986E+02  0.11891173686E+04  0.11894201587E+04  0.00000000000E+00 0. -1.
         -2    1    1    2    0  502  0.64422695698E+01 -0.26051771986E+02 -0.94009375039E+01  0.28435458266E+02  0.00000000000E+00 0.  1.
</event>
<event>
 4    1  0.6145708E+003  0.2434817E+02  0.7546771E-02  0.1476229E+00
          2   -1    0    0  501    0  0.00000000000E+00  0.00000000000E+00  0.13727956073E+04  0.13727956073E+04  0.00000000000E+00 0.  1.
         -2   -1    0    0    0  501 -0.00000000000E+00 -0.00000000000E+00 -0.68498909169E+00  0.68498909169E+00  0.00000000000E+00 0.  1.
          2    1    1    2  502    0 -0.19727081373E+02  0.14271492605E+02  0.11035352867E+04  0.11038038604E+04  0.00000000000E+00 0.  1.
         -2    1    1    2    0  502  0.19727081373E+02 -0.14271492605E+02  0.26857533153E+03  0.26967673601E+03  0.00000000000E+00 0.  1.
</event>
<event>
 4    1  0.6145708E+003  0.2991432E+02  0.7546771E-02  0.1420343E+00
          2   -1    0    0  501    0  0.00000000000E+00  0.00000000000E+00  0.51512884016E+03  0.51512884016E+03  0.00000000000E+00 0.  1.
         -2   -1    0    0    0  501 -0.00000000000E+00 -0.00000000000E+00 -0.33901129797E+01  0.33901129797E+01  0.00000000000E+00 0.  1.
          2    1    1    2  502    0  0.28985065048E+02 -0.73981491137E+01  0.43690181368E+03  0.43792472116E+03  0.00000000000E+00 0.  1.
         -2    1    1    2    0  502 -0.28985065048E+02  0.73981491137E+01  0.74836913502E+02  0.80594231982E+02  0.00000000000E+00 0.  1.
</event>
<event>
 4    1  0.6145708E+003  0.2557086E+02  0.7546771E-02  0.1462517E+00
          2   -1    0    0  501    0  0.00000000000E+00  0.00000000000E+00  0.19433649587E+03  0.19433649587E+03  0.00000000000E+00 0. -1.
         -2   -1    0    0    0  501 -0.00000000000E+00 -0.00000000000E+00 -0.33606451805E+02  0.33606451805E+02  0.00000000000E+00 0.  1.
          2    1    1    2  502    0 -0.25275815972E+02 -0.38732345526E+01  0.18848074758E+03  0.19020741581E+03  0.00000000000E+00 0. -1.
         -2    1    1    2    0  502  0.25275815972E+02  0.38732345526E+01 -0.27750703523E+02  0.37735531863E+02  0.00000000000E+00 0.  1.
</event>
<event>
 4    1  0.6145708E+003  0.3109270E+02  0.7546771E-02  0.1410333E+00
          2   -1    0    0  501    0  0.00000000000E+00  0.00000000000E+00  0.15719920776E+03  0.15719920776E+03  0.00000000000E+00 0. -1.
         -2   -1    0    0    0  501 -0.00000000000E+00 -0.00000000000E+00 -0.12363993187E+02  0.12363993187E+02  0.00000000000E+00 0.  1.
          2    1    1    2  502    0 -0.29388879541E+02  0.10151303111E+02  0.12312406898E+02  0.33441748745E+02  0.00000000000E+00 0.  1.
         -2    1    1    2    0  502  0.29388879541E+02 -0.10151303111E+02  0.13252280768E+03  0.13612145221E+03  0.00000000000E+00 0. -1.
</event>
<event>
 4    1  0.6145708E+003  0.5066180E+02  0.7546771E-02  0.1295328E+00
          2   -1    0    0  501    0  0.00000000000E+00  0.00000000000E+00  0.10829610708E+02  0.10829610708E+02  0.00000000000E+00 0. -1.
         -2   -1    0    0    0  501 -0.00000000000E+00 -0.00000000000E+00 -0.33797729775E+03  0.33797729775E+03  0.00000000000E+00 0. -1.
          2    1    1    2  502    0 -0.50646548194E+02 -0.12430746452E+01 -0.68245263896E+02  0.84994318180E+02  0.00000000000E+00 0. -1.
         -2    1    1    2    0  502  0.50646548194E+02  0.12430746452E+01 -0.25890242315E+03  0.26381259028E+03  0.00000000000E+00 0. -1.
</event>
<event>
 4    1  0.6145708E+003  0.2847849E+02  0.7546771E-02  0.1433296E+00
          2   -1    0    0  501    0  0.00000000000E+00  0.00000000000E+00  0.21249636086E+02  0.21249636086E+02  0.00000000000E+00 0.  1.
         -2   -1    0    0    0  501 -0.00000000000E+00 -0.00000000000E+00 -0.11324917907E+03  0.11324917907E+03  0.00000000000E+00 0.  1.
          2    1    1    2  502    0  0.15582985252E+02  0.23836842222E+02  0.87573713441E+01  0.29794563755E+02  0.00000000000E+00 0.  1.
         -2    1    1    2    0  502 -0.15582985252E+02 -0.23836842222E+02 -0.10075691433E+03  0.10470425140E+03  0.00000000000E+00 0.  1.
</event>
<event>
 4    1  0.6145708E+003  0.2104888E+02  0.7546771E-02  0.1518568E+00
          2   -1    0    0  501    0  0.00000000000E+00  0.00000000000E+00  0.55549941180E+03  0.55549941180E+03  0.00000000000E+00 0.  1.
         -2   -1    0    0    0  501 -0.00000000000E+00 -0.00000000000E+00 -0.99821952762E+01  0.99821952762E+01  0.00000000000E+00 0.  1.
          2    1    1    2  502    0  0.19527456449E+02  0.78570777786E+01  0.54396875995E+03  0.54437585088E+03  0.00000000000E+00 0.  1.
         -2    1    1    2    0  502 -0.19527456449E+02 -0.78570777786E+01  0.15484565735E+01  0.21105756190E+02  0.00000000000E+00 0.  1.
</event>
<event>
 4    1  0.6145708E+003  0.4666397E+02  0.7546771E-02  0.1313323E+00
          2   -1    0    0  501    0  0.00000000000E+00  0.00000000000E+00  0.72900952290E+03  0.72900952290E+03  0.00000000000E+00 0. -1.
         -2   -1    0    0    0  501 -0.00000000000E+00 -0.00000000000E+00 -0.13277968605E+02  0.13277968605E+02  0.00000000000E+00 0.  1.
          2    1    1    2  502    0 -0.31568472065E+02 -0.34365059637E+02  0.68460795399E+03  0.68619645614E+03  0.00000000000E+00 0. -1.
         -2    1    1    2    0  502  0.31568472065E+02  0.34365059637E+02  0.31123600306E+02  0.56091035366E+02  0.00000000000E+00 0.  1.
</event>
<event>
 4    1  0.6145708E+003  0.3649838E+02  0.7546771E-02  0.1370324E+00
          2   -1    0    0  501    0  0.00000000000E+00  0.00000000000E+00  0.11941198560E+03  0.11941198560E+03  0.00000000000E+00 0. -1.
         -2   -1    0    0    0  501 -0.00000000000E+00 -0.00000000000E+00 -0.14345520099E+02  0.14345520099E+02  0.00000000000E+00 0.  1.
          2    1    1    2  502    0  0.12019697304E+02 -0.34462420258E+02  0.84069405156E+02  0.91650403254E+02  0.00000000000E+00 0. -1.
         -2    1    1    2    0  502 -0.12019697304E+02  0.34462420258E+02  0.20997060347E+02  0.42107102448E+02  0.00000000000E+00 0.  1.
</event>
<event>
 4    1  0.6145708E+003  0.2568107E+02  0.7546771E-02  0.1461327E+00
          2   -1    0    0  501    0  0.00000000000E+00  0.00000000000E+00  0.10299499210E+03  0.10299499210E+03  0.00000000000E+00 0.  1.
         -2   -1    0    0    0  501 -0.00000000000E+00 -0.00000000000E+00 -0.72090959865E+01  0.72090959865E+01  0.00000000000E+00 0. -1.
          2    1    1    2  502    0 -0.24551325780E+02 -0.75331891241E+01  0.29471783450E+02  0.39090952350E+02  0.00000000000E+00 0. -1.
         -2    1    1    2    0  502  0.24551325780E+02  0.75331891241E+01  0.66314112664E+02  0.71113135737E+02  0.00000000000E+00 0.  1.
</event>
<event>
 4    1  0.6145708E+003  0.2807943E+02  0.7546771E-02  0.1437056E+00
          2   -1    0    0  501    0  0.00000000000E+00  0.00000000000E+00  0.11842166142E+03  0.11842166142E+03  0.00000000000E+00 0. -1.
         -2   -1    0    0    0  501 -0.00000000000E+00 -0.00000000000E+00 -0.30471122962E+03  0.30471122962E+03  0.00000000000E+00 0. -1.
          2    1    1    2  502    0 -0.25870482056E+02  0.10916616783E+02  0.11609750268E+03  0.11944490149E+03  0.00000000000E+00 0. -1.
         -2    1    1    2    0  502  0.25870482056E+02 -0.10916616783E+02 -0.30238707088E+03  0.30368798956E+03  0.00000000000E+00 0. -1.
</event>
<event>
 4    1  0.6145708E+003  0.2672279E+02  0.7546771E-02  0.1450413E+00
          2   -1    0    0  501    0  0.00000000000E+00  0.00000000000E+00  0.14774985122E+04  0.14774985122E+04  0.00000000000E+00 0. -1.
         -2   -1    0    0    0  501 -0.00000000000E+00 -0.00000000000E+00 -0.60669996345E+02  0.60669996345E+02  0.00000000000E+00 0. -1.
          2    1    1    2  502    0  0.23933245321E+02 -0.11887277334E+02  0.14744289666E+04  0.14746711108E+04  0.00000000000E+00 0. -1.
         -2    1    1    2    0  502 -0.23933245321E+02  0.11887277334E+02 -0.57600450727E+02  0.63497397725E+02  0.00000000000E+00 0. -1.
</event>
<event>
 4    1  0.6145708E+003  0.2408636E+02  0.7546771E-02  0.1479289E+00
          2   -1    0    0  501    0  0.00000000000E+00  0.00000000000E+00  0.47109793819E+03  0.47109793819E+03  0.00000000000E+00 0. -1.
         -2   -1    0    0    0  501 -0.00000000000E+00 -0.00000000000E+00 -0.24006712658E+02  0.24006712658E+02  0.00000000000E+00 0.  1.
          2    1    1    2  502    0  0.23003987144E+02  0.71392672888E+01  0.46466491356E+03  0.46528876459E+03  0.00000000000E+00 0. -1.
         -2    1    1    2    0  502 -0.23003987144E+02 -0.71392672888E+01 -0.17573688032E+02  0.29815886252E+02  0.00000000000E+00 0.  1.
</event>
<event>
 4    1  0.6145708E+003  0.4678758E+02  0.7546771E-02  0.1312735E+00
          2   -1    0    0  501    0  0.00000000000E+00  0.00000000000E+00  0.69505138423E+03  0.69505138423E+03  0.00000000000E+00 0.  1.
         -2   -1    0    0    0  501 -0.00000000000E+00 -0.00000000000E+00 -0.12332999156E+02  0.12332999156E+02  0.00000000000E+00 0.  1.
          2    1    1    2  502    0 -0.28697056605E+02  0.36953433144E+02  0.64656639360E+03  0.64825703128E+03  0.00000000000E+00 0.  1.
         -2    1    1    2    0  502  0.28697056605E+02 -0.36953433144E+02  0.36151991475E+02  0.59127352102E+02  0.00000000000E+00 0.  1.
</event>
<event>
 4    1  0.6145708E+003  0.2572829E+02  0.7546771E-02  0.1460819E+00
          2   -1    0    0  501    0  0.00000000000E+00  0.00000000000E+00  0.16757842283E+04  0.16757842283E+04  0.00000000000E+00 0.  1.
         -2   -1    0    0    0  501 -0.00000000000E+00 -0.00000000000E+00 -0.11509742305E+02  0.11509742305E+02  0.00000000000E+00 0. -1.
          2    1    1    2  502    0  0.19343909960E+02  0.16963425991E+02  0.16611811702E+04  0.16613803974E+04  0.00000000000E+00 0.  1.
         -2    1    1    2    0  502 -0.19343909960E+02 -0.16963425991E+02  0.30933158134E+01  0.25913573212E+02  0.00000000000E+00 0. -1.
</event>
<event>
 4    1  0.6145708E+003  0.2801997E+02  0.7546771E-02  0.1437623E+00
          2   -1    0    0  501    0  0.00000000000E+00  0.00000000000E+00  0.51987224957E+03  0.51987224957E+03  0.00000000000E+00 0.  1.
         -2   -1    0    0    0  501 -0.00000000000E+00 -0.00000000000E+00 -0.59180821790E+02  0.59180821790E+02  0.00000000000E+00 0. -1.
          2    1    1    2  502    0 -0.24055089215E+02  0.14369103286E+02  0.51615421453E+03  0.51691420141E+03  0.00000000000E+00 0.  1.
         -2    1    1    2    0  502  0.24055089215E+02 -0.14369103286E+02 -0.55462786741E+02  0.62138869956E+02  0.00000000000E+00 0. -1.
</event>
<event>
 4    1  0.6145708E+003  0.3120848E+02  0.7546771E-02  0.1409378E+00
          2   -1    0    0  501    0  0.00000000000E+00  0.00000000000E+00  0.11206036643E+03  0.11206036643E+03  0.00000000000E+00 0.  1.
         -2   -1    0    0    0  501 -0.00000000000E+00 -0.00000000000E+00 -0.28959841443E+02  0.28959841443E+02  0.00000000000E+00 0.  1.
          2    1    1    2  502    0  0.14834701411E+01  0.31173201449E+02  0.10053813132E+03  0.10527053254E+03  0.00000000000E+00 0.  1.
         -2    1    1    2    0  502 -0.14834701411E+01 -0.31173201449E+02 -0.17437606327E+02  0.35749675337E+02  0.00000000000E+00 0.  1.
</event>
<event>
 4    1  0.6145708E+003  0.8492168E+02  0.7546771E-02  0.1192860E+00
          2   -1    0    0  501    0  0.00000000000E+00  0.00000000000E+00  0.81127184043E+03  0.81127184043E+03  0.00000000000E+00 0. -1.
         -2   -1    0    0    0  501 -0.00000000000E+00 -0.00000000000E+00 -0.15422241935E+02  0.15422241935E+02  0.00000000000E+00 0.  1.
          2    1    1    2  502    0 -0.17050783522E+02  0.83192327255E+02  0.66695019177E+03  0.67233492459E+03  0.00000000000E+00 0. -1.
         -2    1    1    2    0  502  0.17050783522E+02 -0.83192327255E+02  0.12889940673E+03  0.15435915777E+03  0.00000000000E+00 0.  1.
</event>
<event>
 4    1  0.6145708E+003  0.2211372E+02  0.7546771E-02  0.1503937E+00
          2   -1    0    0  501    0  0.00000000000E+00  0.00000000000E+00  0.63101616028E+03  0.63101616028E+03  0.00000000000E+00 0. -1.
         -2   -1    0    0    0  501 -0.00000000000E+00 -0.00000000000E+00 -0.78904137551E+00  0.78904137551E+00  0.00000000000E+00 0. -1.
          2    1    1    2  502    0  0.16323653340E+02 -0.14918277700E+02  0.35730444888E+03  0.35798810854E+03  0.00000000000E+00 0. -1.
         -2    1    1    2    0  502 -0.16323653340E+02  0.14918277700E+02  0.27292267003E+03  0.27381709312E+03  0.00000000000E+00 0. -1.
</event>
<event>
 4    1  0.6145708E+003  0.7995292E+02  0.7546771E-02  0.1203957E+00
          2   -1    0    0  501    0  0.00000000000E+00  0.00000000000E+00  0.22329866363E+04  0.22329866363E+04  0.00000000000E+00 0. -1.
         -2   -1    0    0    0  501 -0.00000000000E+00 -0.00000000000E+00 -0.25977520809E+02  0.25977520809E+02  0.00000000000E+00 0. -1.
          2    1    1    2  502    0  0.43046639773E+02 -0.67375488925E+02  0.21689355929E+04  0.21704087348E+04  0.00000000000E+00 0. -1.
         -2    1    1    2    0  502 -0.43046639773E+02  0.67375488925E+02  0.38073522549E+02  0.88555422324E+02  0.00000000000E+00 0. -1.
</event>
<event>
 4    1  0.6145708E+003  0.2298819E+02  0.7546771E-02  0.1492646E+00
          2   -1    0    0  501    0  0.00000000000E+00  0.00000000000E+00  0.11821845903E+04  0.11821845903E+04  0.00000000000E+00 0. -1.
         -2   -1    0    0    0  501 -0.00000000000E+00 -0.00000000000E+00 -0.63114854473E+00  0.63114854473E+00  0.00000000000E+00 0. -1.
          2    1    1    2  502    0 -0.16172318436E+02 -0.16337478712E+02  0.91021350181E+03  0.91050374847E+03  0.00000000000E+00 0. -1.
         -2    1    1    2    0  502  0.16172318436E+02  0.16337478712E+02  0.27133993992E+03  0.27231199036E+03  0.00000000000E+00 0. -1.
</event>
<event>
 4    1  0.6145708E+003  0.2564005E+02  0.7546771E-02  0.1461769E+00
          2   -1    0    0  501    0  0.00000000000E+00  0.00000000000E+00  0.27934196314E+03  0.27934196314E+03  0.00000000000E+00 0.  1.
         -2   -1    0    0    0  501 -0.00000000000E+00 -0.00000000000E+00 -0.12061778419E+02  0.12061778419E+02  0.00000000000E+00 0.  1.
          2    1    1    2  502    0  0.93936100382E+01  0.23857335635E+02  0.26435709556E+03  0.26559760230E+03  0.00000000000E+00 0.  1.
         -2    1    1    2    0  502 -0.93936100382E+01 -0.23857335635E+02  0.29230891568E+01  0.25806139258E+02  0.00000000000E+00 0.  1.
</event>
<event>
 4    1  0.6145708E+003  0.2573416E+02  0.7546771E-02  0.1460755E+00
          2   -1    0    0  501    0  0.00000000000E+00  0.00000000000E+00  0.36974878662E+03  0.36974878662E+03  0.00000000000E+00 0.  1.
         -2   -1    0    0    0  501 -0.00000000000E+00 -0.00000000000E+00 -0.60716600476E+02  0.60716600476E+02  0.00000000000E+00 0.  1.
          2    1    1    2  502    0  0.21158320577E+02  0.14648291944E+02  0.36655045969E+03  0.36745269966E+03  0.00000000000E+00 0.  1.
         -2    1    1    2    0  502 -0.21158320577E+02 -0.14648291944E+02 -0.57518273546E+02  0.63012687438E+02  0.00000000000E+00 0.  1.
</event>
<event>
 4    1  0.6145708E+003  0.3592673E+02  0.7546771E-02  0.1374163E+00
          2   -1    0    0  501    0  0.00000000000E+00  0.00000000000E+00  0.15920820349E+04  0.15920820349E+04  0.00000000000E+00 0. -1.
         -2   -1    0    0    0  501 -0.00000000000E+00 -0.00000000000E+00 -0.28571344053E+02  0.28571344053E+02  0.00000000000E+00 0. -1.
          2    1    1    2  502    0 -0.66353917351E+01 -0.35308657963E+02  0.15805027041E+04  0.15809109802E+04  0.00000000000E+00 0. -1.
         -2    1    1    2    0  502  0.66353917351E+01  0.35308657963E+02 -0.16992013174E+02  0.39742398800E+02  0.00000000000E+00 0. -1.
</event>
<event>
 4    1  0.6145708E+003  0.2413926E+02  0.7546771E-02  0.1478667E+00
          2   -1    0    0  501    0  0.00000000000E+00  0.00000000000E+00  0.13842746373E+04  0.13842746373E+04  0.00000000000E+00 0.  1.
         -2   -1    0    0    0  501 -0.00000000000E+00 -0.00000000000E+00 -0.19346594579E+02  0.19346594579E+02  0.00000000000E+00 0.  1.
          2    1    1    2  502    0  0.15407108004E+02 -0.18582919009E+02  0.13765976132E+04  0.13768092433E+04  0.00000000000E+00 0.  1.
         -2    1    1    2    0  502 -0.15407108004E+02  0.18582919009E+02 -0.11669570462E+02  0.26811988563E+02  0.00000000000E+00 0.  1.
</event>
<event>
 4    1  0.6145708E+003  0.2003174E+02  0.7546771E-02  0.1533551E+00
          2   -1    0    0  501    0  0.00000000000E+00  0.00000000000E+00  0.12566173572E+03  0.12566173572E+03  0.00000000000E+00 0.  1.
         -2   -1    0    0    0  501 -0.00000000000E+00 -0.00000000000E+00 -0.45010756599E+01  0.45010756599E+01  0.00000000000E+00 0. -1.
          2    1    1    2  502    0  0.17752955446E+02 -0.92791893085E+01  0.95661315729E+02  0.97736165816E+02  0.00000000000E+00 0.  1.
         -2    1    1    2    0  502 -0.17752955446E+02  0.92791893085E+01  0.25499344334E+02  0.32426645568E+02  0.00000000000E+00 0. -1.
</event>
<event>
 4    1  0.6145708E+003  0.2069578E+02  0.7546771E-02  0.1523653E+00
          2   -1    0    0  501    0  0.00000000000E+00  0.00000000000E+00  0.28569088452E+02  0.28569088452E+02  0.00000000000E+00 0.  1.
         -2   -1    0    0    0  501 -0.00000000000E+00 -0.00000000000E+00 -0.41606241455E+03  0.41606241455E+03  0.00000000000E+00 0. -1.
          2    1    1    2  502    0  0.18235447465E+02  0.97869138921E+01  0.24526913172E+02  0.32091816675E+02  0.00000000000E+00 0.  1.
         -2    1    1    2    0  502 -0.18235447465E+02 -0.97869138921E+01 -0.41202023927E+03  0.41253968633E+03  0.00000000000E+00 0. -1.
</event>
<event>
 4    1  0.6145708E+003  0.2428605E+02  0.7546771E-02  0.1476951E+00
          2   -1    0    0  501    0  0.00000000000E+00  0.00000000000E+00  0.48564741783E+02  0.48564741783E+02  0.00000000000E+00 0.  1.
         -2   -1    0    0    0  501 -0.00000000000E+00 -0.00000000000E+00 -0.92815403817E+02  0.92815403817E+02  0.00000000000E+00 0.  1.
          2    1    1    2  502    0  0.13735241031E+02 -0.20028867359E+02  0.43777773072E+02  0.50063018177E+02  0.00000000000E+00 0.  1.
         -2    1    1    2    0  502 -0.13735241031E+02  0.20028867359E+02 -0.88028435105E+02  0.91317127424E+02  0.00000000000E+00 0.  1.
</event>
<event>
 4    1  0.6145708E+003  0.2003893E+02  0.7546771E-02  0.1533441E+00
          2   -1    0    0  501    0  0.00000000000E+00  0.00000000000E+00  0.16638782044E+01  0.16638782044E+01  0.00000000000E+00 0. -1.
         -2   -1    0    0    0  501 -0.00000000000E+00 -0.00000000000E+00 -0.25160256685E+03  0.25160256685E+03  0.00000000000E+00 0. -1.
          2    1    1    2  502    0  0.10691898264E+02  0.16948215724E+02 -0.99392954190E+02  0.10139288953E+03  0.00000000000E+00 0. -1.
         -2    1    1    2    0  502 -0.10691898264E+02 -0.16948215724E+02 -0.15054573445E+03  0.15187355552E+03  0.00000000000E+00 0. -1.
</event>
<event>
 4    1  0.6145708E+003  0.2321969E+02  0.7546771E-02  0.1489758E+00
          2   -1    0    0  501    0  0.00000000000E+00  0.00000000000E+00  0.18644415846E+03  0.18644415846E+03  0.00000000000E+00 0. -1.
         -2   -1    0    0    0  501 -0.00000000000E+00 -0.00000000000E+00 -0.52162142641E+01  0.52162142641E+01  0.00000000000E+00 0.  1.
          2    1    1    2  502    0 -0.23040449882E+02 -0.28795278924E+01  0.15458509821E+03  0.15631924578E+03  0.00000000000E+00 0. -1.
         -2    1    1    2    0  502  0.23040449882E+02  0.28795278924E+01  0.26642845985E+02  0.35341126947E+02  0.00000000000E+00 0.  1.
</event>
<event>
 4    1  0.6145708E+003  0.2344476E+02  0.7546771E-02  0.1486988E+00
          2   -1    0    0  501    0  0.00000000000E+00  0.00000000000E+00  0.72303527844E+03  0.72303527844E+03  0.00000000000E+00 0.  1.
         -2   -1    0    0    0  501 -0.00000000000E+00 -0.00000000000E+00 -0.76174259882E+00  0.76174259882E+00  0.00000000000E+00 0. -1.
          2    1    1    2  502    0 -0.22016256790E+02 -0.80585985949E+01  0.37738488672E+03  0.37811242945E+03  0.00000000000E+00 0.  1.
         -2    1    1    2    0  502  0.22016256790E+02  0.80585985949E+01  0.34488864912E+03  0.34568459160E+03  0.00000000000E+00 0. -1.
</event>
<event>
 4    1  0.6145708E+003  0.3251515E+02  0.7546771E-02  0.1398928E+00
          2   -1    0    0  501    0  0.00000000000E+00  0.00000000000E+00  0.27190649723E+02  0.27190649723E+02  0.00000000000E+00 0.  1.
         -2   -1    0    0    0  501 -0.00000000000E+00 -0.00000000000E+00 -0.66492240505E+03  0.66492240505E+03  0.00000000000E+00 0.  1.
          2    1    1    2  502    0 -0.20669907775E+02  0.25099594843E+02  0.16920167063E+02  0.36654151227E+02  0.00000000000E+00 0.  1.
         -2    1    1    2    0  502  0.20669907775E+02 -0.25099594843E+02 -0.65465192239E+03  0.65545890355E+03  0.00000000000E+00 0.  1.
</event>
<event>
 4    1  0.6145708E+003  0.2374640E+02  0.7546771E-02  0.1483332E+00
          2   -1    0    0  501    0  0.00000000000E+00  0.00000000000E+00  0.55031202225E+02  0.55031202225E+02  0.00000000000E+00 0. -1.
         -2   -1    0    0    0  501 -0.00000000000E+00 -0.00000000000E+00 -0.23992007697E+02  0.23992007697E+02  0.00000000000E+00 0. -1.
          2    1    1    2  502    0 -0.19234922746E+02  0.13925137523E+02  0.45426236150E+02  0.51258507966E+02  0.00000000000E+00 0. -1.
         -2    1    1    2    0  502  0.19234922746E+02 -0.13925137523E+02 -0.14387041622E+02  0.27764701956E+02  0.00000000000E+00 0. -1.
</event>
<event>
 4    1  0.6145708E+003  0.2005913E+02  0.7546771E-02  0.1533134E+00
          2   -1    0    0  501    0  0.00000000000E+00  0.00000000000E+00  0.15136963240E+02  0.15136963240E+02  0.00000000000E+00 0. -1.
         -2   -1    0    0    0  501 -0.00000000000E+00 -0.00000000000E+00 -0.32148730476E+03  0.32148730476E+03  0.00000000000E+00 0.  1.
          2    1    1    2  502    0  0.12966780443E+02  0.15304612128E+02  0.80284946076E+01  0.21606139708E+02  0.00000000000E+00 0. -1.
         -2    1    1    2    0  502 -0.12966780443E+02 -0.15304612128E+02 -0.31437883612E+03  0.31501812829E+03  0.00000000000E+00 0.  1.
</event>
<event>
 4    1  0.6145708E+003  0.2826045E+02  0.7546771E-02  0.1435342E+00
          2   -1    0    0  501    0  0.00000000000E+00  0.00000000000E+00  0.18193474879E+03  0.18193474879E+03  0.00000000000E+00 0.  1.
         -2   -1    0    0    0  501 -0.00000000000E+00 -0.00000000000E+00 -0.78457631260E+01  0.78457631260E+01  0.00000000000E+00 0.  1.
          2    1    1    2  502    0 -0.23021700423E+02 -0.16390686329E+02  0.15002264431E+03  0.15266121674E+03  0.00000000000E+00 0.  1.
         -2    1    1    2    0  502  0.23021700423E+02  0.16390686329E+02  0.24066341353E+02  0.37119295182E+02  0.00000000000E+00 0.  1.
</event>
<event>
 4    1  0.6145708E+003  0.2065027E+02  0.7546771E-02  0.1524317E+00
          2   -1    0    0  501    0  0.00000000000E+00  0.00000000000E+00  0.82802447121E+02  0.82802447121E+02  0.00000000000E+00 0.  1.
         -2   -1    0    0    0  501 -0.00000000000E+00 -0.00000000000E+00 -0.15031409887E+02  0.15031409887E+02  0.00000000000E+00 0.  1.
          2    1    1    2  502    0 -0.70293704262E+01 -0.19417046845E+02  0.73546958048E+02  0.76391025617E+02  0.00000000000E+00 0.  1.
         -2    1    1    2    0  502  0.70293704262E+01  0.19417046845E+02 -0.57759208140E+01  0.21442831390E+02  0.00000000000E+00 0.  1.
</event>
<event>
 4    1  0.6145708E+003  0.2443692E+02  0.7546771E-02  0.1475202E+00
          2   -1    0    0  501    0  0.00000000000E+00  0.00000000000E+00  0.53448607489E+03  0.53448607489E+03  0.00000000000E+00 0. -1.
         -2   -1    0    0    0  501 -0.00000000000E+00 -0.00000000000E+00 -0.24812938582E+02  0.24812938582E+02  0.00000000000E+00 0.  1.
          2    1    1    2  502    0  0.13090139082E+02 -0.20635199410E+02  0.52811759205E+03  0.52868265929E+03  0.00000000000E+00 0. -1.
         -2    1    1    2    0  502 -0.13090139082E+02  0.20635199410E+02 -0.18444455744E+02  0.30616354185E+02  0.00000000000E+00 0.  1.
</event>
<event>
 4    1  0.6145708E+003  0.2247634E+02  0.7546771E-02  0.1499181E+00
          2   -1    0    0  501    0  0.00000000000E+00  0.00000000000E+00  0.11105551797E+04  0.11105551797E+04  0.00000000000E+00 0.  1.
         -2   -1    0    0    0  501 -0.00000000000E+00 -0.00000000000E+00 -0.46273887229E+00  0.46273887229E+00  0.00000000000E+00 0.  1.
          2    1    1    2  502    0 -0.17765988601E+02 -0.13767910429E+02  0.62737240567E+03  0.62777489684E+03  0.00000000000E+00 0.  1.
         -2    1    1    2    0  502  0.17765988601E+02  0.13767910429E+02  0.48272003516E+03  0.48324302174E+03  0.00000000000E+00 0.  1.
</event>
<event>
 4    1  0.6145708E+003  0.2172539E+02  0.7546771E-02  0.1509155E+00
          2   -1    0    0  501    0  0.00000000000E+00  0.00000000000E+00  0.18203634620E+02  0.18203634620E+02  0.00000000000E+00 0.  1.
         -2   -1    0    0    0  501 -0.00000000000E+00 -0.00000000000E+00 -0.33658864433E+03  0.33658864433E+03  0.00000000000E+00 0. -1.
          2    1    1    2  502    0  0.15289867920E+02 -0.15434137419E+02  0.11234030468E+02  0.24458047744E+02  0.00000000000E+00 0.  1.
         -2    1    1    2    0  502 -0.15289867920E+02  0.15434137419E+02 -0.32961904018E+03  0.33033423121E+03  0.00000000000E+00 0. -1.
</event>
<event>
 4    1  0.6145708E+003  0.2865413E+02  0.7546771E-02  0.1431664E+00
          2   -1    0    0  501    0  0.00000000000E+00  0.00000000000E+00  0.10565950182E+04  0.10565950182E+04  0.00000000000E+00 0.  1.
         -2   -1    0    0    0  501 -0.00000000000E+00 -0.00000000000E+00 -0.17644170659E+02  0.17644170659E+02  0.00000000000E+00 0.  1.
          2    1    1    2  502    0  0.27857050589E+02 -0.67114730243E+01  0.10446339940E+04  0.10450269090E+04  0.00000000000E+00 0.  1.
         -2    1    1    2    0  502 -0.27857050589E+02  0.67114730243E+01 -0.56831464950E+01  0.29212279811E+02  0.00000000000E+00 0.  1.
</event>
<event>
 4    1  0.6145708E+003  0.2167147E+02  0.7546771E-02  0.1509890E+00
          2   -1    0    0  501    0  0.00000000000E+00  0.00000000000E+00  0.40318111526E+03  0.40318111526E+03  0.00000000000E+00 0.  1.
         -2   -1    0    0    0  501 -0.00000000000E+00 -0.00000000000E+00 -0.16606291106E+01  0.16606291106E+01  0.00000000000E+00 0.  1.
          2    1    1    2  502    0  0.71457160822E+01 -0.20459510175E+02  0.31136025093E+03  0.31211353491E+03  0.00000000000E+00 0.  1.
         -2    1    1    2    0  502 -0.71457160822E+01  0.20459510175E+02  0.90160235220E+02  0.92728209461E+02  0.00000000000E+00 0.  1.
</event>
<event>
 4    1  0.6145708E+003  0.2679570E+02  0.7546771E-02  0.1449671E+00
          2   -1    0    0  501    0  0.00000000000E+00  0.00000000000E+00  0.43186515016E+03  0.43186515016E+03  0.00000000000E+00 0.  1.
         -2   -1    0    0    0  501 -0.00000000000E+00 -0.00000000000E+00 -0.24813943815E+02  0.24813943815E+02  0.00000000000E+00 0.  1.
          2    1    1    2  502    0  0.20122158763E+02  0.17694871617E+02  0.42408295614E+03  0.42492865688E+03  0.00000000000E+00 0.  1.
         -2    1    1    2    0  502 -0.20122158763E+02 -0.17694871617E+02 -0.17031749789E+02  0.31750437095E+02  0.00000000000E+00 0.  1.
</event>
<event>
 4    1  0.6145708E+003  0.5269509E+02  0.7546771E-02  0.1286892E+00
          2   -1    0    0  501    0  0.00000000000E+00  0.00000000000E+00  0.14593990022E+03  0.14593990022E+03  0.00000000000E+00 0. -1.
         -2   -1    0    0    0  501 -0.00000000000E+00 -0.00000000000E+00 -0.31708038174E+02  0.31708038174E+02  0.00000000000E+00 0.  1.
          2    1    1    2  502    0  0.41594680530E+02 -0.32352047376E+02  0.11328871561E+03  0.12494440965E+03  0.00000000000E+00 0. -1.
         -2    1    1    2    0  502 -0.41594680530E+02  0.32352047376E+02  0.94314644286E+00  0.52703528753E+02  0.00000000000E+00 0.  1.
</event>
<event>
 4    1  0.6145708E+003  0.3181521E+02  0.7546771E-02  0.1404452E+00
          2   -1    0    0  501    0  0.00000000000E+00  0.00000000000E+00  0.90310894791E+03  0.90310894791E+03  0.00000000000E+00 0.  1.
         -2   -1    0    0    0  501 -0.00000000000E+00 -0.00000000000E+00 -0.51193883884E+01  0.51193883884E+01  0.00000000000E+00 0.  1.
          2    1    1    2  502    0 -0.29626657230E+02  0.11596070286E+02  0.85033175468E+03  0.85092673050E+03  0.00000000000E+00 0.  1.
         -2    1    1    2    0  502  0.29626657230E+02 -0.11596070286E+02  0.47657804848E+02  0.57301605804E+02  0.00000000000E+00 0.  1.
</event>
<event>
 4    1  0.6145708E+003  0.2321250E+02  0.7546771E-02  0.1489847E+00
          2   -1    0    0  501    0  0.00000000000E+00  0.00000000000E+00  0.23369461695E+03  0.23369461695E+03  0.00000000000E+00 0.  1.
         -2   -1    0    0    0  501 -0.00000000000E+00 -0.00000000000E+00 -0.36738984966E+01  0.36738984966E+01  0.00000000000E+00 0.  1.
          2    1    1    2  502    0  0.19913512519E+02  0.11927796847E+02  0.18743901954E+03  0.18887087219E+03  0.00000000000E+00 0.  1.
         -2    1    1    2    0  502 -0.19913512519E+02 -0.11927796847E+02  0.42581698920E+02  0.48497643256E+02  0.00000000000E+00 0.  1.
</event>
<event>
 4    1  0.6145708E+003  0.2867193E+02  0.7546771E-02  0.1431499E+00
          2   -1    0    0  501    0  0.00000000000E+00  0.00000000000E+00  0.10719075504E+03  0.10719075504E+03  0.00000000000E+00 0. -1.
         -2   -1    0    0    0  501 -0.00000000000E+00 -0.00000000000E+00 -0.22776992054E+03  0.22776992054E+03  0.00000000000E+00 0.  1.
          2    1    1    2  502    0  0.22000154885E+02 -0.18386757836E+02  0.10434696907E+03  0.10821446129E+03  0.00000000000E+00 0. -1.
         -2    1    1    2    0  502 -0.22000154885E+02  0.18386757836E+02 -0.22492613457E+03  0.22674621429E+03  0.00000000000E+00 0.  1.
</event>
<event>
 4    1  0.6145708E+003  0.2907725E+02  0.7546771E-02  0.1427788E+00
          2   -1    0    0  501    0  0.00000000000E+00  0.00000000000E+00  0.17961498475E+04  0.17961498475E+04  0.00000000000E+00 0.  1.
         -2   -1    0    0    0  501 -0.00000000000E+00 -0.00000000000E+00 -0.30611630313E+01  0.30611630313E+01  0.00000000000E+00 0. -1.
          2    1    1    2  502    0  0.19633053424E+02 -0.21448308743E+02  0.17240972211E+04  0.17243424006E+04  0.00000000000E+00 0.  1.
         -2    1    1    2    0  502 -0.19633053424E+02  0.21448308743E+02  0.68991463438E+02  0.74868609991E+02  0.00000000000E+00 0. -1.
</event>
<event>
 4    1  0.6145708E+003  0.2687296E+02  0.7546771E-02  0.1448888E+00
          2   -1    0    0  501    0  0.00000000000E+00  0.00000000000E+00  0.71389807274E+03  0.71389807274E+03  0.00000000000E+00 0. -1.
         -2   -1    0    0    0  501 -0.00000000000E+00 -0.00000000000E+00 -0.51549470530E+02  0.51549470530E+02  0.00000000000E+00 0.  1.
          2    1    1    2  502    0  0.17585482719E+02 -0.20320109776E+02  0.71012432815E+03  0.71063261781E+03  0.00000000000E+00 0. -1.
         -2    1    1    2    0  502 -0.17585482719E+02  0.20320109776E+02 -0.47775725942E+02  0.54814925459E+02  0.00000000000E+00 0.  1.
</event>
<event>
 4    1  0.6145708E+003  0.3934040E+02  0.7546771E-02  0.1352395E+00
          2   -1    0    0  501    0  0.00000000000E+00  0.00000000000E+00  0.11022339337E+04  0.11022339337E+04  0.00000000000E+00 0. -1.
         -2   -1    0    0    0  501 -0.00000000000E+00 -0.00000000000E+00 -0.39800877961E+01  0.39800877961E+01  0.00000000000E+00 0. -1.
          2    1    1    2  502    0  0.37287420511E+02  0.12542546718E+02  0.99409941800E+03  0.99487754024E+03  0.00000000000E+00 0. -1.
         -2    1    1    2    0  502 -0.37287420511E+02 -0.12542546718E+02  0.10415442791E+03  0.11133648126E+03  0.00000000000E+00 0. -1.
</event>
<event>
 4    1  0.6145708E+003  0.4103075E+02  0.7546771E-02  0.1342549E+00
          2   -1    0    0  501    0  0.00000000000E+00  0.00000000000E+00  0.82767403553E+03  0.82767403553E+03  0.00000000000E+00 0.  1.
         -2   -1    0    0    0  501 -0.00000000000E+00 -0.00000000000E+00 -0.20999958139E+03  0.20999958139E+03  0.00000000000E+00 0. -1.
          2    1    1    2  502    0  0.24555882384E+02 -0.32871433683E+02  0.82515521382E+03  0.82617470877E+03  0.00000000000E+00 0.  1.
         -2    1    1    2    0  502 -0.24555882384E+02  0.32871433683E+02 -0.20748075968E+03  0.21149890815E+03  0.00000000000E+00 0. -1.
</event>
<event>
 4    1  0.6145708E+003  0.2233092E+02  0.7546771E-02  0.1501075E+00
          2   -1    0    0  501    0  0.00000000000E+00  0.00000000000E+00  0.39901215015E+03  0.39901215015E+03  0.00000000000E+00 0. -1.
         -2   -1    0    0    0  501 -0.00000000000E+00 -0.00000000000E+00 -0.39320769028E+01  0.39320769028E+01  0.00000000000E+00 0. -1.
          2    1    1    2  502    0  0.15748440533E+02 -0.15832138990E+02  0.36394216101E+03  0.36462661253E+03  0.00000000000E+00 0. -1.
         -2    1    1    2    0  502 -0.15748440533E+02  0.15832138990E+02  0.31137912234E+02  0.38317614520E+02  0.00000000000E+00 0. -1.
</event>
<event>
 4    1  0.6145708E+003  0.2054102E+02  0.7546771E-02  0.1525920E+00
          2   -1    0    0  501    0  0.00000000000E+00  0.00000000000E+00  0.95288989079E+01  0.95288989079E+01  0.00000000000E+00 0. -1.
         -2   -1    0    0    0  501 -0.00000000000E+00 -0.00000000000E+00 -0.94822518257E+02  0.94822518257E+02  0.00000000000E+00 0. -1.
          2    1    1    2  502    0  0.17666721057E+02  0.10479524105E+02 -0.45539268851E+01  0.21039764933E+02  0.00000000000E+00 0. -1.
         -2    1    1    2    0  502 -0.17666721057E+02 -0.10479524105E+02 -0.80739692464E+02  0.83311652231E+02  0.00000000000E+00 0. -1.
</event>
<event>
 4    1  0.6145708E+003  0.2373717E+02  0.7546771E-02  0.1483443E+00
          2   -1    0    0  501    0  0.00000000000E+00  0.00000000000E+00  0.43701840844E+03  0.43701840844E+03  0.00000000000E+00 0. -1.
         -2   -1    0    0    0  501 -0.00000000000E+00 -0.00000000000E+00 -0.60154967503E+01  0.60154967503E+01  0.00000000000E+00 0.  1.
          2    1    1    2  502    0  0.95352660865E+01 -0.21737794869E+02  0.41184949694E+03  0.41253298190E+03  0.00000000000E+00 0. -1.
         -2    1    1    2    0  502 -0.95352660865E+01  0.21737794869E+02  0.19153414754E+02  0.30500923295E+02  0.00000000000E+00 0.  1.
</event>
<event>
 4    1  0.6145708E+003  0.6169100E+02  0.7546771E-02  0.1254193E+00
          2   -1    0    0  501    0  0.00000000000E+00  0.00000000000E+00  0.49329111016E+03  0.49329111016E+03  0.00000000000E+00 0. -1.
         -2   -1    0    0    0  501 -0.00000000000E+00 -0.00000000000E+00 -0.48036293118E+02  0.48036293118E+02  0.00000000000E+00 0.  1.
          2    1    1    2  502    0 -0.58915903365E+02  0.18294703504E+02  0.47060479282E+03  0.47463106817E+03  0.00000000000E+00 0. -1.
         -2    1    1    2    0  502  0.58915903365E+02 -0.18294703504E+02 -0.25349975776E+02  0.66696335112E+02  0.00000000000E+00 0.  1.
</event>
<event>
 4    1  0.6145708E+003  0.2398965E+02  0.7546771E-02  0.1480431E+00
          2   -1    0    0  501    0  0.00000000000E+00  0.00000000000E+00  0.18123211643E+02  0.18123211643E+02  0.00000000000E+00 0.  1.
         -2   -1    0    0    0  501 -0.00000000000E+00 -0.00000000000E+00 -0.15390776635E+03  0.15390776635E+03  0.00000000000E+00 0.  1.
          2    1    1    2  502    0  0.23595932560E+02 -0.43284246132E+01  0.87375732662E+01  0.25531323498E+02  0.00000000000E+00 0.  1.
         -2    1    1    2    0  502 -0.23595932560E+02  0.43284246132E+01 -0.14452212797E+03  0.14649965449E+03  0.00000000000E+00 0.  1.
</event>
<event>
 4    1  0.6145708E+003  0.2173039E+02  0.7546771E-02  0.1509087E+00
          2   -1    0    0  501    0  0.00000000000E+00  0.00000000000E+00  0.25242095319E+01  0.25242095319E+01  0.00000000000E+00 0.  1.
         -2   -1    0    0    0  501 -0.00000000000E+00 -0.00000000000E+00 -0.18913722134E+03  0.18913722134E+03  0.00000000000E+00 0.  1.
          2    1    1    2  502    0 -0.93788133884E+01  0.19602225326E+02 -0.10331988528E+03  0.10558033942E+03  0.00000000000E+00 0.  1.
         -2    1    1    2    0  502  0.93788133884E+01 -0.19602225326E+02 -0.83293126536E+02  0.86081091457E+02  0.00000000000E+00 0.  1.
</event>
<event>
 4    1  0.6145708E+003  0.2393624E+02  0.7546771E-02  0.1481065E+00
          2   -1    0    0  501    0  0.00000000000E+00  0.00000000000E+00  0.55698370236E+03  0.55698370236E+03  0.00000000000E+00 0. -1.
         -2   -1    0    0    0  501 -0.00000000000E+00 -0.00000000000E+00 -0.27290947896E+02  0.27290947896E+02  0.00000000000E+00 0.  1.
          2    1    1    2  502    0 -0.20432335680E+02  0.12468484916E+02  0.55142518245E+03  0.55194444946E+03  0.00000000000E+00 0. -1.
         -2    1    1    2    0  502  0.20432335680E+02 -0.12468484916E+02 -0.21732427981E+02  0.32330200794E+02  0.00000000000E+00 0.  1.
</event>
<event>
 4    1  0.6145708E+003  0.6675213E+02  0.7546771E-02  0.1238470E+00
          2   -1    0    0  501    0  0.00000000000E+00  0.00000000000E+00  0.20454126891E+04  0.20454126891E+04  0.00000000000E+00 0.  1.
         -2   -1    0    0    0  501 -0.00000000000E+00 -0.00000000000E+00 -0.34944029970E+01  0.34944029970E+01  0.00000000000E+00 0. -1.
          2    1    1    2  502    0  0.11161761192E+02  0.65812323673E+02  0.16496317616E+04  0.16509817673E+04  0.00000000000E+00 0.  1.
         -2    1    1    2    0  502 -0.11161761192E+02 -0.65812323673E+02  0.39228652446E+03  0.39792532482E+03  0.00000000000E+00 0. -1.
</event>
<event>
 4    1  0.6145708E+003  0.2214350E+02  0.7546771E-02  0.1503543E+00
          2   -1    0    0  501    0  0.00000000000E+00  0.00000000000E+00  0.18405630356E+02  0.18405630356E+02  0.00000000000E+00 0.  1.
         -2   -1    0    0    0  501 -0.00000000000E+00 -0.00000000000E+00 -0.21714610640E+03  0.21714610640E+03  0.00000000000E+00 0. -1.
          2    1    1    2  502    0  0.72947747121E+01  0.20907437798E+02  0.10944669031E+02  0.24700616866E+02  0.00000000000E+00 0.  1.
         -2    1    1    2    0  502 -0.72947747121E+01 -0.20907437798E+02 -0.20968514507E+03  0.21085111989E+03  0.00000000000E+00 0. -1.
</event>
<event>
 4    1  0.6145708E+003  0.3216113E+02  0.7546771E-02  0.1401701E+00
          2   -1    0    0  501    0  0.00000000000E+00  0.00000000000E+00  0.16256872250E+03  0.16256872250E+03  0.00000000000E+00 0.  1.
         -2   -1    0    0    0  501 -0.00000000000E+00 -0.00000000000E+00 -0.10565065108E+02  0.10565065108E+02  0.00000000000E+00 0. -1.
          2    1    1    2  502    0 -0.72823996465E+01 -0.31325792163E+02  0.13059955127E+03  0.13450123193E+03  0.00000000000E+00 0.  1.
         -2    1    1    2    0  502  0.72823996465E+01  0.31325792163E+02  0.21404106123E+02  0.38632555677E+02  0.00000000000E+00 0. -1.
</event>
<event>
 4    1  0.6145708E+003  0.2071659E+02  0.7546771E-02  0.1523350E+00
          2   -1    0    0  501    0  0.00000000000E+00  0.00000000000E+00  0.38485041933E+01  0.38485041933E+01  0.00000000000E+00 0. -1.
         -2   -1    0    0    0  501 -0.00000000000E+00 -0.00000000000E+00 -0.18022283931E+03  0.18022283931E+03  0.00000000000E+00 0. -1.
          2    1    1    2  502    0  0.30283747442E+00 -0.20714375170E+02 -0.31361401462E+02  0.37586095180E+02  0.00000000000E+00 0. -1.
         -2    1    1    2    0  502 -0.30283747442E+00  0.20714375170E+02 -0.14501293365E+03  0.14648524832E+03  0.00000000000E+00 0. -1.
</event>
<event>
 4    1  0.6145708E+003  0.5324328E+02  0.7546771E-02  0.1284692E+00
          2   -1    0    0  501    0  0.00000000000E+00  0.00000000000E+00  0.79188869950E+03  0.79188869950E+03  0.00000000000E+00 0.  1.
         -2   -1    0    0    0  501 -0.00000000000E+00 -0.00000000000E+00 -0.26521745459E+02  0.26521745459E+02  0.00000000000E+00 0.  1.
          2    1    1    2  502    0  0.39840804088E+02  0.35320773278E+02  0.76327115002E+03  0.76512593418E+03  0.00000000000E+00 0.  1.
         -2    1    1    2    0  502 -0.39840804088E+02 -0.35320773278E+02  0.20958040241E+01  0.53284510787E+02  0.00000000000E+00 0.  1.
</event>
<event>
 4    1  0.6145708E+003  0.3092591E+02  0.7546771E-02  0.1411717E+00
          2   -1    0    0  501    0  0.00000000000E+00  0.00000000000E+00  0.21306085610E+04  0.21306085610E+04  0.00000000000E+00 0.  1.
         -2   -1    0    0    0  501 -0.00000000000E+00 -0.00000000000E+00 -0.50154994334E+01  0.50154994334E+01  0.00000000000E+00 0.  1.
          2    1    1    2  502    0 -0.51236464713E+01  0.30498522207E+02  0.20817036350E+04  0.20819333408E+04  0.00000000000E+00 0.  1.
         -2    1    1    2    0  502  0.51236464713E+01 -0.30498522207E+02  0.43889426606E+02  0.53690719661E+02  0.00000000000E+00 0.  1.
</event>
<event>
 4    1  0.6145708E+003  0.2306774E+02  0.7546771E-02  0.1491649E+00
          2   -1    0    0  501    0  0.00000000000E+00  0.00000000000E+00  0.23333739927E+02  0.23333739927E+02  0.00000000000E+00 0. -1.
         -2   -1    0    0    0  501 -0.00000000000E+00 -0.00000000000E+00 -0.57909253999E+02  0.57909253999E+02  0.00000000000E+00 0.  1.
          2    1    1    2  502    0 -0.11282319726E+02  0.20120389260E+02  0.14339619895E+02  0.27161470894E+02  0.00000000000E+00 0. -1.
         -2    1    1    2    0  502  0.11282319726E+02 -0.20120389260E+02 -0.48915133967E+02  0.54081523031E+02  0.00000000000E+00 0.  1.
</event>
<event>
 4    1  0.6145708E+003  0.2483027E+02  0.7546771E-02  0.1470711E+00
          2   -1    0    0  501    0  0.00000000000E+00  0.00000000000E+00  0.10015662220E+04  0.10015662220E+04  0.00000000000E+00 0. -1.
         -2   -1    0    0    0  501 -0.00000000000E+00 -0.00000000000E+00 -0.41677763358E+01  0.41677763358E+01  0.00000000000E+00 0.  1.
          2    1    1    2  502    0  0.57268470949E+01  0.24160828658E+02  0.96294666466E+03  0.96326674467E+03  0.00000000000E+00 0. -1.
         -2    1    1    2    0  502 -0.57268470949E+01 -0.24160828658E+02  0.34451781008E+02  0.42467253664E+02  0.00000000000E+00 0.  1.
</event>
<event>
 4    1  0.6145708E+003  0.2716841E+02  0.7546771E-02  0.1445924E+00
          2   -1    0    0  501    0  0.00000000000E+00  0.00000000000E+00  0.14334136168E+04  0.14334136168E+04  0.00000000000E+00 0. -1.
         -2   -1    0    0    0  501 -0.00000000000E+00 -0.00000000000E+00 -0.31112052106E+01  0.31112052106E+01  0.00000000000E+00 0. -1.
          2    1    1    2  502    0 -0.26254687991E+02  0.69867007253E+01  0.13712863511E+04  0.13715554598E+04  0.00000000000E+00 0. -1.
         -2    1    1    2    0  502  0.26254687991E+02 -0.69867007253E+01  0.59016060474E+02  0.64969362183E+02  0.00000000000E+00 0. -1.
</event>
<event>
 4    1  0.6145708E+003  0.2031402E+02  0.7546771E-02  0.1529288E+00
          2   -1    0    0  501    0  0.00000000000E+00  0.00000000000E+00  0.87491550082E+03  0.87491550082E+03  0.00000000000E+00 0. -1.
         -2   -1    0    0    0  501 -0.00000000000E+00 -0.00000000000E+00 -0.40966764232E+02  0.40966764232E+02  0.00000000000E+00 0.  1.
          2    1    1    2  502    0  0.17399845771E+02  0.10483555067E+02  0.87227169684E+03  0.87250820779E+03  0.00000000000E+00 0. -1.
         -2    1    1    2    0  502 -0.17399845771E+02 -0.10483555067E+02 -0.38322960257E+02  0.43374057253E+02  0.00000000000E+00 0.  1.
</event>
<event>
 4    1  0.6145708E+003  0.2655652E+02  0.7546771E-02  0.1452115E+00
          2   -1    0    0  501    0  0.00000000000E+00  0.00000000000E+00  0.16725266719E+02  0.16725266719E+02  0.00000000000E+00 0.  1.
         -2   -1    0    0    0  501 -0.00000000000E+00 -0.00000000000E+00 -0.12373305394E+03  0.12373305394E+03  0.00000000000E+00 0. -1.
          2    1    1    2  502    0 -0.20098149602E+02  0.17358373372E+02  0.35165017033E+01  0.26788328200E+02  0.00000000000E+00 0.  1.
         -2    1    1    2    0  502  0.20098149602E+02 -0.17358373372E+02 -0.11052428892E+03  0.11366999246E+03  0.00000000000E+00 0. -1.
</event>
<event>
 4    1  0.6145708E+003  0.2829619E+02  0.7546771E-02  0.1435005E+00
          2   -1    0    0  501    0  0.00000000000E+00  0.00000000000E+00  0.35138719492E+03  0.35138719492E+03  0.00000000000E+00 0.  1.
         -2   -1    0    0    0  501 -0.00000000000E+00 -0.00000000000E+00 -0.65871716441E+01  0.65871716441E+01  0.00000000000E+00 0. -1.
          2    1    1    2  502    0  0.26291692703E+02  0.10460469304E+02  0.31715667961E+03  0.31841644735E+03  0.00000000000E+00 0.  1.
         -2    1    1    2    0  502 -0.26291692703E+02 -0.10460469304E+02  0.27643343662E+02  0.39557919208E+02  0.00000000000E+00 0. -1.
</event>
<event>
 4    1  0.6145708E+003  0.2068481E+02  0.7546771E-02  0.1523813E+00
          2   -1    0    0  501    0  0.00000000000E+00  0.00000000000E+00  0.22567343751E+03  0.22567343751E+03  0.00000000000E+00 0.  1.
         -2   -1    0    0    0  501 -0.00000000000E+00 -0.00000000000E+00 -0.40033872454E+02  0.40033872454E+02  0.00000000000E+00 0.  1.
          2    1    1    2  502    0  0.19123275975E+02 -0.78842791038E+01  0.22248942795E+03  0.22344889145E+03  0.00000000000E+00 0.  1.
         -2    1    1    2    0  502 -0.19123275975E+02  0.78842791038E+01 -0.36849862888E+02  0.42258418520E+02  0.00000000000E+00 0.  1.
</event>
<event>
 4    1  0.6145708E+003  0.4391730E+02  0.7546771E-02  0.1326943E+00
          2   -1    0    0  501    0  0.00000000000E+00  0.00000000000E+00  0.86717248855E+03  0.86717248855E+03  0.00000000000E+00 0.  1.
         -2   -1    0    0    0  501 -0.00000000000E+00 -0.00000000000E+00 -0.82676229270E+02  0.82676229270E+02  0.00000000000E+00 0. -1.
          2    1    1    2  502    0 -0.97126985962E+01  0.42829806877E+02  0.86074072242E+03  0.86186038318E+03  0.00000000000E+00 0.  1.
         -2    1    1    2    0  502  0.97126985962E+01 -0.42829806877E+02 -0.76244463144E+02  0.87988334632E+02  0.00000000000E+00 0. -1.
</event>
<event>
 4    1  0.6145708E+003  0.2649137E+02  0.7546771E-02  0.1452785E+00
          2   -1    0    0  501    0  0.00000000000E+00  0.00000000000E+00  0.10648177768E+02  0.10648177768E+02  0.00000000000E+00 0.  1.
         -2   -1    0    0    0  501 -0.00000000000E+00 -0.00000000000E+00 -0.34746591755E+03  0.34746591755E+03  0.00000000000E+00 0. -1.
          2    1    1    2  502    0 -0.32647139132E+01 -0.26289438225E+02 -0.72256950152E+01  0.27459125761E+02  0.00000000000E+00 0.  1.
         -2    1    1    2    0  502  0.32647139132E+01  0.26289438225E+02 -0.32959204477E+03  0.33065496956E+03  0.00000000000E+00 0. -1.
</event>
<event>
 4    1  0.6145708E+003  0.2376426E+02  0.7546771E-02  0.1483118E+00
          2   -1    0    0  501    0  0.00000000000E+00  0.00000000000E+00  0.79499246410E+02  0.79499246410E+02  0.00000000000E+00 0. -1.
         -2   -1    0    0    0  501 -0.00000000000E+00 -0.00000000000E+00 -0.32408123011E+02  0.32408123011E+02  0.00000000000E+00 0.  1.
          2    1    1    2  502    0  0.21652253078E+02  0.97938801707E+01  0.72987993736E+02  0.76759282056E+02  0.00000000000E+00 0. -1.
         -2    1    1    2    0  502 -0.21652253078E+02 -0.97938801707E+01 -0.25896870338E+02  0.35148087365E+02  0.00000000000E+00 0.  1.
</event>
<event>
 4    1  0.6145708E+003  0.2698460E+02  0.7546771E-02  0.1447763E+00
          2   -1    0    0  501    0  0.00000000000E+00  0.00000000000E+00  0.17697535533E+01  0.17697535533E+01  0.00000000000E+00 0. -1.
         -2   -1    0    0    0  501 -0.00000000000E+00 -0.00000000000E+00 -0.52684890454E+03  0.52684890454E+03  0.00000000000E+00 0. -1.
          2    1    1    2  502    0 -0.26112209721E+02  0.68059625733E+01 -0.13884047313E+03  0.14143848699E+03  0.00000000000E+00 0. -1.
         -2    1    1    2    0  502  0.26112209721E+02 -0.68059625733E+01 -0.38623867786E+03  0.38718017111E+03  0.00000000000E+00 0. -1.
</event>
<event>
 4    1  0.6145708E+003  0.3730466E+02  0.7546771E-02  0.1365048E+00
          2   -1    0    0  501    0  0.00000000000E+00  0.00000000000E+00  0.60417754774E+02  0.60417754774E+02  0.00000000000E+00 0.  1.
         -2   -1    0    0    0  501 -0.00000000000E+00 -0.00000000000E+00 -0.10201841937E+03  0.10201841937E+03  0.00000000000E+00 0. -1.
          2    1    1    2  502    0  0.33711355569E+02  0.15974414017E+02  0.50663338637E+02  0.62915906410E+02  0.00000000000E+00 0.  1.
         -2    1    1    2    0  502 -0.33711355569E+02 -0.15974414017E+02 -0.92264003230E+02  0.99520267732E+02  0.00000000000E+00 0. -1.
</event>
<event>
 4    1  0.6145708E+003  0.4244582E+02  0.7546771E-02  0.1334720E+00
          2   -1    0    0  501    0  0.00000000000E+00  0.00000000000E+00  0.23499684923E+03  0.23499684923E+03  0.00000000000E+00 0.  1.
         -2   -1    0    0    0  501 -0.00000000000E+00 -0.00000000000E+00 -0.94510386603E+01  0.94510386603E+01  0.00000000000E+00 0. -1.
          2    1    1    2  502    0  0.13748327837E+02 -0.40157577253E+02  0.16588049898E+03  0.17122496159E+03  0.00000000000E+00 0.  1.
         -2    1    1    2    0  502 -0.13748327837E+02  0.40157577253E+02  0.59665311594E+02  0.73222926306E+02  0.00000000000E+00 0. -1.
</event>
<event>
 4    1  0.6145708E+003  0.3344974E+02  0.7546771E-02  0.1391802E+00
          2   -1    0    0  501    0  0.00000000000E+00  0.00000000000E+00  0.19205628865E+04  0.19205628865E+04  0.00000000000E+00 0. -1.
         -2   -1    0    0    0  501 -0.00000000000E+00 -0.00000000000E+00 -0.10409590625E+02  0.10409590625E+02  0.00000000000E+00 0.  1.
          2    1    1    2  502    0 -0.33212880746E+02 -0.39735833333E+01  0.18931567795E+04  0.18934522641E+04  0.00000000000E+00 0. -1.
         -2    1    1    2    0  502  0.33212880746E+02  0.39735833333E+01  0.16996516336E+02  0.37520212946E+02  0.00000000000E+00 0.  1.
</event>
<event>
 4    1  0.6145708E+003  0.7315431E+02  0.7546771E-02  0.1220699E+00
          2   -1    0    0  501    0  0.00000000000E+00  0.00000000000E+00  0.25302632918E+02  0.25302632918E+02  0.00000000000E+00 0. -1.
         -2   -1    0    0    0  501 -0.00000000000E+00 -0.00000000000E+00 -0.31917574844E+03  0.31917574844E+03  0.00000000000E+00 0. -1.
          2    1    1    2  502    0  0.71552898488E+02 -0.15222847426E+02 -0.46896863394E+02  0.86895731553E+02  0.00000000000E+00 0. -1.
         -2    1    1    2    0  502 -0.71552898488E+02  0.15222847426E+02 -0.24697625213E+03  0.25758264981E+03  0.00000000000E+00 0. -1.
</event>
<event>
 4    1  0.6145708E+003  0.2414193E+02  0.7546771E-02  0.1478636E+00
          2   -1    0    0  501    0  0.00000000000E+00  0.00000000000E+00  0.15232872544E+03  0.15232872544E+03  0.00000000000E+00 0.  1.
         -2   -1    0    0    0  501 -0.00000000000E+00 -0.00000000000E+00 -0.26771667151E+03  0.26771667151E+03  0.00000000000E+00 0. -1.
          2    1    1    2  502    0  0.86033241589E+01  0.22556944540E+02  0.15082252353E+03  0.15274248439E+03  0.00000000000E+00 0.  1.
         -2    1    1    2    0  502 -0.86033241589E+01 -0.22556944540E+02 -0.26621046960E+03  0.26730291255E+03  0.00000000000E+00 0. -1.
</event>
<event>
 4    1  0.6145708E+003  0.3819369E+02  0.7546771E-02  0.1359409E+00
          2   -1    0    0  501    0  0.00000000000E+00  0.00000000000E+00  0.11070181079E+02  0.11070181079E+02  0.00000000000E+00 0.  1.
         -2   -1    0    0    0  501 -0.00000000000E+00 -0.00000000000E+00 -0.17118236102E+03  0.17118236102E+03  0.00000000000E+00 0.  1.
          2    1    1    2  502    0  0.36347115032E+02  0.11732222699E+02 -0.36333046921E+02  0.52714780842E+02  0.00000000000E+00 0.  1.
         -2    1    1    2    0  502 -0.36347115032E+02 -0.11732222699E+02 -0.12377913302E+03  0.12953776126E+03  0.00000000000E+00 0.  1.
</event>
<event>
 4    1  0.6145708E+003  0.3391867E+02  0.7546771E-02  0.1388329E+00
          2   -1    0    0  501    0  0.00000000000E+00  0.00000000000E+00  0.73061498760E+03  0.73061498760E+03  0.00000000000E+00 0.  1.
         -2   -1    0    0    0  501 -0.00000000000E+00 -0.00000000000E+00 -0.12276035612E+02  0.12276035612E+02  0.00000000000E+00 0.  1.
          2    1    1    2  502    0  0.19237588620E+02  0.27935483716E+02  0.70597474410E+03  0.70678908832E+03  0.00000000000E+00 0.  1.
         -2    1    1    2    0  502 -0.19237588620E+02 -0.27935483716E+02  0.12364207894E+02  0.36101934895E+02  0.00000000000E+00 0.  1.
</event>
<event>
 4    1  0.6145708E+003  0.2139457E+02  0.7546771E-02  0.1513705E+00
          2   -1    0    0  501    0  0.00000000000E+00  0.00000000000E+00  0.83918646539E+03  0.83918646539E+03  0.00000000000E+00 0.  1.
         -2   -1    0    0    0  501 -0.00000000000E+00 -0.00000000000E+00 -0.54544174730E+00  0.54544174730E+00  0.00000000000E+00 0.  1.
          2    1    1    2  502    0 -0.21205420206E+02  0.28385709666E+01  0.41930331796E+03  0.41984878204E+03  0.00000000000E+00 0.  1.
         -2    1    1    2    0  502  0.21205420206E+02 -0.28385709666E+01  0.41933770568E+03  0.41988312509E+03  0.00000000000E+00 0.  1.
</event>
<event>
 4    1  0.6145708E+003  0.2098262E+02  0.7546771E-02  0.1519513E+00
          2   -1    0    0  501    0  0.00000000000E+00  0.00000000000E+00  0.75405481245E+01  0.75405481245E+01  0.00000000000E+00 0. -1.
         -2   -1    0    0    0  501 -0.00000000000E+00 -0.00000000000E+00 -0.64246725511E+02  0.64246725511E+02  0.00000000000E+00 0. -1.
          2    1    1    2  502    0 -0.19692457871E+02 -0.72441318085E+01 -0.17513099833E+02  0.27330916714E+02  0.00000000000E+00 0. -1.
         -2    1    1    2    0  502  0.19692457871E+02  0.72441318085E+01 -0.39193077554E+02  0.44456356922E+02  0.00000000000E+00 0. -1.
</event>
<event>
 4    1  0.6145708E+003  0.3805434E+02  0.7546771E-02  0.1360281E+00
          2   -1    0    0  501    0  0.00000000000E+00  0.00000000000E+00  0.73014364301E+02  0.73014364301E+02  0.00000000000E+00 0.  1.
         -2   -1    0    0    0  501 -0.00000000000E+00 -0.00000000000E+00 -0.77671136488E+02  0.77671136488E+02  0.00000000000E+00 0. -1.
          2    1    1    2  502    0  0.16636564190E+02  0.34225101489E+02  0.62687095390E+02  0.73333517361E+02  0.00000000000E+00 0.  1.
         -2    1    1    2    0  502 -0.16636564190E+02 -0.34225101489E+02 -0.67343867577E+02  0.77351983428E+02  0.00000000000E+00 0. -1.
</event>
<event>
 4    1  0.6145708E+003  0.3119891E+02  0.7546771E-02  0.1409456E+00
          2   -1    0    0  501    0  0.00000000000E+00  0.00000000000E+00  0.40981595537E+02  0.40981595537E+02  0.00000000000E+00 0.  1.
         -2   -1    0    0    0  501 -0.00000000000E+00 -0.00000000000E+00 -0.20448074560E+03  0.20448074560E+03  0.00000000000E+00 0.  1.
          2    1    1    2  502    0  0.27958392396E+02  0.13845590610E+02  0.33633723741E+02  0.45875913695E+02  0.00000000000E+00 0.  1.
         -2    1    1    2    0  502 -0.27958392396E+02 -0.13845590610E+02 -0.19713287380E+03  0.19958642744E+03  0.00000000000E+00 0.  1.
</event>
<event>
 4    1  0.6145708E+003  0.3109565E+02  0.7546771E-02  0.1410308E+00
          2   -1    0    0  501    0  0.00000000000E+00  0.00000000000E+00  0.71816592243E+03  0.71816592243E+03  0.00000000000E+00 0. -1.
         -2   -1    0    0    0  501 -0.00000000000E+00 -0.00000000000E+00 -0.15237500046E+01  0.15237500046E+01  0.00000000000E+00 0. -1.
          2    1    1    2  502    0 -0.30558503658E+02  0.57547658364E+01  0.48108550741E+03  0.48208941590E+03  0.00000000000E+00 0. -1.
         -2    1    1    2    0  502  0.30558503658E+02 -0.57547658364E+01  0.23555666501E+03  0.23760025654E+03  0.00000000000E+00 0. -1.
</event>
<event>
 4    1  0.6145708E+003  0.2184819E+02  0.7546771E-02  0.1507491E+00
          2   -1    0    0  501    0  0.00000000000E+00  0.00000000000E+00  0.14437244291E+04  0.14437244291E+04  0.00000000000E+00 0.  1.
         -2   -1    0    0    0  501 -0.00000000000E+00 -0.00000000000E+00 -0.76290867232E+01  0.76290867232E+01  0.00000000000E+00 0.  1.
          2    1    1    2  502    0  0.91777570240E+01  0.19827052895E+02  0.14278253880E+04  0.14279925357E+04  0.00000000000E+00 0.  1.
         -2    1    1    2    0  502 -0.91777570240E+01 -0.19827052895E+02  0.82699544157E+01  0.23360980214E+02  0.00000000000E+00 0.  1.
</event>
<event>
 4    1  0.6145708E+003  0.2044327E+02  0.7546771E-02  0.1527364E+00
          2   -1    0    0  501    0  0.00000000000E+00  0.00000000000E+00  0.40896467172E+03  0.40896467172E+03  0.00000000000E+00 0.  1.
         -2   -1    0    0    0  501 -0.00000000000E+00 -0.00000000000E+00 -0.14821361439E+02  0.14821361439E+02  0.00000000000E+00 0.  1.
          2    1    1    2  502    0  0.39349925677E+01  0.20060983670E+02  0.40152933272E+03  0.40204941521E+03  0.00000000000E+00 0.  1.
         -2    1    1    2    0  502 -0.39349925677E+01 -0.20060983670E+02 -0.73860224441E+01  0.21736617949E+02  0.00000000000E+00 0.  1.
</event>
<event>
 4    1  0.6145708E+003  0.4113635E+02  0.7546771E-02  0.1341952E+00
          2   -1    0    0  501    0  0.00000000000E+00  0.00000000000E+00  0.31910549166E+03  0.31910549166E+03  0.00000000000E+00 0. -1.
         -2   -1    0    0    0  501 -0.00000000000E+00 -0.00000000000E+00 -0.75065958178E+01  0.75065958178E+01  0.00000000000E+00 0. -1.
          2    1    1    2  502    0  0.22789402493E+02  0.34246787648E+02  0.24428084866E+03  0.24772027037E+03  0.00000000000E+00 0. -1.
         -2    1    1    2    0  502 -0.22789402493E+02 -0.34246787648E+02  0.67318047183E+02  0.78891817108E+02  0.00000000000E+00 0. -1.
</event>
<event>
 4    1  0.6145708E+003  0.2078558E+02  0.7546771E-02  0.1522348E+00
          2   -1    0    0  501    0  0.00000000000E+00  0.00000000000E+00  0.12318639577E+04  0.12318639577E+04  0.00000000000E+00 0. -1.
         -2   -1    0    0    0  501 -0.00000000000E+00 -0.00000000000E+00 -0.14894107804E+01  0.14894107804E+01  0.00000000000E+00 0.  1.
          2    1    1    2  502    0  0.12476451610E+02 -0.16624629976E+02  0.11543912102E+04  0.11545783240E+04  0.00000000000E+00 0. -1.
         -2    1    1    2    0  502 -0.12476451610E+02  0.16624629976E+02  0.75983336686E+02  0.78775044402E+02  0.00000000000E+00 0.  1.
</event>
<event>
 4    1  0.6145708E+003  0.2571257E+02  0.7546771E-02  0.1460988E+00
          2   -1    0    0  501    0  0.00000000000E+00  0.00000000000E+00  0.22850198918E+04  0.22850198918E+04  0.00000000000E+00 0.  1.
         -2   -1    0    0    0  501 -0.00000000000E+00 -0.00000000000E+00 -0.32742753082E+00  0.32742753082E+00  0.00000000000E+00 0. -1.
          2    1    1    2  502    0  0.24644159939E+02  0.73349483055E+01  0.15320951288E+04  0.15323108757E+04  0.00000000000E+00 0.  1.
         -2    1    1    2    0  502 -0.24644159939E+02 -0.73349483055E+01  0.75259733543E+03  0.75303644359E+03  0.00000000000E+00 0. -1.
</event>
<event>
 4    1  0.6145708E+003  0.2763277E+02  0.7546771E-02  0.1441353E+00
          2   -1    0    0  501    0  0.00000000000E+00  0.00000000000E+00  0.23357659415E+03  0.23357659415E+03  0.00000000000E+00 0.  1.
         -2   -1    0    0    0  501 -0.00000000000E+00 -0.00000000000E+00 -0.61108743613E+01  0.61108743613E+01  0.00000000000E+00 0.  1.
          2    1    1    2  502    0 -0.21540114882E+02  0.17308772684E+02  0.19545945122E+03  0.19740305781E+03  0.00000000000E+00 0.  1.
         -2    1    1    2    0  502  0.21540114882E+02 -0.17308772684E+02  0.32006268576E+02  0.42284410710E+02  0.00000000000E+00 0.  1.
</event>
<event>
 4    1  0.6145708E+003  0.5443174E+02  0.7546771E-02  0.1280022E+00
          2   -1    0    0  501    0  0.00000000000E+00  0.00000000000E+00  0.18901444632E+03  0.18901444632E+03  0.00000000000E+00 0.  1.
         -2   -1    0    0    0  501 -0.00000000000E+00 -0.00000000000E+00 -0.50870924478E+03  0.50870924478E+03  0.00000000000E+00 0.  1.
          2    1    1    2  502    0 -0.27654362570E+02 -0.46883366905E+02  0.18359758055E+03  0.19149643716E+03  0.00000000000E+00 0.  1.
         -2    1    1    2    0  502  0.27654362570E+02  0.46883366905E+02 -0.50329237901E+03  0.50622725394E+03  0.00000000000E+00 0.  1.
</event>
<event>
 4    1  0.6145708E+003  0.2266300E+02  0.7546771E-02  0.1496774E+00
          2   -1    0    0  501    0  0.00000000000E+00  0.00000000000E+00  0.21370175626E+03  0.21370175626E+03  0.00000000000E+00 0. -1.
         -2   -1    0    0    0  501 -0.00000000000E+00 -0.00000000000E+00 -0.21239347152E+02  0.21239347152E+02  0.00000000000E+00 0.  1.
          2    1    1    2  502    0  0.15132547214E+02  0.16870615681E+02  0.20685590612E+03  0.20809367496E+03  0.00000000000E+00 0. -1.
         -2    1    1    2    0  502 -0.15132547214E+02 -0.16870615681E+02 -0.14393497012E+02  0.26847428459E+02  0.00000000000E+00 0.  1.
</event>
<event>
 4    1  0.6145708E+003  0.4782627E+02  0.7546771E-02  0.1307882E+00
          2   -1    0    0  501    0  0.00000000000E+00  0.00000000000E+00  0.15065569364E+03  0.15065569364E+03  0.00000000000E+00 0.  1.
         -2   -1    0    0    0  501 -0.00000000000E+00 -0.00000000000E+00 -0.20211789910E+02  0.20211789910E+02  0.00000000000E+00 0.  1.
          2    1    1    2  502    0 -0.46698493835E+02  0.10324879835E+02  0.10783807665E+03  0.11796780597E+03  0.00000000000E+00 0.  1.
         -2    1    1    2    0  502  0.46698493835E+02 -0.10324879835E+02  0.22605827080E+02  0.52899677579E+02  0.00000000000E+00 0.  1.
</event>
<event>
 4    1  0.6145708E+003  0.2001153E+02  0.7546771E-02  0.1533859E+00
          2   -1    0    0  501    0  0.00000000000E+00  0.00000000000E+00  0.16011537470E+04  0.16011537470E+04  0.00000000000E+00 0. -1.
         -2   -1    0    0    0  501 -0.00000000000E+00 -0.00000000000E+00 -0.56658505660E+00  0.56658505660E+00  0.00000000000E+00 0. -1.
          2    1    1    2  502    0  0.15052350605E+02 -0.13186659764E+02  0.13988364982E+04  0.13989796317E+04  0.00000000000E+00 0. -1.
         -2    1    1    2    0  502 -0.15052350605E+02  0.13186659764E+02  0.20175066374E+03  0.20274070034E+03  0.00000000000E+00 0. -1.
</event>
<event>
 4    1  0.6145708E+003  0.2689844E+02  0.7546771E-02  0.1448631E+00
          2   -1    0    0  501    0  0.00000000000E+00  0.00000000000E+00  0.74542069061E+02  0.74542069061E+02  0.00000000000E+00 0. -1.
         -2   -1    0    0    0  501 -0.00000000000E+00 -0.00000000000E+00 -0.97065021853E+01  0.97065021853E+01  0.00000000000E+00 0. -1.
          2    1    1    2  502    0 -0.21915295150E+02 -0.15596342539E+02  0.32620123649E+02  0.42280001526E+02  0.00000000000E+00 0. -1.
         -2    1    1    2    0  502  0.21915295150E+02  0.15596342539E+02  0.32215443226E+02  0.41968569720E+02  0.00000000000E+00 0. -1.
</event>
<event>
 4    1  0.6145708E+003  0.2380715E+02  0.7546771E-02  0.1482604E+00
          2   -1    0    0  501    0  0.00000000000E+00  0.00000000000E+00  0.66170449649E+03  0.66170449649E+03  0.00000000000E+00 0. -1.
         -2   -1    0    0    0  501 -0.00000000000E+00 -0.00000000000E+00 -0.85973051160E+00  0.85973051160E+00  0.00000000000E+00 0. -1.
          2    1    1    2  502    0 -0.11556574034E+02 -0.20814068551E+02  0.31025784051E+03  0.31116990127E+03  0.00000000000E+00 0. -1.
         -2    1    1    2    0  502  0.11556574034E+02  0.20814068551E+02  0.35058692546E+03  0.35139432574E+03  0.00000000000E+00 0. -1.
</event>
<event>
 4    1  0.6145708E+003  0.2115601E+02  0.7546771E-02  0.1517049E+00
          2   -1    0    0  501    0  0.00000000000E+00  0.00000000000E+00  0.16891395097E+03  0.16891395097E+03  0.00000000000E+00 0. -1.
         -2   -1    0    0    0  501 -0.00000000000E+00 -0.00000000000E+00 -0.28916872765E+02  0.28916872765E+02  0.00000000000E+00 0.  1.
          2    1    1    2  502    0  0.57514373285E+01 -0.20359213861E+02  0.16427314082E+03  0.16562983250E+03  0.00000000000E+00 0. -1.
         -2    1    1    2    0  502 -0.57514373285E+01  0.20359213861E+02 -0.24276062613E+02  0.32200991233E+02  0.00000000000E+00 0.  1.
</event>
<event>
 4    1  0.6145708E+003  0.2729207E+02  0.7546771E-02  0.1444696E+00
          2   -1    0    0  501    0  0.00000000000E+00  0.00000000000E+00  0.32107834058E+03  0.32107834058E+03  0.00000000000E+00 0.  1.
         -2   -1    0    0    0  501 -0.00000000000E+00 -0.00000000000E+00 -0.12521415778E+02  0.12521415778E+02  0.00000000000E+00 0. -1.
          2    1    1    2  502    0  0.19619613700E+02  0.18971757190E+02  0.30483589980E+03  0.30605519538E+03  0.00000000000E+00 0.  1.
         -2    1    1    2    0  502 -0.19619613700E+02 -0.18971757190E+02  0.37210250076E+01  0.27544560982E+02  0.00000000000E+00 0. -1.
</event>
<event>
 4    1  0.6145708E+003  0.2114263E+02  0.7546771E-02  0.1517238E+00
          2   -1    0    0  501    0  0.00000000000E+00  0.00000000000E+00  0.63072723627E+03  0.63072723627E+03  0.00000000000E+00 0.  1.
         -2   -1    0    0    0  501 -0.00000000000E+00 -0.00000000000E+00 -0.71913190654E+00  0.71913190654E+00  0.00000000000E+00 0.  1.
          2    1    1    2  502    0 -0.15169113839E+02  0.14727826481E+02  0.35298843997E+03  0.35362105373E+03  0.00000000000E+00 0.  1.
         -2    1    1    2    0  502  0.15169113839E+02 -0.14727826481E+02  0.27701966439E+03  0.27782531445E+03  0.00000000000E+00 0.  1.
</event>
<event>
 4    1  0.6145708E+003  0.5528021E+02  0.7546771E-02  0.1276771E+00
          2   -1    0    0  501    0  0.00000000000E+00  0.00000000000E+00  0.20564087907E+04  0.20564087907E+04  0.00000000000E+00 0. -1.
         -2   -1    0    0    0  501 -0.00000000000E+00 -0.00000000000E+00 -0.30586535309E+01  0.30586535309E+01  0.00000000000E+00 0. -1.
          2    1    1    2  502    0 -0.51049319234E+02 -0.21210104416E+02  0.17650400287E+04  0.17659054914E+04  0.00000000000E+00 0. -1.
         -2    1    1    2    0  502  0.51049319234E+02  0.21210104416E+02  0.28831010840E+03  0.29356195279E+03  0.00000000000E+00 0. -1.
</event>
<event>
 4    1  0.6145708E+003  0.2206479E+02  0.7546771E-02  0.1504588E+00
          2   -1    0    0  501    0  0.00000000000E+00  0.00000000000E+00  0.87211323868E+03  0.87211323868E+03  0.00000000000E+00 0.  1.
         -2   -1    0    0    0  501 -0.00000000000E+00 -0.00000000000E+00 -0.81610232998E+02  0.81610232998E+02  0.00000000000E+00 0. -1.
          2    1    1    2  502    0 -0.18138964260E+02  0.12563149150E+02  0.87047947594E+03  0.87075907849E+03  0.00000000000E+00 0.  1.
         -2    1    1    2    0  502  0.18138964260E+02 -0.12563149150E+02 -0.79976470261E+02  0.82964393184E+02  0.00000000000E+00 0. -1.
</event>
<event>
 4    1  0.6145708E+003  0.2566884E+02  0.7546771E-02  0.1461458E+00
          2   -1    0    0  501    0  0.00000000000E+00  0.00000000000E+00  0.15659569125E+04  0.15659569125E+04  0.00000000000E+00 0.  1.
         -2   -1    0    0    0  501 -0.00000000000E+00 -0.00000000000E+00 -0.72477121414E+00  0.72477121414E+00  0.00000000000E+00 0. -1.
          2    1    1    2  502    0 -0.12477296072E+02 -0.22432260779E+02  0.12899528840E+04  0.12902082514E+04  0.00000000000E+00 0.  1.
         -2    1    1    2    0  502  0.12477296072E+02  0.22432260779E+02  0.27527925735E+03  0.27647343230E+03  0.00000000000E+00 0. -1.
</event>
<event>
 4    1  0.6145708E+003  0.3627288E+02  0.7546771E-02  0.1371829E+00
          2   -1    0    0  501    0  0.00000000000E+00  0.00000000000E+00  0.10750426629E+03  0.10750426629E+03  0.00000000000E+00 0.  1.
         -2   -1    0    0    0  501 -0.00000000000E+00 -0.00000000000E+00 -0.35088688744E+03  0.35088688744E+03  0.00000000000E+00 0. -1.
          2    1    1    2  502    0 -0.18699589808E+02  0.31081295384E+02  0.10347166845E+03  0.10964537270E+03  0.00000000000E+00 0.  1.
         -2    1    1    2    0  502  0.18699589808E+02 -0.31081295384E+02 -0.34685428959E+03  0.34874578104E+03  0.00000000000E+00 0. -1.
</event>
<event>
 4    1  0.6145708E+003  0.2115130E+02  0.7546771E-02  0.1517115E+00
          2   -1    0    0  501    0  0.00000000000E+00  0.00000000000E+00  0.44649376724E+03  0.44649376724E+03  0.00000000000E+00 0.  1.
         -2   -1    0    0    0  501 -0.00000000000E+00 -0.00000000000E+00 -0.63135096144E+01  0.63135096144E+01  0.00000000000E+00 0. -1.
          2    1    1    2  502    0  0.13928181886E+02  0.15918021640E+02  0.42775249452E+03  0.42827511512E+03  0.00000000000E+00 0.  1.
         -2    1    1    2    0  502 -0.13928181886E+02 -0.15918021640E+02  0.12427763108E+02  0.24532161736E+02  0.00000000000E+00 0. -1.
</event>
<event>
 4    1  0.6145708E+003  0.6349579E+02  0.7546771E-02  0.1248396E+00
          2   -1    0    0  501    0  0.00000000000E+00  0.00000000000E+00  0.73171305275E+03  0.73171305275E+03  0.00000000000E+00 0.  1.
         -2   -1    0    0    0  501 -0.00000000000E+00 -0.00000000000E+00 -0.20998575091E+02  0.20998575091E+02  0.00000000000E+00 0. -1.
          2    1    1    2  502    0 -0.61010126818E+02 -0.17592045126E+02  0.67858592407E+03  0.68155012433E+03  0.00000000000E+00 0.  1.
         -2    1    1    2    0  502  0.61010126818E+02  0.17592045126E+02  0.32128553584E+02  0.71161503508E+02  0.00000000000E+00 0. -1.
</event>
<event>
 4    1  0.6145708E+003  0.2607384E+02  0.7546771E-02  0.1457140E+00
          2   -1    0    0  501    0  0.00000000000E+00  0.00000000000E+00  0.19201107634E+04  0.19201107634E+04  0.00000000000E+00 0.  1.
         -2   -1    0    0    0  501 -0.00000000000E+00 -0.00000000000E+00 -0.86086938001E+01  0.86086938001E+01  0.00000000000E+00 0.  1.
          2    1    1    2  502    0 -0.11428010860E+02 -0.23435989593E+02  0.19000710522E+04  0.19002499437E+04  0.00000000000E+00 0.  1.
         -2    1    1    2    0  502  0.11428010860E+02  0.23435989593E+02  0.11431017372E+02  0.28469513494E+02  0.00000000000E+00 0.  1.
</event>
<event>
 4    1  0.6145708E+003  0.2405309E+02  0.7546771E-02  0.1479682E+00
          2   -1    0    0  501    0  0.00000000000E+00  0.00000000000E+00  0.31503346332E+02  0.31503346332E+02  0.00000000000E+00 0. -1.
         -2   -1    0    0    0  501 -0.00000000000E+00 -0.00000000000E+00 -0.44457961600E+02  0.44457961600E+02  0.00000000000E+00 0.  1.
          2    1    1    2  502    0 -0.23947399149E+02 -0.22523361827E+01  0.22619910438E+02  0.33018347816E+02  0.00000000000E+00 0. -1.
         -2    1    1    2    0  502  0.23947399149E+02  0.22523361827E+01 -0.35574525707E+02  0.42942960116E+02  0.00000000000E+00 0.  1.
</event>
<event>
 4    1  0.6145708E+003  0.2215397E+02  0.7546771E-02  0.1503404E+00
          2   -1    0    0  501    0  0.00000000000E+00  0.00000000000E+00  0.49415753847E+03  0.49415753847E+03  0.00000000000E+00 0. -1.
         -2   -1    0    0    0  501 -0.00000000000E+00 -0.00000000000E+00 -0.58305558719E+01  0.58305558719E+01  0.00000000000E+00 0.  1.
          2    1    1    2  502    0  0.61819907857E+01 -0.21273956782E+02  0.47187166334E+03  0.47239143188E+03  0.00000000000E+00 0. -1.
         -2    1    1    2    0  502 -0.61819907857E+01  0.21273956782E+02  0.16455319254E+02  0.27596662461E+02  0.00000000000E+00 0.  1.
</event>
<event>
 4    1  0.6145708E+003  0.4026321E+02  0.7546771E-02  0.1346950E+00
          2   -1    0    0  501    0  0.00000000000E+00  0.00000000000E+00  0.94739327587E+02  0.94739327587E+02  0.00000000000E+00 0.  1.
         -2   -1    0    0    0  501 -0.00000000000E+00 -0.00000000000E+00 -0.17514963162E+02  0.17514963162E+02  0.00000000000E+00 0.  1.
          2    1    1    2  502    0  0.30489440064E+02 -0.26296766976E+02  0.47131501756E+02  0.61987937267E+02  0.00000000000E+00 0.  1.
         -2    1    1    2    0  502 -0.30489440064E+02  0.26296766976E+02  0.30092862669E+02  0.50266353482E+02  0.00000000000E+00 0.  1.
</event>
<event>
 4    1  0.6145708E+003  0.2184080E+02  0.7546771E-02  0.1507591E+00
          2   -1    0    0  501    0  0.00000000000E+00  0.00000000000E+00  0.10366142372E+04  0.10366142372E+04  0.00000000000E+00 0. -1.
         -2   -1    0    0    0  501 -0.00000000000E+00 -0.00000000000E+00 -0.15480658535E+01  0.15480658535E+01  0.00000000000E+00 0. -1.
          2    1    1    2  502    0 -0.10054274696E+02 -0.19388966114E+02  0.95267797010E+03  0.95292829487E+03  0.00000000000E+00 0. -1.
         -2    1    1    2    0  502  0.10054274696E+02  0.19388966114E+02  0.82388201238E+02  0.85234008177E+02  0.00000000000E+00 0. -1.
</event>
<event>
 4    1  0.6145708E+003  0.2871209E+02  0.7546771E-02  0.1431128E+00
          2   -1    0    0  501    0  0.00000000000E+00  0.00000000000E+00  0.14478628828E+03  0.14478628828E+03  0.00000000000E+00 0. -1.
         -2   -1    0    0    0  501 -0.00000000000E+00 -0.00000000000E+00 -0.78960635628E+01  0.78960635628E+01  0.00000000000E+00 0. -1.
          2    1    1    2  502    0  0.28233957881E+01 -0.28572937752E+02  0.10876209858E+03  0.11248812569E+03  0.00000000000E+00 0. -1.
         -2    1    1    2    0  502 -0.28233957881E+01  0.28572937752E+02  0.28128126145E+02  0.40194226153E+02  0.00000000000E+00 0. -1.
</event>
<event>
 4    1  0.6145708E+003  0.2770127E+02  0.7546771E-02  0.1440688E+00
          2   -1    0    0  501    0  0.00000000000E+00  0.00000000000E+00  0.62849856648E+03  0.62849856648E+03  0.00000000000E+00 0.  1.
         -2   -1    0    0    0  501 -0.00000000000E+00 -0.00000000000E+00 -0.28977615155E+01  0.28977615155E+01  0.00000000000E+00 0.  1.
          2    1    1    2  502    0 -0.15339108147E+02  0.23066685202E+02  0.55295113453E+03  0.55364457677E+03  0.00000000000E+00 0.  1.
         -2    1    1    2    0  502  0.15339108147E+02 -0.23066685202E+02  0.72649670436E+02  0.77751751230E+02  0.00000000000E+00 0.  1.
</event>
<event>
 4    1  0.6145708E+003  0.2619467E+02  0.7546771E-02  0.1455870E+00
          2   -1    0    0  501    0  0.00000000000E+00  0.00000000000E+00  0.11613444084E+04  0.11613444084E+04  0.00000000000E+00 0. -1.
         -2   -1    0    0    0  501 -0.00000000000E+00 -0.00000000000E+00 -0.22455312453E+01  0.22455312453E+01  0.00000000000E+00 0.  1.
          2    1    1    2  502    0  0.23619634928E+02 -0.11325793160E+02  0.10789738860E+04  0.10792918082E+04  0.00000000000E+00 0. -1.
         -2    1    1    2    0  502 -0.23619634928E+02  0.11325793160E+02  0.80124991189E+02  0.84298131402E+02  0.00000000000E+00 0.  1.
</event>
<event>
 4    1  0.6145708E+003  0.2816099E+02  0.7546771E-02  0.1436282E+00
          2   -1    0    0  501    0  0.00000000000E+00  0.00000000000E+00  0.18829460018E+04  0.18829460018E+04  0.00000000000E+00 0. -1.
         -2   -1    0    0    0  501 -0.00000000000E+00 -0.00000000000E+00 -0.61989923087E+01  0.61989923087E+01  0.00000000000E+00 0.  1.
          2    1    1    2  502    0  0.18259292137E+02 -0.21439210331E+02  0.18502936624E+04  0.18505079515E+04  0.00000000000E+00 0. -1.
         -2    1    1    2    0  502 -0.18259292137E+02  0.21439210331E+02  0.26453347117E+02  0.38637042623E+02  0.00000000000E+00 0.  1.
</event>
<event>
 4    1  0.6145708E+003  0.3214115E+02  0.7546771E-02  0.1401859E+00
          2   -1    0    0  501    0  0.00000000000E+00  0.00000000000E+00  0.19840990145E+02  0.19840990145E+02  0.00000000000E+00 0. -1.
         -2   -1    0    0    0  501 -0.00000000000E+00 -0.00000000000E+00 -0.63266830430E+02  0.63266830430E+02  0.00000000000E+00 0.  1.
          2    1    1    2  502    0  0.32102976180E+02 -0.15660961876E+01 -0.42290924510E+01  0.32418188719E+02  0.00000000000E+00 0. -1.
         -2    1    1    2    0  502 -0.32102976180E+02  0.15660961876E+01 -0.39196747834E+02  0.50689631856E+02  0.00000000000E+00 0.  1.
</event>
<event>
 4    1  0.6145708E+003  0.2138137E+02  0.7546771E-02  0.1513889E+00
          2   -1    0    0  501    0  0.00000000000E+00  0.00000000000E+00  0.53983759157E+03  0.53983759157E+03  0.00000000000E+00 0.  1.
         -2   -1    0    0    0  501 -0.00000000000E+00 -0.00000000000E+00 -0.80105323627E+01  0.80105323627E+01  0.00000000000E+00 0.  1.
          2    1    1    2  502    0 -0.20726773264E+02 -0.52501245235E+01  0.52495397089E+03  0.52538922190E+03  0.00000000000E+00 0.  1.
         -2    1    1    2    0  502  0.20726773264E+02  0.52501245235E+01  0.68730883187E+01  0.22458902032E+02  0.00000000000E+00 0.  1.
</event>
<event>
 4    1  0.6145708E+003  0.2390448E+02  0.7546771E-02  0.1481442E+00
          2   -1    0    0  501    0  0.00000000000E+00  0.00000000000E+00  0.12235946940E+03  0.12235946940E+03  0.00000000000E+00 0. -1.
         -2   -1    0    0    0  501 -0.00000000000E+00 -0.00000000000E+00 -0.38918446507E+02  0.38918446507E+02  0.00000000000E+00 0. -1.
          2    1    1    2  502    0  0.84217995687E+01  0.22371801222E+02  0.11736674574E+03  0.11977636330E+03  0.00000000000E+00 0. -1.
         -2    1    1    2    0  502 -0.84217995687E+01 -0.22371801222E+02 -0.33925722852E+02  0.41501552609E+02  0.00000000000E+00 0. -1.
</event>
<event>
 4    1  0.6145708E+003  0.3303851E+02  0.7546771E-02  0.1394903E+00
          2   -1    0    0  501    0  0.00000000000E+00  0.00000000000E+00  0.25417857544E+03  0.25417857544E+03  0.00000000000E+00 0.  1.
         -2   -1    0    0    0  501 -0.00000000000E+00 -0.00000000000E+00 -0.34426007741E+03  0.34426007741E+03  0.00000000000E+00 0. -1.
          2    1    1    2  502    0  0.30931733617E+02 -0.11609104541E+02  0.25230644620E+03  0.25446038247E+03  0.00000000000E+00 0.  1.
         -2    1    1    2    0  502 -0.30931733617E+02  0.11609104541E+02 -0.34238794816E+03  0.34397827039E+03  0.00000000000E+00 0. -1.
</event>
<event>
 4    1  0.6145708E+003  0.2133888E+02  0.7546771E-02  0.1514481E+00
          2   -1    0    0  501    0  0.00000000000E+00  0.00000000000E+00  0.19615351440E+04  0.19615351440E+04  0.00000000000E+00 0.  1.
         -2   -1    0    0    0  501 -0.00000000000E+00 -0.00000000000E+00 -0.29073610934E+00  0.29073610934E+00  0.00000000000E+00 0.  1.
          2    1    1    2  502    0  0.18129291906E+02  0.11255070195E+02  0.14209954412E+04  0.14211556536E+04  0.00000000000E+00 0.  1.
         -2    1    1    2    0  502 -0.18129291906E+02 -0.11255070195E+02  0.54024896662E+03  0.54067022645E+03  0.00000000000E+00 0.  1.
</event>
<event>
 4    1  0.6145708E+003  0.6396093E+02  0.7546771E-02  0.1246938E+00
          2   -1    0    0  501    0  0.00000000000E+00  0.00000000000E+00  0.11319640527E+04  0.11319640527E+04  0.00000000000E+00 0. -1.
         -2   -1    0    0    0  501 -0.00000000000E+00 -0.00000000000E+00 -0.66631115597E+02  0.66631115597E+02  0.00000000000E+00 0. -1.
          2    1    1    2  502    0  0.13369574301E+02  0.62548021469E+02  0.11154845195E+04  0.11173167472E+04  0.00000000000E+00 0. -1.
         -2    1    1    2    0  502 -0.13369574301E+02 -0.62548021469E+02 -0.50151582396E+02  0.81278421020E+02  0.00000000000E+00 0. -1.
</event>
<event>
 4    1  0.6145708E+003  0.4000426E+02  0.7546771E-02  0.1348461E+00
          2   -1    0    0  501    0  0.00000000000E+00  0.00000000000E+00  0.28689431085E+04  0.28689431085E+04  0.00000000000E+00 0. -1.
         -2   -1    0    0    0  501 -0.00000000000E+00 -0.00000000000E+00 -0.60062753861E+00  0.60062753861E+00  0.00000000000E+00 0. -1.
          2    1    1    2  502    0  0.39248117423E+02  0.77411717223E+01  0.18172287882E+04  0.18176690593E+04  0.00000000000E+00 0. -1.
         -2    1    1    2    0  502 -0.39248117423E+02 -0.77411717223E+01  0.10511136928E+04  0.10518746768E+04  0.00000000000E+00 0. -1.
</event>
<event>
 4    1  0.6145708E+003  0.2694704E+02  0.7546771E-02  0.1448141E+00
          2   -1    0    0  501    0  0.00000000000E+00  0.00000000000E+00  0.27103120619E+03  0.27103120619E+03  0.00000000000E+00 0.  1.
         -2   -1    0    0    0  501 -0.00000000000E+00 -0.00000000000E+00 -0.27064012345E+02  0.27064012345E+02  0.00000000000E+00 0. -1.
          2    1    1    2  502    0 -0.15030910181E+02 -0.22365474895E+02  0.26346154937E+03  0.26483604499E+03  0.00000000000E+00 0.  1.
         -2    1    1    2    0  502  0.15030910181E+02  0.22365474895E+02 -0.19494355521E+02  0.33259173551E+02  0.00000000000E+00 0. -1.
</event>
<event>
 4    1  0.6145708E+003  0.2213088E+02  0.7546771E-02  0.1503710E+00
          2   -1    0    0  501    0  0.00000000000E+00  0.00000000000E+00  0.52166388200E+03  0.52166388200E+03  0.00000000000E+00 0.  1.
         -2   -1    0    0    0  501 -0.00000000000E+00 -0.00000000000E+00 -0.27355012326E+01  0.27355012326E+01  0.00000000000E+00 0. -1.
          2    1    1    2  502    0  0.21531363581E+02  0.51162781077E+01  0.47195633457E+03  0.47247492808E+03  0.00000000000E+00 0.  1.
         -2    1    1    2    0  502 -0.21531363581E+02 -0.51162781077E+01  0.46972046195E+02  0.51924455154E+02  0.00000000000E+00 0. -1.
</event>
<event>
 4    1  0.6145708E+003  0.2092880E+02  0.7546771E-02  0.1520284E+00
          2   -1    0    0  501    0  0.00000000000E+00  0.00000000000E+00  0.59300393154E+02  0.59300393154E+02  0.00000000000E+00 0.  1.
         -2   -1    0    0    0  501 -0.00000000000E+00 -0.00000000000E+00 -0.37962843544E+02  0.37962843544E+02  0.00000000000E+00 0.  1.
          2    1    1    2  502    0 -0.18493717396E+02 -0.97978033928E+01  0.54313630883E+02  0.58206400285E+02  0.00000000000E+00 0.  1.
         -2    1    1    2    0  502  0.18493717396E+02  0.97978033928E+01 -0.32976081273E+02  0.39056836413E+02  0.00000000000E+00 0.  1.
</event>
<event>
 4    1  0.6145708E+003  0.2917337E+02  0.7546771E-02  0.1426918E+00
          2   -1    0    0  501    0  0.00000000000E+00  0.00000000000E+00  0.44867182818E+01  0.44867182818E+01  0.00000000000E+00 0. -1.
         -2   -1    0    0    0  501 -0.00000000000E+00 -0.00000000000E+00 -0.19729136614E+03  0.19729136614E+03  0.00000000000E+00 0. -1.
          2    1    1    2  502    0 -0.28830777742E+02 -0.44577517648E+01 -0.76599019552E+02  0.81966426617E+02  0.00000000000E+00 0. -1.
         -2    1    1    2    0  502  0.28830777742E+02  0.44577517648E+01 -0.11620562831E+03  0.11981165781E+03  0.00000000000E+00 0. -1.
</event>
<event>
 4    1  0.6145708E+003  0.2507032E+02  0.7546771E-02  0.1468018E+00
          2   -1    0    0  501    0  0.00000000000E+00  0.00000000000E+00  0.56559627901E+03  0.56559627901E+03  0.00000000000E+00 0.  1.
         -2   -1    0    0    0  501 -0.00000000000E+00 -0.00000000000E+00 -0.16848713046E+02  0.16848713046E+02  0.00000000000E+00 0.  1.
          2    1    1    2  502    0 -0.24690022905E+02  0.43501488090E+01  0.55582871406E+03  0.55639381772E+03  0.00000000000E+00 0.  1.
         -2    1    1    2    0  502  0.24690022905E+02 -0.43501488090E+01 -0.70811480970E+01  0.26051174333E+02  0.00000000000E+00 0.  1.
</event>
<event>
 4    1  0.6145708E+003  0.2211906E+02  0.7546771E-02  0.1503867E+00
          2   -1    0    0  501    0  0.00000000000E+00  0.00000000000E+00  0.38375012854E+02  0.38375012854E+02  0.00000000000E+00 0.  1.
         -2   -1    0    0    0  501 -0.00000000000E+00 -0.00000000000E+00 -0.40679756725E+02  0.40679756725E+02  0.00000000000E+00 0. -1.
          2    1    1    2  502    0 -0.21761071075E+02 -0.39633820725E+01  0.31600419495E+02  0.38572517730E+02  0.00000000000E+00 0.  1.
         -2    1    1    2    0  502  0.21761071075E+02  0.39633820725E+01 -0.33905163367E+02  0.40482251848E+02  0.00000000000E+00 0. -1.
</event>
<event>
 4    1  0.6145708E+003  0.2773094E+02  0.7546771E-02  0.1440401E+00
          2   -1    0    0  501    0  0.00000000000E+00  0.00000000000E+00  0.17476244075E+04  0.17476244075E+04  0.00000000000E+00 0.  1.
         -2   -1    0    0    0  501 -0.00000000000E+00 -0.00000000000E+00 -0.75471184994E+00  0.75471184994E+00  0.00000000000E+00 0. -1.
          2    1    1    2  502    0 -0.97349575911E+01  0.25966050334E+02  0.14379188880E+04  0.14381862653E+04  0.00000000000E+00 0.  1.
         -2    1    1    2    0  502  0.97349575911E+01 -0.25966050334E+02  0.30895080768E+03  0.31019285410E+03  0.00000000000E+00 0. -1.
</event>
<event>
 4    1  0.6145708E+003  0.2856131E+02  0.7546771E-02  0.1432525E+00
          2   -1    0    0  501    0  0.00000000000E+00  0.00000000000E+00  0.12867784162E+04  0.12867784162E+04  0.00000000000E+00 0. -1.
         -2   -1    0    0    0  501 -0.00000000000E+00 -0.00000000000E+00 -0.18129189982E+01  0.18129189982E+01  0.00000000000E+00 0. -1.
          2    1    1    2  502    0 -0.20921548257E+02  0.19443175821E+02  0.11620573419E+04  0.11624082820E+04  0.00000000000E+00 0. -1.
         -2    1    1    2    0  502  0.20921548257E+02 -0.19443175821E+02  0.12290815534E+03  0.12618305321E+03  0.00000000000E+00 0. -1.
</event>
<event>
 4    1  0.6145708E+003  0.2697608E+02  0.7546771E-02  0.1447849E+00
          2   -1    0    0  501    0  0.00000000000E+00  0.00000000000E+00  0.16537234054E+01  0.16537234054E+01  0.00000000000E+00 0.  1.
         -2   -1    0    0    0  501 -0.00000000000E+00 -0.00000000000E+00 -0.53655092856E+03  0.53655092856E+03  0.00000000000E+00 0.  1.
          2    1    1    2  502    0  0.86657562284E+01  0.25546297713E+02 -0.15332000136E+03  0.15567508302E+03  0.00000000000E+00 0.  1.
         -2    1    1    2    0  502 -0.86657562284E+01 -0.25546297713E+02 -0.38157720380E+03  0.38252956894E+03  0.00000000000E+00 0.  1.
</event>
<event>
 4    1  0.6145708E+003  0.2371535E+02  0.7546771E-02  0.1483706E+00
          2   -1    0    0  501    0  0.00000000000E+00  0.00000000000E+00  0.20880918149E+02  0.20880918149E+02  0.00000000000E+00 0. -1.
         -2   -1    0    0    0  501 -0.00000000000E+00 -0.00000000000E+00 -0.12283431722E+03  0.12283431722E+03  0.00000000000E+00 0. -1.
          2    1    1    2  502    0 -0.21493394892E+02 -0.10022573502E+02  0.12515701014E+02  0.26815308603E+02  0.00000000000E+00 0. -1.
         -2    1    1    2    0  502  0.21493394892E+02  0.10022573502E+02 -0.11446910008E+03  0.11689992676E+03  0.00000000000E+00 0. -1.
</event>
<event>
 4    1  0.6145708E+003  0.2344912E+02  0.7546771E-02  0.1486934E+00
          2   -1    0    0  501    0  0.00000000000E+00  0.00000000000E+00  0.10776509395E+04  0.10776509395E+04  0.00000000000E+00 0. -1.
         -2   -1    0    0    0  501 -0.00000000000E+00 -0.00000000000E+00 -0.13102522633E+02  0.13102522633E+02  0.00000000000E+00 0. -1.
          2    1    1    2  502    0 -0.19560262563E+02 -0.12932795003E+02  0.10669264223E+04  0.10671840758E+04  0.00000000000E+00 0. -1.
         -2    1    1    2    0  502  0.19560262563E+02  0.12932795003E+02 -0.23780055056E+01  0.23569386252E+02  0.00000000000E+00 0. -1.
</event>
<event>
 4    1  0.6145708E+003  0.2548114E+02  0.7546771E-02  0.1463492E+00
          2   -1    0    0  501    0  0.00000000000E+00  0.00000000000E+00  0.18915973814E+03  0.18915973814E+03  0.00000000000E+00 0. -1.
         -2   -1    0    0    0  501 -0.00000000000E+00 -0.00000000000E+00 -0.34140970051E+03  0.34140970051E+03  0.00000000000E+00 0. -1.
          2    1    1    2  502    0  0.25407752040E+02 -0.19325200951E+01  0.18782280062E+03  0.18954338007E+03  0.00000000000E+00 0. -1.
         -2    1    1    2    0  502 -0.25407752040E+02  0.19325200951E+01 -0.34007276299E+03  0.34102605857E+03  0.00000000000E+00 0. -1.
</event>
<event>
 4    1  0.6145708E+003  0.2231170E+02  0.7546771E-02  0.1501327E+00
          2   -1    0    0  501    0  0.00000000000E+00  0.00000000000E+00  0.61746901325E+02  0.61746901325E+02  0.00000000000E+00 0. -1.
         -2   -1    0    0    0  501 -0.00000000000E+00 -0.00000000000E+00 -0.47263273925E+02  0.47263273925E+02  0.00000000000E+00 0.  1.
          2    1    1    2  502    0 -0.21914072109E+02  0.41935108821E+01  0.56880978140E+02  0.61100390867E+02  0.00000000000E+00 0. -1.
         -2    1    1    2    0  502  0.21914072109E+02 -0.41935108821E+01 -0.42397350740E+02  0.47909784383E+02  0.00000000000E+00 0.  1.
</event>
<event>
 4    1  0.6145708E+003  0.2408501E+02  0.7546771E-02  0.1479305E+00
          2   -1    0    0  501    0  0.00000000000E+00  0.00000000000E+00  0.56442478102E+02  0.56442478102E+02  0.00000000000E+00 0.  1.
         -2   -1    0    0    0  501 -0.00000000000E+00 -0.00000000000E+00 -0.22362402229E+02  0.22362402229E+02  0.00000000000E+00 0.  1.
          2    1    1    2  502    0 -0.79080398335E+01 -0.22749742012E+02  0.46005827423E+02  0.51929028611E+02  0.00000000000E+00 0.  1.
         -2    1    1    2    0  502  0.79080398335E+01  0.22749742012E+02 -0.11925751550E+02  0.26875851720E+02  0.00000000000E+00 0.  1.
</event>
<event>
 4    1  0.6145708E+003  0.3732804E+02  0.7546771E-02  0.1364897E+00
          2   -1    0    0  501    0  0.00000000000E+00  0.00000000000E+00  0.52036070216E+03  0.52036070216E+03  0.00000000000E+00 0.  1.
         -2   -1    0    0    0  501 -0.00000000000E+00 -0.00000000000E+00 -0.13968855326E+02  0.13968855326E+02  0.00000000000E+00 0.  1.
          2    1    1    2  502    0  0.10363708371E+02  0.35860508575E+02  0.49339288853E+03  0.49480291529E+03  0.00000000000E+00 0.  1.
         -2    1    1    2    0  502 -0.10363708371E+02 -0.35860508575E+02  0.12998958304E+02  0.39526642198E+02  0.00000000000E+00 0.  1.
</event>
<event>
 4    1  0.6145708E+003  0.3859428E+02  0.7546771E-02  0.1356926E+00
          2   -1    0    0  501    0  0.00000000000E+00  0.00000000000E+00  0.92205577606E+01  0.92205577606E+01  0.00000000000E+00 0.  1.
         -2   -1    0    0    0  501 -0.00000000000E+00 -0.00000000000E+00 -0.53476159136E+03  0.53476159136E+03  0.00000000000E+00 0.  1.
          2    1    1    2  502    0 -0.37131091198E+02  0.10526170945E+02 -0.35545533521E+02  0.52469068618E+02  0.00000000000E+00 0.  1.
         -2    1    1    2    0  502  0.37131091198E+02 -0.10526170945E+02 -0.48999550008E+03  0.49151308050E+03  0.00000000000E+00 0.  1.
</event>
<event>
 4    1  0.6145708E+003  0.2447378E+02  0.7546771E-02  0.1474777E+00
          2   -1    0    0  501    0  0.00000000000E+00  0.00000000000E+00  0.45280084225E+03  0.45280084225E+03  0.00000000000E+00 0. -1.
         -2   -1    0    0    0  501 -0.00000000000E+00 -0.00000000000E+00 -0.40216685370E+01  0.40216685370E+01  0.00000000000E+00 0.  1.
          2    1    1    2  502    0 -0.24415376421E+02 -0.16897134743E+01  0.41150307291E+03  0.41223020844E+03  0.00000000000E+00 0. -1.
         -2    1    1    2    0  502  0.24415376421E+02  0.16897134743E+01  0.37276100805E+02  0.44592302347E+02  0.00000000000E+00 0.  1.
</event>
<event>
 4    1  0.6145708E+003  0.2469517E+02  0.7546771E-02  0.1472242E+00
          2   -1    0    0  501    0  0.00000000000E+00  0.00000000000E+00  0.22551347816E+03  0.22551347816E+03  0.00000000000E+00 0. -1.
         -2   -1    0    0    0  501 -0.00000000000E+00 -0.00000000000E+00 -0.19693240894E+02  0.19693240894E+02  0.00000000000E+00 0.  1.
          2    1    1    2  502    0  0.22707374572E+02 -0.97070486507E+01  0.21678480102E+03  0.21818685022E+03  0.00000000000E+00 0. -1.
         -2    1    1    2    0  502 -0.22707374572E+02  0.97070486507E+01 -0.10964563757E+02  0.27019868835E+02  0.00000000000E+00 0.  1.
</event>
<event>
 4    1  0.6145708E+003  0.2162114E+02  0.7546771E-02  0.1510578E+00
          2   -1    0    0  501    0  0.00000000000E+00  0.00000000000E+00  0.15537166325E+03  0.15537166325E+03  0.00000000000E+00 0.  1.
         -2   -1    0    0    0  501 -0.00000000000E+00 -0.00000000000E+00 -0.48424054750E+01  0.48424054750E+01  0.00000000000E+00 0. -1.
          2    1    1    2  502    0 -0.11748850290E+02 -0.18150430575E+02  0.12455925961E+03  0.12642184450E+03  0.00000000000E+00 0.  1.
         -2    1    1    2    0  502  0.11748850290E+02  0.18150430575E+02  0.25969998170E+02  0.33792224226E+02  0.00000000000E+00 0. -1.
</event>
<event>
 4    1  0.6145708E+003  0.2094790E+02  0.7546771E-02  0.1520010E+00
          2   -1    0    0  501    0  0.00000000000E+00  0.00000000000E+00  0.19126735505E+03  0.19126735505E+03  0.00000000000E+00 0. -1.
         -2   -1    0    0    0  501 -0.00000000000E+00 -0.00000000000E+00 -0.77469896153E+01  0.77469896153E+01  0.00000000000E+00 0. -1.
          2    1    1    2  502    0  0.20543905705E+02 -0.40942222754E+01  0.17524266686E+03  0.17649024621E+03  0.00000000000E+00 0. -1.
         -2    1    1    2    0  502 -0.20543905705E+02  0.40942222754E+01  0.82776985725E+01  0.22524098457E+02  0.00000000000E+00 0. -1.
</event>
<event>
 4    1  0.6145708E+003  0.2584899E+02  0.7546771E-02  0.1459526E+00
          2   -1    0    0  501    0  0.00000000000E+00  0.00000000000E+00  0.18659235994E+04  0.18659235994E+04  0.00000000000E+00 0. -1.
         -2   -1    0    0    0  501 -0.00000000000E+00 -0.00000000000E+00 -0.22842262691E+02  0.22842262691E+02  0.00000000000E+00 0.  1.
          2    1    1    2  502    0 -0.21696861145E+02  0.14050498983E+02  0.18584919623E+04  0.18586717151E+04  0.00000000000E+00 0. -1.
         -2    1    1    2    0  502  0.21696861145E+02 -0.14050498983E+02 -0.15410625605E+02  0.30094147051E+02  0.00000000000E+00 0.  1.
</event>
<event>
 4    1  0.6145708E+003  0.2208540E+02  0.7546771E-02  0.1504314E+00
          2   -1    0    0  501    0  0.00000000000E+00  0.00000000000E+00  0.15176640317E+01  0.15176640317E+01  0.00000000000E+00 0.  1.
         -2   -1    0    0    0  501 -0.00000000000E+00 -0.00000000000E+00 -0.54696366554E+03  0.54696366554E+03  0.00000000000E+00 0.  1.
          2    1    1    2  502    0 -0.21397112215E+02 -0.54706881481E+01 -0.96608531315E+02  0.99100823220E+02  0.00000000000E+00 0.  1.
         -2    1    1    2    0  502  0.21397112215E+02  0.54706881481E+01 -0.44883747020E+03  0.44938050636E+03  0.00000000000E+00 0.  1.
</event>
<event>
 4    1  0.6145708E+003  0.2460920E+02  0.7546771E-02  0.1473223E+00
          2   -1    0    0  501    0  0.00000000000E+00  0.00000000000E+00  0.67273258487E+03  0.67273258487E+03  0.00000000000E+00 0.  1.
         -2   -1    0    0    0  501 -0.00000000000E+00 -0.00000000000E+00 -0.84144974175E+01  0.84144974175E+01  0.00000000000E+00 0.  1.
          2    1    1    2  502    0  0.24609196198E+02  0.21806865464E-02  0.65399917934E+03  0.65446202267E+03  0.00000000000E+00 0.  1.
         -2    1    1    2    0  502 -0.24609196198E+02 -0.21806865464E-02  0.10318908118E+02  0.26685059621E+02  0.00000000000E+00 0.  1.
</event>
<event>
 4    1  0.6145708E+003  0.2065962E+02  0.7546771E-02  0.1524180E+00
          2   -1    0    0  501    0  0.00000000000E+00  0.00000000000E+00  0.14424224963E+04  0.14424224963E+04  0.00000000000E+00 0.  1.
         -2   -1    0    0    0  501 -0.00000000000E+00 -0.00000000000E+00 -0.62061306315E+00  0.62061306315E+00  0.00000000000E+00 0. -1.
          2    1    1    2  502    0 -0.29067089752E+01 -0.20454119346E+02  0.12427986910E+04  0.12429703964E+04  0.00000000000E+00 0.  1.
         -2    1    1    2    0  502  0.29067089752E+01  0.20454119346E+02  0.19900319225E+03  0.20007271299E+03  0.00000000000E+00 0. -1.
</event>
<event>
 4    1  0.6145708E+003  0.2073901E+02  0.7546771E-02  0.1523024E+00
          2   -1    0    0  501    0  0.00000000000E+00  0.00000000000E+00  0.16573745249E+03  0.16573745249E+03  0.00000000000E+00 0. -1.
         -2   -1    0    0    0  501 -0.00000000000E+00 -0.00000000000E+00 -0.50058836363E+01  0.50058836363E+01  0.00000000000E+00 0.  1.
          2    1    1    2  502    0  0.20335651643E+02 -0.40703391839E+01  0.13961081087E+03  0.14114278197E+03  0.00000000000E+00 0. -1.
         -2    1    1    2    0  502 -0.20335651643E+02  0.40703391839E+01  0.21120757978E+02  0.29600554157E+02  0.00000000000E+00 0.  1.
</event>
<event>
 4    1  0.6145708E+003  0.2648519E+02  0.7546771E-02  0.1452849E+00
          2   -1    0    0  501    0  0.00000000000E+00  0.00000000000E+00  0.10687841241E+04  0.10687841241E+04  0.00000000000E+00 0. -1.
         -2   -1    0    0    0  501 -0.00000000000E+00 -0.00000000000E+00 -0.14936074237E+01  0.14936074237E+01  0.00000000000E+00 0. -1.
          2    1    1    2  502    0  0.25831381268E+02  0.58484948165E+01  0.93431390881E+03  0.93468922394E+03  0.00000000000E+00 0. -1.
         -2    1    1    2    0  502 -0.25831381268E+02 -0.58484948165E+01  0.13297660788E+03  0.13558850760E+03  0.00000000000E+00 0. -1.
</event>
<event>
 4    1  0.6145708E+003  0.4311632E+02  0.7546771E-02  0.1331132E+00
          2   -1    0    0  501    0  0.00000000000E+00  0.00000000000E+00  0.12111836845E+03  0.12111836845E+03  0.00000000000E+00 0.  1.
         -2   -1    0    0    0  501 -0.00000000000E+00 -0.00000000000E+00 -0.26146099390E+03  0.26146099390E+03  0.00000000000E+00 0.  1.
          2    1    1    2  502    0  0.32924447918E+02 -0.27838780709E+02  0.11541873742E+03  0.12320917957E+03  0.00000000000E+00 0.  1.
         -2    1    1    2    0  502 -0.32924447918E+02  0.27838780709E+02 -0.25576136287E+03  0.25937018278E+03  0.00000000000E+00 0.  1.
</event>
<event>
 4    1  0.6145708E+003  0.2238049E+02  0.7546771E-02  0.1500427E+00
          2   -1    0    0  501    0  0.00000000000E+00  0.00000000000E+00  0.17187544412E+03  0.17187544412E+03  0.00000000000E+00 0. -1.
         -2   -1    0    0    0  501 -0.00000000000E+00 -0.00000000000E+00 -0.65898233908E+01  0.65898233908E+01  0.00000000000E+00 0.  1.
          2    1    1    2  502    0  0.20621220330E+02 -0.86977953219E+01  0.14928510426E+03  0.15095339919E+03  0.00000000000E+00 0. -1.
         -2    1    1    2    0  502 -0.20621220330E+02  0.86977953219E+01  0.16000516462E+02  0.27511868320E+02  0.00000000000E+00 0.  1.
</event>
<event>
 4    1  0.6145708E+003  0.2995281E+02  0.7546771E-02  0.1420007E+00
          2   -1    0    0  501    0  0.00000000000E+00  0.00000000000E+00  0.18600081890E+01  0.18600081890E+01  0.00000000000E+00 0.  1.
         -2   -1    0    0    0  501 -0.00000000000E+00 -0.00000000000E+00 -0.51082958791E+03  0.51082958791E+03  0.00000000000E+00 0.  1.
          2    1    1    2  502    0  0.20168235847E+02  0.22145269637E+02 -0.19395478067E+03  0.19625398760E+03  0.00000000000E+00 0.  1.
         -2    1    1    2    0  502 -0.20168235847E+02 -0.22145269637E+02 -0.31501479905E+03  0.31643560849E+03  0.00000000000E+00 0.  1.
</event>
<event>
 4    1  0.6145708E+003  0.1032672E+03  0.7546771E-02  0.1158264E+00
          2   -1    0    0  501    0  0.00000000000E+00  0.00000000000E+00  0.22135702544E+04  0.22135702544E+04  0.00000000000E+00 0.  1.
         -2   -1    0    0    0  501 -0.00000000000E+00 -0.00000000000E+00 -0.48795481871E+01  0.48795481871E+01  0.00000000000E+00 0. -1.
          2    1    1    2  502    0  0.92484497208E+02 -0.45942766613E+02  0.12293154609E+04  0.12336452580E+04  0.00000000000E+00 0.  1.
         -2    1    1    2    0  502 -0.92484497208E+02  0.45942766613E+02  0.97937524532E+03  0.98480454465E+03  0.00000000000E+00 0. -1.
</event>
<event>
 4    1  0.6145708E+003  0.2077825E+02  0.7546771E-02  0.1522455E+00
          2   -1    0    0  501    0  0.00000000000E+00  0.00000000000E+00  0.88374380459E+03  0.88374380459E+03  0.00000000000E+00 0. -1.
         -2   -1    0    0    0  501 -0.00000000000E+00 -0.00000000000E+00 -0.37160322492E+01  0.37160322492E+01  0.00000000000E+00 0. -1.
          2    1    1    2  502    0 -0.14661415994E+02 -0.14723401091E+02  0.85354884471E+03  0.85380171350E+03  0.00000000000E+00 0. -1.
         -2    1    1    2    0  502  0.14661415994E+02  0.14723401091E+02  0.26478927629E+02  0.33658123344E+02  0.00000000000E+00 0. -1.
</event>
<event>
 4    1  0.6145708E+003  0.2154042E+02  0.7546771E-02  0.1511687E+00
          2   -1    0    0  501    0  0.00000000000E+00  0.00000000000E+00  0.11555099656E+04  0.11555099656E+04  0.00000000000E+00 0. -1.
         -2   -1    0    0    0  501 -0.00000000000E+00 -0.00000000000E+00 -0.19546076125E+01  0.19546076125E+01  0.00000000000E+00 0.  1.
          2    1    1    2  502    0 -0.93697557552E+01  0.19395807493E+02  0.10926501468E+04  0.10928624493E+04  0.00000000000E+00 0. -1.
         -2    1    1    2    0  502  0.93697557552E+01 -0.19395807493E+02  0.60905211206E+02  0.64602123984E+02  0.00000000000E+00 0.  1.
</event>
<event>
 4    1  0.6145708E+003  0.2443740E+02  0.7546771E-02  0.1475197E+00
          2   -1    0    0  501    0  0.00000000000E+00  0.00000000000E+00  0.85687812968E+03  0.85687812968E+03  0.00000000000E+00 0.  1.
         -2   -1    0    0    0  501 -0.00000000000E+00 -0.00000000000E+00 -0.74093307532E+00  0.74093307532E+00  0.00000000000E+00 0.  1.
          2    1    1    2  502    0  0.14343869708E+02  0.19784840930E+02  0.53256523712E+03  0.53312561214E+03  0.00000000000E+00 0.  1.
         -2    1    1    2    0  502 -0.14343869708E+02 -0.19784840930E+02  0.32357195949E+03  0.32449345062E+03  0.00000000000E+00 0.  1.
</event>
<event>
 4    1  0.6145708E+003  0.3571064E+02  0.7546771E-02  0.1375635E+00
          2   -1    0    0  501    0  0.00000000000E+00  0.00000000000E+00  0.91371931240E+03  0.91371931240E+03  0.00000000000E+00 0. -1.
         -2   -1    0    0    0  501 -0.00000000000E+00 -0.00000000000E+00 -0.39330410958E+01  0.39330410958E+01  0.00000000000E+00 0.  1.
          2    1    1    2  502    0 -0.12985999211E+02 -0.33265803557E+02  0.82342582069E+03  0.82419981318E+03  0.00000000000E+00 0. -1.
         -2    1    1    2    0  502  0.12985999211E+02  0.33265803557E+02  0.86360450615E+02  0.93452540320E+02  0.00000000000E+00 0.  1.
</event>
<event>
 4    1  0.6145708E+003  0.2320510E+02  0.7546771E-02  0.1489939E+00
          2   -1    0    0  501    0  0.00000000000E+00  0.00000000000E+00  0.38957007231E+03  0.38957007231E+03  0.00000000000E+00 0. -1.
         -2   -1    0    0    0  501 -0.00000000000E+00 -0.00000000000E+00 -0.10374161523E+03  0.10374161523E+03  0.00000000000E+00 0.  1.
          2    1    1    2  502    0  0.22013522571E+02  0.73404120844E+01  0.38792136435E+03  0.38861479867E+03  0.00000000000E+00 0. -1.
         -2    1    1    2    0  502 -0.22013522571E+02 -0.73404120844E+01 -0.10209290727E+03  0.10469688888E+03  0.00000000000E+00 0.  1.
</event>
<event>
 4    1  0.6145708E+003  0.2921732E+02  0.7546771E-02  0.1426522E+00
          2   -1    0    0  501    0  0.00000000000E+00  0.00000000000E+00  0.22262702300E+03  0.22262702300E+03  0.00000000000E+00 0.  1.
         -2   -1    0    0    0  501 -0.00000000000E+00 -0.00000000000E+00 -0.12030590208E+02  0.12030590208E+02  0.00000000000E+00 0. -1.
          2    1    1    2  502    0  0.17789135757E+02  0.23177545050E+02  0.20214069689E+03  0.20424131141E+03  0.00000000000E+00 0.  1.
         -2    1    1    2    0  502 -0.17789135757E+02 -0.23177545050E+02  0.84557358995E+01  0.30416301800E+02  0.00000000000E+00 0. -1.
</event>
<event>
 4    1  0.6145708E+003  0.2740790E+02  0.7546771E-02  0.1443553E+00
          2   -1    0    0  501    0  0.00000000000E+00  0.00000000000E+00  0.47536810093E+03  0.47536810093E+03  0.00000000000E+00 0.  1.
         -2   -1    0    0    0  501 -0.00000000000E+00 -0.00000000000E+00 -0.10128391325E+02  0.10128391325E+02  0.00000000000E+00 0. -1.
          2    1    1    2  502    0 -0.23732736269E+02  0.13709490698E+02  0.45562871294E+03  0.45645231619E+03  0.00000000000E+00 0.  1.
         -2    1    1    2    0  502  0.23732736269E+02 -0.13709490698E+02  0.96109966654E+01  0.29044176059E+02  0.00000000000E+00 0. -1.
</event>
<event>
 4    1  0.6145708E+003  0.2229980E+02  0.7546771E-02  0.1501483E+00
          2   -1    0    0  501    0  0.00000000000E+00  0.00000000000E+00  0.48356796023E+01  0.48356796023E+01  0.00000000000E+00 0. -1.
         -2   -1    0    0    0  501 -0.00000000000E+00 -0.00000000000E+00 -0.86238086888E+03  0.86238086888E+03  0.00000000000E+00 0.  1.
          2    1    1    2  502    0  0.12245972116E+02  0.18636445032E+02 -0.21837840487E+02  0.31211731667E+02  0.00000000000E+00 0. -1.
         -2    1    1    2    0  502 -0.12245972116E+02 -0.18636445032E+02 -0.83570734879E+03  0.83600481681E+03  0.00000000000E+00 0.  1.
</event>
<event>
 4    1  0.6145708E+003  0.2448758E+02  0.7546771E-02  0.1474618E+00
          2   -1    0    0  501    0  0.00000000000E+00  0.00000000000E+00  0.21841401714E+03  0.21841401714E+03  0.00000000000E+00 0.  1.
         -2   -1    0    0    0  501 -0.00000000000E+00 -0.00000000000E+00 -0.11271077680E+03  0.11271077680E+03  0.00000000000E+00 0. -1.
          2    1    1    2  502    0  0.24483144014E+02 -0.46582143950E+00  0.21638518335E+03  0.21776636311E+03  0.00000000000E+00 0.  1.
         -2    1    1    2    0  502 -0.24483144014E+02  0.46582143950E+00 -0.11068194301E+03  0.11335843083E+03  0.00000000000E+00 0. -1.
</event>
<event>
 4    1  0.6145708E+003  0.2226994E+02  0.7546771E-02  0.1501875E+00
          2   -1    0    0  501    0  0.00000000000E+00  0.00000000000E+00  0.13090254323E+01  0.13090254323E+01  0.00000000000E+00 0. -1.
         -2   -1    0    0    0  501 -0.00000000000E+00 -0.00000000000E+00 -0.79588071495E+03  0.79588071495E+03  0.00000000000E+00 0. -1.
          2    1    1    2  502    0 -0.50440451591E+01 -0.21691193883E+02 -0.10876221054E+03  0.11101877645E+03  0.00000000000E+00 0. -1.
         -2    1    1    2    0  502  0.50440451591E+01  0.21691193883E+02 -0.68580947898E+03  0.68617096393E+03  0.00000000000E+00 0. -1.
</event>
<event>
 4    1  0.6145708E+003  0.3155884E+02  0.7546771E-02  0.1406517E+00
          2   -1    0    0  501    0  0.00000000000E+00  0.00000000000E+00  0.13089143967E+04  0.13089143967E+04  0.00000000000E+00 0.  1.
         -2   -1    0    0    0  501 -0.00000000000E+00 -0.00000000000E+00 -0.11374132981E+02  0.11374132981E+02  0.00000000000E+00 0.  1.
          2    1    1    2  502    0  0.27894629990E+02  0.14759747128E+02  0.12864510696E+04  0.12868381075E+04  0.00000000000E+00 0.  1.
         -2    1    1    2    0  502 -0.27894629990E+02 -0.14759747128E+02  0.11089194159E+02  0.33450422189E+02  0.00000000000E+00 0.  1.
</event>
<event>
 4    1  0.6145708E+003  0.2215506E+02  0.7546771E-02  0.1503390E+00
          2   -1    0    0  501    0  0.00000000000E+00  0.00000000000E+00  0.56211501342E+03  0.56211501342E+03  0.00000000000E+00 0. -1.
         -2   -1    0    0    0  501 -0.00000000000E+00 -0.00000000000E+00 -0.11689663520E+01  0.11689663520E+01  0.00000000000E+00 0.  1.
          2    1    1    2  502    0  0.20384449907E+02 -0.86787525829E+01  0.42213741642E+03  0.42271839904E+03  0.00000000000E+00 0. -1.
         -2    1    1    2    0  502 -0.20384449907E+02  0.86787525829E+01  0.13880863065E+03  0.14056558074E+03  0.00000000000E+00 0.  1.
</event>
<event>
 4    1  0.6145708E+003  0.3499816E+02  0.7546771E-02  0.1380576E+00
          2   -1    0    0  501    0  0.00000000000E+00  0.00000000000E+00  0.86606158505E+02  0.86606158505E+02  0.00000000000E+00 0.  1.
         -2   -1    0    0    0  501 -0.00000000000E+00 -0.00000000000E+00 -0.15665789733E+02  0.15665789733E+02  0.00000000000E+00 0. -1.
          2    1    1    2  502    0 -0.10471906870E+02  0.33394770237E+02  0.51413158748E+02  0.62194729722E+02  0.00000000000E+00 0.  1.
         -2    1    1    2    0  502  0.10471906870E+02 -0.33394770237E+02  0.19527210024E+02  0.40077218516E+02  0.00000000000E+00 0. -1.
</event>
<event>
 4    1  0.6145708E+003  0.2022323E+02  0.7546771E-02  0.1530650E+00
          2   -1    0    0  501    0  0.00000000000E+00  0.00000000000E+00  0.61594489582E+03  0.61594489582E+03  0.00000000000E+00 0.  1.
         -2   -1    0    0    0  501 -0.00000000000E+00 -0.00000000000E+00 -0.34544814839E+01  0.34544814839E+01  0.00000000000E+00 0.  1.
          2    1    1    2  502    0 -0.19735660144E+01  0.20126702629E+02  0.58459439212E+03  0.58494408487E+03  0.00000000000E+00 0.  1.
         -2    1    1    2    0  502  0.19735660144E+01 -0.20126702629E+02  0.27896022219E+02  0.34455292441E+02  0.00000000000E+00 0.  1.
</event>
<event>
 4    1  0.6145708E+003  0.4340075E+02  0.7546771E-02  0.1329633E+00
          2   -1    0    0  501    0  0.00000000000E+00  0.00000000000E+00  0.15403871064E+03  0.15403871064E+03  0.00000000000E+00 0. -1.
         -2   -1    0    0    0  501 -0.00000000000E+00 -0.00000000000E+00 -0.12729133230E+02  0.12729133230E+02  0.00000000000E+00 0. -1.
          2    1    1    2  502    0 -0.39576718368E+00  0.43398943131E+02  0.87195273709E+02  0.97399387338E+02  0.00000000000E+00 0. -1.
         -2    1    1    2    0  502  0.39576718368E+00 -0.43398943131E+02  0.54114303699E+02  0.69368456530E+02  0.00000000000E+00 0. -1.
</event>
<event>
 4    1  0.6145708E+003  0.2080968E+02  0.7546771E-02  0.1522000E+00
          2   -1    0    0  501    0  0.00000000000E+00  0.00000000000E+00  0.32384054933E+03  0.32384054933E+03  0.00000000000E+00 0. -1.
         -2   -1    0    0    0  501 -0.00000000000E+00 -0.00000000000E+00 -0.46298545232E+01  0.46298545232E+01  0.00000000000E+00 0.  1.
          2    1    1    2  502    0  0.16840733579E+02  0.12224250335E+02  0.29810702815E+03  0.29883246617E+03  0.00000000000E+00 0. -1.
         -2    1    1    2    0  502 -0.16840733579E+02 -0.12224250335E+02  0.21103666651E+02  0.29637937679E+02  0.00000000000E+00 0.  1.
</event>
<event>
 4    1  0.6145708E+003  0.2385573E+02  0.7546771E-02  0.1482023E+00
          2   -1    0    0  501    0  0.00000000000E+00  0.00000000000E+00  0.26796874491E+03  0.26796874491E+03  0.00000000000E+00 0. -1.
         -2   -1    0    0    0  501 -0.00000000000E+00 -0.00000000000E+00 -0.21674375925E+01  0.21674375925E+01  0.00000000000E+00 0.  1.
          2    1    1    2  502    0 -0.22033715844E+02  0.91439095014E+01  0.15207905640E+03  0.15393873817E+03  0.00000000000E+00 0. -1.
         -2    1    1    2    0  502  0.22033715844E+02 -0.91439095014E+01  0.11372225092E+03  0.11619744433E+03  0.00000000000E+00 0.  1.
</event>
<event>
 4    1  0.6145708E+003  0.2930645E+02  0.7546771E-02  0.1425721E+00
          2   -1    0    0  501    0  0.00000000000E+00  0.00000000000E+00  0.10568296568E+04  0.10568296568E+04  0.00000000000E+00 0.  1.
         -2   -1    0    0    0  501 -0.00000000000E+00 -0.00000000000E+00 -0.25230518834E+01  0.25230518834E+01  0.00000000000E+00 0.  1.
          2    1    1    2  502    0 -0.43651248384E+01  0.28979539089E+02  0.96325956965E+03  0.96370527991E+03  0.00000000000E+00 0.  1.
         -2    1    1    2    0  502  0.43651248384E+01 -0.28979539089E+02  0.91047035287E+02  0.95647428795E+02  0.00000000000E+00 0.  1.
</event>
<event>
 4    1  0.6145708E+003  0.2938362E+02  0.7546771E-02  0.1425029E+00
          2   -1    0    0  501    0  0.00000000000E+00  0.00000000000E+00  0.10566767485E+02  0.10566767485E+02  0.00000000000E+00 0. -1.
         -2   -1    0    0    0  501 -0.00000000000E+00 -0.00000000000E+00 -0.13799196859E+03  0.13799196859E+03  0.00000000000E+00 0.  1.
          2    1    1    2  502    0 -0.39077727418E+01  0.29122609010E+02 -0.16274108660E+02  0.33589338428E+02  0.00000000000E+00 0. -1.
         -2    1    1    2    0  502  0.39077727418E+01 -0.29122609010E+02 -0.11115109245E+03  0.11496939765E+03  0.00000000000E+00 0.  1.
</event>
<event>
 4    1  0.6145708E+003  0.2253167E+02  0.7546771E-02  0.1498464E+00
          2   -1    0    0  501    0  0.00000000000E+00  0.00000000000E+00  0.11043751465E+03  0.11043751465E+03  0.00000000000E+00 0. -1.
         -2   -1    0    0    0  501 -0.00000000000E+00 -0.00000000000E+00 -0.47398325132E+02  0.47398325132E+02  0.00000000000E+00 0. -1.
          2    1    1    2  502    0  0.13794662834E+02 -0.17815252518E+02  0.10651298430E+03  0.10887006829E+03  0.00000000000E+00 0. -1.
         -2    1    1    2    0  502 -0.13794662834E+02  0.17815252518E+02 -0.43473794782E+02  0.48965771492E+02  0.00000000000E+00 0. -1.
</event>
<event>
 4    1  0.6145708E+003  0.2117714E+02  0.7546771E-02  0.1516751E+00
          2   -1    0    0  501    0  0.00000000000E+00  0.00000000000E+00  0.19339577740E+03  0.19339577740E+03  0.00000000000E+00 0.  1.
         -2   -1    0    0    0  501 -0.00000000000E+00 -0.00000000000E+00 -0.62734180988E+01  0.62734180988E+01  0.00000000000E+00 0.  1.
          2    1    1    2  502    0  0.12579334174E+02  0.17036183079E+02  0.17282483884E+03  0.17411747788E+03  0.00000000000E+00 0.  1.
         -2    1    1    2    0  502 -0.12579334174E+02 -0.17036183079E+02  0.14297520464E+02  0.25551717625E+02  0.00000000000E+00 0.  1.
</event>
<event>
 4    1  0.6145708E+003  0.7502113E+02  0.7546771E-02  0.1215903E+00
          2   -1    0    0  501    0  0.00000000000E+00  0.00000000000E+00  0.32291300818E+04  0.32291300818E+04  0.00000000000E+00 0. -1.
         -2   -1    0    0    0  501 -0.00000000000E+00 -0.00000000000E+00 -0.55983849372E+02  0.55983849372E+02  0.00000000000E+00 0.  1.
          2    1    1    2  502    0  0.38940895665E+02  0.64123135972E+02  0.32033591741E+04  0.32042375330E+04  0.00000000000E+00 0. -1.
         -2    1    1    2    0  502 -0.38940895665E+02 -0.64123135972E+02 -0.30212941700E+02  0.80876398092E+02  0.00000000000E+00 0.  1.
</event>
<event>
 4    1  0.6145708E+003  0.3883771E+02  0.7546771E-02  0.1355435E+00
          2   -1    0    0  501    0  0.00000000000E+00  0.00000000000E+00  0.20011168612E+02  0.20011168612E+02  0.00000000000E+00 0.  1.
         -2   -1    0    0    0  501 -0.00000000000E+00 -0.00000000000E+00 -0.10580997425E+04  0.10580997425E+04  0.00000000000E+00 0.  1.
          2    1    1    2  502    0  0.39945978694E+01  0.38631732489E+02  0.45601286103E+00  0.38840385103E+02  0.00000000000E+00 0.  1.
         -2    1    1    2    0  502 -0.39945978694E+01 -0.38631732489E+02 -0.10385445868E+04  0.10392705260E+04  0.00000000000E+00 0.  1.
</event>
<event>
 4    1  0.6145708E+003  0.3996722E+02  0.7546771E-02  0.1348678E+00
          2   -1    0    0  501    0  0.00000000000E+00  0.00000000000E+00  0.59911650847E+03  0.59911650847E+03  0.00000000000E+00 0.  1.
         -2   -1    0    0    0  501 -0.00000000000E+00 -0.00000000000E+00 -0.29201952976E+01  0.29201952976E+01  0.00000000000E+00 0.  1.
          2    1    1    2  502    0 -0.37022825161E+02 -0.15056206583E+02  0.38687080246E+03  0.38892980952E+03  0.00000000000E+00 0.  1.
         -2    1    1    2    0  502  0.37022825161E+02  0.15056206583E+02  0.20932551072E+03  0.21310689425E+03  0.00000000000E+00 0.  1.
</event>
<event>
 4    1  0.6145708E+003  0.2168620E+02  0.7546771E-02  0.1509689E+00
          2   -1    0    0  501    0  0.00000000000E+00  0.00000000000E+00  0.19629566815E+04  0.19629566815E+04  0.00000000000E+00 0. -1.
         -2   -1    0    0    0  501 -0.00000000000E+00 -0.00000000000E+00 -0.31439875650E+00  0.31439875650E+00  0.00000000000E+00 0.  1.
          2    1    1    2  502    0  0.16360332349E+02 -0.14234850122E+02  0.14601781353E+04  0.14603391655E+04  0.00000000000E+00 0. -1.
         -2    1    1    2    0  502 -0.16360332349E+02  0.14234850122E+02  0.50246414742E+03  0.50293191475E+03  0.00000000000E+00 0.  1.
</event>
<event>
 4    1  0.6145708E+003  0.3031702E+02  0.7546771E-02  0.1416861E+00
          2   -1    0    0  501    0  0.00000000000E+00  0.00000000000E+00  0.13995347195E+04  0.13995347195E+04  0.00000000000E+00 0. -1.
         -2   -1    0    0    0  501 -0.00000000000E+00 -0.00000000000E+00 -0.66970839360E+00  0.66970839360E+00  0.00000000000E+00 0. -1.
          2    1    1    2  502    0  0.19346799117E+02 -0.23341445698E+02  0.79687891348E+03  0.79745540594E+03  0.00000000000E+00 0. -1.
         -2    1    1    2    0  502 -0.19346799117E+02  0.23341445698E+02  0.60198609760E+03  0.60274902192E+03  0.00000000000E+00 0. -1.
</event>
<event>
 4    1  0.6145708E+003  0.2130133E+02  0.7546771E-02  0.1515006E+00
          2   -1    0    0  501    0  0.00000000000E+00  0.00000000000E+00  0.14157360638E+03  0.14157360638E+03  0.00000000000E+00 0.  1.
         -2   -1    0    0    0  501 -0.00000000000E+00 -0.00000000000E+00 -0.32123564337E+01  0.32123564337E+01  0.00000000000E+00 0. -1.
          2    1    1    2  502    0  0.70740696278E+01 -0.20092382618E+02  0.65721116008E+02  0.69086984228E+02  0.00000000000E+00 0. -1.
         -2    1    1    2    0  502 -0.70740696278E+01  0.20092382618E+02  0.72640133935E+02  0.75698978583E+02  0.00000000000E+00 0.  1.
</event>
<event>
 4    1  0.6145708E+003  0.2524520E+02  0.7546771E-02  0.1466079E+00
          2   -1    0    0  501    0  0.00000000000E+00  0.00000000000E+00  0.24256990008E+02  0.24256990008E+02  0.00000000000E+00 0.  1.
         -2   -1    0    0    0  501 -0.00000000000E+00 -0.00000000000E+00 -0.10496224148E+04  0.10496224148E+04  0.00000000000E+00 0.  1.
          2    1    1    2  502    0  0.67954937168E+01 -0.24313399385E+02  0.17494186243E+02  0.30714274806E+02  0.00000000000E+00 0.  1.
         -2    1    1    2    0  502 -0.67954937168E+01  0.24313399385E+02 -0.10428596110E+04  0.10431651300E+04  0.00000000000E+00 0.  1.
</event>
<event>
 4    1  0.6145708E+003  0.2402057E+02  0.7546771E-02  0.1480066E+00
          2   -1    0    0  501    0  0.00000000000E+00  0.00000000000E+00  0.86721926248E+03  0.86721926248E+03  0.00000000000E+00 0. -1.
         -2   -1    0    0    0  501 -0.00000000000E+00 -0.00000000000E+00 -0.42476317449E+01  0.42476317449E+01  0.00000000000E+00 0.  1.
          2    1    1    2  502    0  0.19900766872E+02  0.13451666466E+02  0.83164103948E+03  0.83198786433E+03  0.00000000000E+00 0. -1.
         -2    1    1    2    0  502 -0.19900766872E+02 -0.13451666466E+02  0.31330591261E+02  0.39479029896E+02  0.00000000000E+00 0.  1.
</event>
<event>
 4    1  0.6145708E+003  0.2328949E+02  0.7546771E-02  0.1488895E+00
          2   -1    0    0  501    0  0.00000000000E+00  0.00000000000E+00  0.21632974071E+03  0.21632974071E+03  0.00000000000E+00 0. -1.
         -2   -1    0    0    0  501 -0.00000000000E+00 -0.00000000000E+00 -0.45030205168E+01  0.45030205168E+01  0.00000000000E+00 0. -1.
          2    1    1    2  502    0 -0.22941565370E+02 -0.40106123327E+01  0.17942108436E+03  0.18092629976E+03  0.00000000000E+00 0. -1.
         -2    1    1    2    0  502  0.22941565370E+02  0.40106123327E+01  0.32405635837E+02  0.39906461468E+02  0.00000000000E+00 0. -1.
</event>
<event>
 4    1  0.6145708E+003  0.4815190E+02  0.7546771E-02  0.1306390E+00
          2   -1    0    0  501    0  0.00000000000E+00  0.00000000000E+00  0.17434422170E+02  0.17434422170E+02  0.00000000000E+00 0. -1.
         -2   -1    0    0    0  501 -0.00000000000E+00 -0.00000000000E+00 -0.78062570499E+03  0.78062570499E+03  0.00000000000E+00 0. -1.
          2    1    1    2  502    0  0.11582421063E+02 -0.46738136068E+02 -0.18141563268E+02  0.51456021597E+02  0.00000000000E+00 0. -1.
         -2    1    1    2    0  502 -0.11582421063E+02  0.46738136068E+02 -0.74504971955E+03  0.74660410557E+03  0.00000000000E+00 0. -1.
</event>
<event>
 4    1  0.6145708E+003  0.2556339E+02  0.7546771E-02  0.1462598E+00
          2   -1    0    0  501    0  0.00000000000E+00  0.00000000000E+00  0.11070478975E+04  0.11070478975E+04  0.00000000000E+00 0. -1.
         -2   -1    0    0    0  501 -0.00000000000E+00 -0.00000000000E+00 -0.84222144617E+00  0.84222144617E+00  0.00000000000E+00 0.  1.
          2    1    1    2  502    0 -0.78023585424E+01 -0.24343586572E+02  0.85606524186E+03  0.85644683742E+03  0.00000000000E+00 0. -1.
         -2    1    1    2    0  502  0.78023585424E+01  0.24343586572E+02  0.25014043422E+03  0.25144328156E+03  0.00000000000E+00 0.  1.
</event>
<event>
 4    1  0.6145708E+003  0.2122621E+02  0.7546771E-02  0.1516059E+00
          2   -1    0    0  501    0  0.00000000000E+00  0.00000000000E+00  0.87662700411E+03  0.87662700411E+03  0.00000000000E+00 0.  1.
         -2   -1    0    0    0  501 -0.00000000000E+00 -0.00000000000E+00 -0.79534956642E+00  0.79534956642E+00  0.00000000000E+00 0.  1.
          2    1    1    2  502    0 -0.15634568326E+02  0.14356615134E+02  0.69886316402E+03  0.69918543617E+03  0.00000000000E+00 0.  1.
         -2    1    1    2    0  502  0.15634568326E+02 -0.14356615134E+02  0.17696849052E+03  0.17823691751E+03  0.00000000000E+00 0.  1.
</event>
<event>
 4    1  0.6145708E+003  0.2754806E+02  0.7546771E-02  0.1442179E+00
          2   -1    0    0  501    0  0.00000000000E+00  0.00000000000E+00  0.44903708069E+02  0.44903708069E+02  0.00000000000E+00 0.  1.
         -2   -1    0    0    0  501 -0.00000000000E+00 -0.00000000000E+00 -0.37424124431E+03  0.37424124431E+03  0.00000000000E+00 0.  1.
          2    1    1    2  502    0  0.26480275006E+02 -0.75954252972E+01  0.40116959206E+02  0.48664831919E+02  0.00000000000E+00 0.  1.
         -2    1    1    2    0  502 -0.26480275006E+02  0.75954252972E+01 -0.36945449544E+03  0.37048012045E+03  0.00000000000E+00 0.  1.
</event>
<event>
 4    1  0.6145708E+003  0.2392515E+02  0.7546771E-02  0.1481197E+00
          2   -1    0    0  501    0  0.00000000000E+00  0.00000000000E+00  0.55961529321E+03  0.55961529321E+03  0.00000000000E+00 0.  1.
         -2   -1    0    0    0  501 -0.00000000000E+00 -0.00000000000E+00 -0.14160440291E+01  0.14160440291E+01  0.00000000000E+00 0.  1.
          2    1    1    2  502    0  0.18616365987E+02 -0.15028080903E+02  0.13128665713E+03  0.13344886151E+03  0.00000000000E+00 0.  1.
         -2    1    1    2    0  502 -0.18616365987E+02  0.15028080903E+02  0.42691259204E+03  0.42758247572E+03  0.00000000000E+00 0.  1.
</event>
<event>
 4    1  0.6145708E+003  0.3311226E+02  0.7546771E-02  0.1394343E+00
          2   -1    0    0  501    0  0.00000000000E+00  0.00000000000E+00  0.36425296486E+03  0.36425296486E+03  0.00000000000E+00 0.  1.
         -2   -1    0    0    0  501 -0.00000000000E+00 -0.00000000000E+00 -0.88449748749E+02  0.88449748749E+02  0.00000000000E+00 0. -1.
          2    1    1    2  502    0  0.26823179883E+02  0.19414915758E+02  0.36036811639E+03  0.36188617167E+03  0.00000000000E+00 0.  1.
         -2    1    1    2    0  502 -0.26823179883E+02 -0.19414915758E+02 -0.84564900274E+02  0.90816541948E+02  0.00000000000E+00 0. -1.
</event>
<event>
 4    1  0.6145708E+003  0.3383406E+02  0.7546771E-02  0.1388951E+00
          2   -1    0    0  501    0  0.00000000000E+00  0.00000000000E+00  0.11147875083E+04  0.11147875083E+04  0.00000000000E+00 0. -1.
         -2   -1    0    0    0  501 -0.00000000000E+00 -0.00000000000E+00 -0.15696247681E+02  0.15696247681E+02  0.00000000000E+00 0.  1.
          2    1    1    2  502    0  0.26695428641E+02 -0.20786957522E+02  0.10959853150E+04  0.10965074347E+04  0.00000000000E+00 0. -1.
         -2    1    1    2    0  502 -0.26695428641E+02  0.20786957522E+02  0.31059456090E+01  0.33976321336E+02  0.00000000000E+00 0.  1.
</event>
<event>
 4    1  0.6145708E+003  0.5703065E+02  0.7546771E-02  0.1270269E+00
          2   -1    0    0  501    0  0.00000000000E+00  0.00000000000E+00  0.50903351049E+03  0.50903351049E+03  0.00000000000E+00 0. -1.
         -2   -1    0    0    0  501 -0.00000000000E+00 -0.00000000000E+00 -0.21682331769E+03  0.21682331769E+03  0.00000000000E+00 0. -1.
          2    1    1    2  502    0 -0.56424000804E+02 -0.82962038597E+01  0.50364596771E+03  0.50686463248E+03  0.00000000000E+00 0. -1.
         -2    1    1    2    0  502  0.56424000804E+02  0.82962038597E+01 -0.21143577492E+03  0.21899219571E+03  0.00000000000E+00 0. -1.
</event>
<event>
 4    1  0.6145708E+003  0.2760169E+02  0.7546771E-02  0.1441656E+00
          2   -1    0    0  501    0  0.00000000000E+00  0.00000000000E+00  0.89807079865E+03  0.89807079865E+03  0.00000000000E+00 0. -1.
         -2   -1    0    0    0  501 -0.00000000000E+00 -0.00000000000E+00 -0.22232748271E+01  0.22232748271E+01  0.00000000000E+00 0.  1.
          2    1    1    2  502    0 -0.59358464491E+01 -0.26955867462E+02  0.80192252632E+03  0.80239740234E+03  0.00000000000E+00 0. -1.
         -2    1    1    2    0  502  0.59358464491E+01  0.26955867462E+02  0.93924997505E+02  0.97896671138E+02  0.00000000000E+00 0.  1.
</event>
<event>
 4    1  0.6145708E+003  0.2144895E+02  0.7546771E-02  0.1512951E+00
          2   -1    0    0  501    0  0.00000000000E+00  0.00000000000E+00  0.52330778609E+01  0.52330778609E+01  0.00000000000E+00 0.  1.
         -2   -1    0    0    0  501 -0.00000000000E+00 -0.00000000000E+00 -0.32671596911E+03  0.32671596911E+03  0.00000000000E+00 0. -1.
          2    1    1    2  502    0  0.98801251100E+01  0.19037868979E+02 -0.18843598717E+02  0.28550631168E+02  0.00000000000E+00 0.  1.
         -2    1    1    2    0  502 -0.98801251100E+01 -0.19037868979E+02 -0.30263929253E+03  0.30339841580E+03  0.00000000000E+00 0. -1.
</event>
<event>
 4    1  0.6145708E+003  0.4325720E+02  0.7546771E-02  0.1330388E+00
          2   -1    0    0  501    0  0.00000000000E+00  0.00000000000E+00  0.69922350610E+02  0.69922350610E+02  0.00000000000E+00 0.  1.
         -2   -1    0    0    0  501 -0.00000000000E+00 -0.00000000000E+00 -0.99151536992E+02  0.99151536992E+02  0.00000000000E+00 0.  1.
          2    1    1    2  502    0  0.39976967790E+02 -0.16523534316E+02  0.57618799276E+02  0.72049366201E+02  0.00000000000E+00 0.  1.
         -2    1    1    2    0  502 -0.39976967790E+02  0.16523534316E+02 -0.86847985659E+02  0.97024521400E+02  0.00000000000E+00 0.  1.
</event>
<event>
 4    1  0.6145708E+003  0.3752571E+02  0.7546771E-02  0.1363629E+00
          2   -1    0    0  501    0  0.00000000000E+00  0.00000000000E+00  0.17889166751E+03  0.17889166751E+03  0.00000000000E+00 0. -1.
         -2   -1    0    0    0  501 -0.00000000000E+00 -0.00000000000E+00 -0.13907844319E+02  0.13907844319E+02  0.00000000000E+00 0. -1.
          2    1    1    2  502    0 -0.37055090482E+02  0.59244336852E+01  0.14599961580E+03  0.15074503792E+03  0.00000000000E+00 0. -1.
         -2    1    1    2    0  502  0.37055090482E+02 -0.59244336852E+01  0.18984207391E+02  0.42054473905E+02  0.00000000000E+00 0. -1.
</event>
<event>
 4    1  0.6145708E+003  0.2649148E+02  0.7546771E-02  0.1452784E+00
          2   -1    0    0  501    0  0.00000000000E+00  0.00000000000E+00  0.67453171136E+03  0.67453171136E+03  0.00000000000E+00 0.  1.
         -2   -1    0    0    0  501 -0.00000000000E+00 -0.00000000000E+00 -0.10704044505E+01  0.10704044505E+01  0.00000000000E+00 0.  1.
          2    1    1    2  502    0 -0.12317609705E+02 -0.23453681661E+02  0.39326459070E+03  0.39415585368E+03  0.00000000000E+00 0.  1.
         -2    1    1    2    0  502  0.12317609705E+02  0.23453681661E+02  0.28019671621E+03  0.28144626213E+03  0.00000000000E+00 0.  1.
</event>
<event>
 4    1  0.6145708E+003  0.2366011E+02  0.7546771E-02  0.1484371E+00
          2   -1    0    0  501    0  0.00000000000E+00  0.00000000000E+00  0.27422484028E+03  0.27422484028E+03  0.00000000000E+00 0. -1.
         -2   -1    0    0    0  501 -0.00000000000E+00 -0.00000000000E+00 -0.23582820490E+01  0.23582820490E+01  0.00000000000E+00 0. -1.
          2    1    1    2  502    0 -0.82741711573E+01  0.22166160895E+02  0.18662670041E+03  0.18812050899E+03  0.00000000000E+00 0. -1.
         -2    1    1    2    0  502  0.82741711573E+01 -0.22166160895E+02  0.85239857817E+02  0.88462613333E+02  0.00000000000E+00 0. -1.
</event>
<event>
 4    1  0.6145708E+003  0.2492188E+02  0.7546771E-02  0.1469679E+00
          2   -1    0    0  501    0  0.00000000000E+00  0.00000000000E+00  0.12168567063E+04  0.12168567063E+04  0.00000000000E+00 0. -1.
         -2   -1    0    0    0  501 -0.00000000000E+00 -0.00000000000E+00 -0.21372309423E+01  0.21372309423E+01  0.00000000000E+00 0.  1.
          2    1    1    2  502    0 -0.18081813083E+02  0.17150746313E+02  0.11391192120E+04  0.11393918023E+04  0.00000000000E+00 0. -1.
         -2    1    1    2    0  502  0.18081813083E+02 -0.17150746313E+02  0.75600263385E+02  0.79602134942E+02  0.00000000000E+00 0.  1.
</event>
<event>
 4    1  0.6145708E+003  0.2498737E+02  0.7546771E-02  0.1468945E+00
          2   -1    0    0  501    0  0.00000000000E+00  0.00000000000E+00  0.22407371024E+04  0.22407371024E+04  0.00000000000E+00 0.  1.
         -2   -1    0    0    0  501 -0.00000000000E+00 -0.00000000000E+00 -0.30101067797E+00  0.30101067797E+00  0.00000000000E+00 0.  1.
          2    1    1    2  502    0  0.87742510795E+01  0.23396181723E+02  0.14256576488E+04  0.14258766077E+04  0.00000000000E+00 0.  1.
         -2    1    1    2    0  502 -0.87742510795E+01 -0.23396181723E+02  0.81477844285E+03  0.81516150531E+03  0.00000000000E+00 0.  1.
</event>
<event>
 4    1  0.6145708E+003  0.2022952E+02  0.7546771E-02  0.1530556E+00
          2   -1    0    0  501    0  0.00000000000E+00  0.00000000000E+00  0.51233797005E+03  0.51233797005E+03  0.00000000000E+00 0.  1.
         -2   -1    0    0    0  501 -0.00000000000E+00 -0.00000000000E+00 -0.22738644411E+02  0.22738644411E+02  0.00000000000E+00 0. -1.
          2    1    1    2  502    0  0.16542821883E+02  0.11643387376E+02  0.50759695697E+03  0.50799990566E+03  0.00000000000E+00 0.  1.
         -2    1    1    2    0  502 -0.16542821883E+02 -0.11643387376E+02 -0.17997631337E+02  0.27076708795E+02  0.00000000000E+00 0. -1.
</event>
<event>
 4    1  0.6145708E+003  0.2031816E+02  0.7546771E-02  0.1529226E+00
          2   -1    0    0  501    0  0.00000000000E+00  0.00000000000E+00  0.86985256300E+03  0.86985256300E+03  0.00000000000E+00 0. -1.
         -2   -1    0    0    0  501 -0.00000000000E+00 -0.00000000000E+00 -0.97826456944E+00  0.97826456944E+00  0.00000000000E+00 0. -1.
          2    1    1    2  502    0 -0.19317290532E+02  0.62983896853E+01  0.74686419154E+03  0.74714051425E+03  0.00000000000E+00 0. -1.
         -2    1    1    2    0  502  0.19317290532E+02 -0.62983896853E+01  0.12201010689E+03  0.12369031333E+03  0.00000000000E+00 0. -1.
</event>
<event>
 4    1  0.6145708E+003  0.3382694E+02  0.7546771E-02  0.1389003E+00
          2   -1    0    0  501    0  0.00000000000E+00  0.00000000000E+00  0.85036149470E+01  0.85036149470E+01  0.00000000000E+00 0.  1.
         -2   -1    0    0    0  501 -0.00000000000E+00 -0.00000000000E+00 -0.13804766240E+03  0.13804766240E+03  0.00000000000E+00 0.  1.
          2    1    1    2  502    0  0.32390505825E+01 -0.33671495390E+02 -0.76416104492E+02  0.83568427508E+02  0.00000000000E+00 0.  1.
         -2    1    1    2    0  502 -0.32390505825E+01  0.33671495390E+02 -0.53127942957E+02  0.62982849835E+02  0.00000000000E+00 0.  1.
</event>
<event>
 4    1  0.6145708E+003  0.3582469E+02  0.7546771E-02  0.1374856E+00
          2   -1    0    0  501    0  0.00000000000E+00  0.00000000000E+00  0.79176312108E+03  0.79176312108E+03  0.00000000000E+00 0.  1.
         -2   -1    0    0    0  501 -0.00000000000E+00 -0.00000000000E+00 -0.17866501675E+01  0.17866501675E+01  0.00000000000E+00 0.  1.
          2    1    1    2  502    0 -0.51598355889E+01  0.35451152977E+02  0.51582145600E+03  0.51706400244E+03  0.00000000000E+00 0.  1.
         -2    1    1    2    0  502  0.51598355889E+01 -0.35451152977E+02  0.27415501492E+03  0.27648576881E+03  0.00000000000E+00 0.  1.
</event>
<event>
 4    1  0.6145708E+003  0.2102658E+02  0.7546771E-02  0.1518886E+00
          2   -1    0    0  501    0  0.00000000000E+00  0.00000000000E+00  0.36554788613E+03  0.36554788613E+03  0.00000000000E+00 0. -1.
         -2   -1    0    0    0  501 -0.00000000000E+00 -0.00000000000E+00 -0.60561962183E+02  0.60561962183E+02  0.00000000000E+00 0. -1.
          2    1    1    2  502    0 -0.15601576013E+02 -0.14096378545E+02  0.36340973031E+03  0.36401751214E+03  0.00000000000E+00 0. -1.
         -2    1    1    2    0  502  0.15601576013E+02  0.14096378545E+02 -0.58423806359E+02  0.62092336175E+02  0.00000000000E+00 0. -1.
</event>
<event>
 4    1  0.6145708E+003  0.5980146E+02  0.7546771E-02  0.1260509E+00
          2   -1    0    0  501    0  0.00000000000E+00  0.00000000000E+00  0.21520263367E+04  0.21520263367E+04  0.00000000000E+00 0.  1.
         -2   -1    0    0    0  501 -0.00000000000E+00 -0.00000000000E+00 -0.40543319940E+01  0.40543319940E+01  0.00000000000E+00 0.  1.
          2    1    1    2  502    0  0.57400253744E+02  0.16775735950E+02  0.19021287433E+04  0.19030685670E+04  0.00000000000E+00 0.  1.
         -2    1    1    2    0  502 -0.57400253744E+02 -0.16775735950E+02  0.24584326135E+03  0.25301210169E+03  0.00000000000E+00 0.  1.
</event>
<event>
 4    1  0.6145708E+003  0.5304923E+02  0.7546771E-02  0.1285467E+00
          2   -1    0    0  501    0  0.00000000000E+00  0.00000000000E+00  0.17561071992E+04  0.17561071992E+04  0.00000000000E+00 0. -1.
         -2   -1    0    0    0  501 -0.00000000000E+00 -0.00000000000E+00 -0.25921228698E+01  0.25921228698E+01  0.00000000000E+00 0.  1.
          2    1    1    2  502    0 -0.51495982979E+02 -0.12743017784E+02  0.14200845550E+04  0.14210750733E+04  0.00000000000E+00 0. -1.
         -2    1    1    2    0  502  0.51495982979E+02  0.12743017784E+02  0.33343052139E+03  0.33762424877E+03  0.00000000000E+00 0.  1.
</event>
<event>
 4    1  0.6145708E+003  0.2455679E+02  0.7546771E-02  0.1473823E+00
          2   -1    0    0  501    0  0.00000000000E+00  0.00000000000E+00  0.10329833958E+02  0.10329833958E+02  0.00000000000E+00 0. -1.
         -2   -1    0    0    0  501 -0.00000000000E+00 -0.00000000000E+00 -0.37590187405E+03  0.37590187405E+03  0.00000000000E+00 0.  1.
          2    1    1    2  502    0  0.50691769248E+01 -0.24027886957E+02 -0.52980922379E+01  0.25121816966E+02  0.00000000000E+00 0. -1.
         -2    1    1    2    0  502 -0.50691769248E+01  0.24027886957E+02 -0.36027394785E+03  0.36110989104E+03  0.00000000000E+00 0.  1.
</event>
<event>
 4    1  0.6346815E+003  0.2493813E+02  0.7546771E-02  0.1469497E+00
          2   -1    0    0  501    0  0.00000000000E+00  0.00000000000E+00  0.37856636127E+03  0.37856636127E+03  0.00000000000E+00 0. -1.
         -2   -1    0    0    0  501 -0.00000000000E+00 -0.00000000000E+00 -0.60651530429E+03  0.60651530429E+03  0.00000000000E+00 0. -1.
          2    1    1    2  502    0 -0.14321655012E+01 -0.24896968056E+02  0.37789886251E+03  0.37872082119E+03  0.00000000000E+00 0. -1.
         -2    1    1    2    0  502  0.14321655012E+01  0.24896968056E+02 -0.60584780554E+03  0.60636084437E+03  0.00000000000E+00 0. -1.
</event>
<event>
 4    1  0.6145708E+003  0.2032605E+02  0.7546771E-02  0.1529108E+00
          2   -1    0    0  501    0  0.00000000000E+00  0.00000000000E+00  0.16514557371E+01  0.16514557371E+01  0.00000000000E+00 0. -1.
         -2   -1    0    0    0  501 -0.00000000000E+00 -0.00000000000E+00 -0.25159870509E+03  0.25159870509E+03  0.00000000000E+00 0.  1.
          2    1    1    2  502    0 -0.15769369356E+02  0.12824784625E+02 -0.11543861724E+03  0.11721442941E+03  0.00000000000E+00 0. -1.
         -2    1    1    2    0  502  0.15769369356E+02 -0.12824784625E+02 -0.13450863211E+03  0.13603573142E+03  0.00000000000E+00 0.  1.
</event>
<event>
 4    1  0.6145708E+003  0.2454865E+02  0.7546771E-02  0.1473916E+00
          2   -1    0    0  501    0  0.00000000000E+00  0.00000000000E+00  0.14473348639E+04  0.14473348639E+04  0.00000000000E+00 0.  1.
         -2   -1    0    0    0  501 -0.00000000000E+00 -0.00000000000E+00 -0.89557268684E+01  0.89557268684E+01  0.00000000000E+00 0.  1.
          2    1    1    2  502    0 -0.10749618802E+02 -0.22069928406E+02  0.14302066716E+04  0.14304173375E+04  0.00000000000E+00 0.  1.
         -2    1    1    2    0  502  0.10749618802E+02  0.22069928406E+02  0.81724655117E+01  0.25873253309E+02  0.00000000000E+00 0.  1.
</event>
<event>
 4    1  0.6145708E+003  0.2692089E+02  0.7546771E-02  0.1448404E+00
          2   -1    0    0  501    0  0.00000000000E+00  0.00000000000E+00  0.19156883189E+04  0.19156883189E+04  0.00000000000E+00 0.  1.
         -2   -1    0    0    0  501 -0.00000000000E+00 -0.00000000000E+00 -0.92123458647E+01  0.92123458647E+01  0.00000000000E+00 0.  1.
          2    1    1    2  502    0 -0.18362919019E+02  0.19685971358E+02  0.18957191031E+04  0.18959102437E+04  0.00000000000E+00 0.  1.
         -2    1    1    2    0  502  0.18362919019E+02 -0.19685971358E+02  0.10756869931E+02  0.28990421072E+02  0.00000000000E+00 0.  1.
</event>
<event>
 4    1  0.6145708E+003  0.2079770E+02  0.7546771E-02  0.1522173E+00
          2   -1    0    0  501    0  0.00000000000E+00  0.00000000000E+00  0.73238287387E+03  0.73238287387E+03  0.00000000000E+00 0. -1.
         -2   -1    0    0    0  501 -0.00000000000E+00 -0.00000000000E+00 -0.62136820702E+00  0.62136820702E+00  0.00000000000E+00 0.  1.
          2    1    1    2  502    0  0.17047783960E+02 -0.11912897175E+02  0.28432299197E+03  0.28508263332E+03  0.00000000000E+00 0. -1.
         -2    1    1    2    0  502 -0.17047783960E+02  0.11912897175E+02  0.44743851369E+03  0.44792160876E+03  0.00000000000E+00 0.  1.
</event>
<event>
 4    1  0.6145708E+003  0.5468116E+02  0.7546771E-02  0.1279060E+00
          2   -1    0    0  501    0  0.00000000000E+00  0.00000000000E+00  0.15920462559E+04  0.15920462559E+04  0.00000000000E+00 0. -1.
         -2   -1    0    0    0  501 -0.00000000000E+00 -0.00000000000E+00 -0.23409977146E+01  0.23409977146E+01  0.00000000000E+00 0.  1.
          2    1    1    2  502    0  0.46047949564E+02 -0.29489238244E+02  0.11493425163E+04  0.11506425373E+04  0.00000000000E+00 0. -1.
         -2    1    1    2    0  502 -0.46047949564E+02  0.29489238244E+02  0.44036274194E+03  0.44374471639E+03  0.00000000000E+00 0.  1.
</event>
<event>
 4    1  0.6145708E+003  0.2671344E+02  0.7546771E-02  0.1450508E+00
          2   -1    0    0  501    0  0.00000000000E+00  0.00000000000E+00  0.79962482025E+02  0.79962482025E+02  0.00000000000E+00 0. -1.
         -2   -1    0    0    0  501 -0.00000000000E+00 -0.00000000000E+00 -0.48464422512E+02  0.48464422512E+02  0.00000000000E+00 0. -1.
          2    1    1    2  502    0 -0.21141590556E+02  0.16329151645E+02  0.73749776007E+02  0.78438750027E+02  0.00000000000E+00 0. -1.
         -2    1    1    2    0  502  0.21141590556E+02 -0.16329151645E+02 -0.42251716494E+02  0.49988154510E+02  0.00000000000E+00 0. -1.
</event>
<event>
 4    1  0.6145708E+003  0.2034403E+02  0.7546771E-02  0.1528840E+00
          2   -1    0    0  501    0  0.00000000000E+00  0.00000000000E+00  0.78577571338E+01  0.78577571338E+01  0.00000000000E+00 0.  1.
         -2   -1    0    0    0  501 -0.00000000000E+00 -0.00000000000E+00 -0.76107621440E+02  0.76107621440E+02  0.00000000000E+00 0.  1.
          2    1    1    2  502    0 -0.18657348443E+02  0.81106622877E+01 -0.10827960251E+02  0.23046132362E+02  0.00000000000E+00 0.  1.
         -2    1    1    2    0  502  0.18657348443E+02 -0.81106622877E+01 -0.57421904056E+02  0.60919246212E+02  0.00000000000E+00 0.  1.
</event>
<event>
 4    1  0.6145708E+003  0.6329834E+02  0.7546771E-02  0.1249020E+00
          2   -1    0    0  501    0  0.00000000000E+00  0.00000000000E+00  0.44129970148E+03  0.44129970148E+03  0.00000000000E+00 0. -1.
         -2   -1    0    0    0  501 -0.00000000000E+00 -0.00000000000E+00 -0.13429526574E+02  0.13429526574E+02  0.00000000000E+00 0.  1.
          2    1    1    2  502    0  0.37773457915E+02  0.50792179854E+02  0.34333974273E+03  0.34912584922E+03  0.00000000000E+00 0. -1.
         -2    1    1    2    0  502 -0.37773457915E+02 -0.50792179854E+02  0.84530432185E+02  0.10560337884E+03  0.00000000000E+00 0.  1.
</event>
<event>
 4    1  0.6145708E+003  0.2341424E+02  0.7546771E-02  0.1487361E+00
          2   -1    0    0  501    0  0.00000000000E+00  0.00000000000E+00  0.10272062918E+04  0.10272062918E+04  0.00000000000E+00 0.  1.
         -2   -1    0    0    0  501 -0.00000000000E+00 -0.00000000000E+00 -0.21612699055E+02  0.21612699055E+02  0.00000000000E+00 0. -1.
          2    1    1    2  502    0 -0.12322695993E+02  0.19909233776E+02  0.10206909059E+04  0.10209594271E+04  0.00000000000E+00 0.  1.
         -2    1    1    2    0  502  0.12322695993E+02 -0.19909233776E+02 -0.15097313170E+02  0.27859563727E+02  0.00000000000E+00 0. -1.
</event>
<event>
 4    1  0.6145708E+003  0.2270817E+02  0.7546771E-02  0.1496196E+00
          2   -1    0    0  501    0  0.00000000000E+00  0.00000000000E+00  0.38532592861E+03  0.38532592861E+03  0.00000000000E+00 0. -1.
         -2   -1    0    0    0  501 -0.00000000000E+00 -0.00000000000E+00 -0.25457505598E+01  0.25457505598E+01  0.00000000000E+00 0.  1.
          2    1    1    2  502    0 -0.22013527698E+02  0.55736326406E+01  0.32495567909E+03  0.32574814529E+03  0.00000000000E+00 0. -1.
         -2    1    1    2    0  502  0.22013527698E+02 -0.55736326406E+01  0.57824498953E+02  0.62123533879E+02  0.00000000000E+00 0.  1.
</event>
<event>
 4    1  0.6145708E+003  0.2006476E+02  0.7546771E-02  0.1533048E+00
          2   -1    0    0  501    0  0.00000000000E+00  0.00000000000E+00  0.33486866942E+03  0.33486866942E+03  0.00000000000E+00 0. -1.
         -2   -1    0    0    0  501 -0.00000000000E+00 -0.00000000000E+00 -0.37879914469E+02  0.37879914469E+02  0.00000000000E+00 0. -1.
          2    1    1    2  502    0  0.11884413800E+02  0.16166488334E+02  0.33188721489E+03  0.33249318496E+03  0.00000000000E+00 0. -1.
         -2    1    1    2    0  502 -0.11884413800E+02 -0.16166488334E+02 -0.34898459942E+02  0.40255398927E+02  0.00000000000E+00 0. -1.
</event>
<event>
 4    1  0.6145708E+003  0.3945400E+02  0.7546771E-02  0.1351715E+00
          2   -1    0    0  501    0  0.00000000000E+00  0.00000000000E+00  0.24911811661E+04  0.24911811661E+04  0.00000000000E+00 0. -1.
         -2   -1    0    0    0  501 -0.00000000000E+00 -0.00000000000E+00 -0.73990156000E+01  0.73990156000E+01  0.00000000000E+00 0.  1.
          2    1    1    2  502    0 -0.24454145612E+02 -0.30961472152E+02  0.24372661171E+04  0.24375854331E+04  0.00000000000E+00 0. -1.
         -2    1    1    2    0  502  0.24454145612E+02  0.30961472152E+02  0.46516033378E+02  0.60994748599E+02  0.00000000000E+00 0.  1.
</event>
<event>
 4    1  0.6145708E+003  0.2106430E+02  0.7546771E-02  0.1518349E+00
          2   -1    0    0  501    0  0.00000000000E+00  0.00000000000E+00  0.15693606060E+04  0.15693606060E+04  0.00000000000E+00 0. -1.
         -2   -1    0    0    0  501 -0.00000000000E+00 -0.00000000000E+00 -0.54259020881E+01  0.54259020881E+01  0.00000000000E+00 0.  1.
          2    1    1    2  502    0 -0.12235896446E+02  0.17146059958E+02  0.15485716725E+04  0.15487149284E+04  0.00000000000E+00 0. -1.
         -2    1    1    2    0  502  0.12235896446E+02 -0.17146059958E+02  0.15363031405E+02  0.26071579696E+02  0.00000000000E+00 0.  1.
</event>
<event>
 4    1  0.6145708E+003  0.2756770E+02  0.7546771E-02  0.1441987E+00
          2   -1    0    0  501    0  0.00000000000E+00  0.00000000000E+00  0.36878017933E+03  0.36878017933E+03  0.00000000000E+00 0. -1.
         -2   -1    0    0    0  501 -0.00000000000E+00 -0.00000000000E+00 -0.11455519422E+03  0.11455519422E+03  0.00000000000E+00 0.  1.
          2    1    1    2  502    0  0.66144591991E+01 -0.26762417563E+02  0.36659657583E+03  0.36763164646E+03  0.00000000000E+00 0. -1.
         -2    1    1    2    0  502 -0.66144591991E+01  0.26762417563E+02 -0.11237159072E+03  0.11570372710E+03  0.00000000000E+00 0.  1.
</event>
<event>
 4    1  0.7158958E+003  0.3465478E+02  0.7546771E-02  0.1383007E+00
          2   -1    0    0  501    0  0.00000000000E+00  0.00000000000E+00  0.81947902058E+03  0.81947902058E+03  0.00000000000E+00 0.  1.
         -2   -1    0    0    0  501 -0.00000000000E+00 -0.00000000000E+00 -0.22058628811E+03  0.22058628811E+03  0.00000000000E+00 0. -1.
          2    1    1    2  502    0  0.34607313825E+02  0.18131372288E+01  0.81774867183E+03  0.81848264729E+03  0.00000000000E+00 0.  1.
         -2    1    1    2    0  502 -0.34607313825E+02 -0.18131372288E+01 -0.21885593937E+03  0.22158266140E+03  0.00000000000E+00 0. -1.
</event>
<event>
 4    1  0.6145708E+003  0.5902948E+02  0.7546771E-02  0.1263166E+00
          2   -1    0    0  501    0  0.00000000000E+00  0.00000000000E+00  0.24198109913E+04  0.24198109913E+04  0.00000000000E+00 0.  1.
         -2   -1    0    0    0  501 -0.00000000000E+00 -0.00000000000E+00 -0.14469722706E+01  0.14469722706E+01  0.00000000000E+00 0.  1.
          2    1    1    2  502    0  0.25511345435E+02  0.53232051607E+02  0.12933374024E+04  0.12946837902E+04  0.00000000000E+00 0.  1.
         -2    1    1    2    0  502 -0.25511345435E+02 -0.53232051607E+02  0.11250266166E+04  0.11265741734E+04  0.00000000000E+00 0.  1.
</event>
<event>
 4    1  0.6145708E+003  0.2580061E+02  0.7546771E-02  0.1460043E+00
          2   -1    0    0  501    0  0.00000000000E+00  0.00000000000E+00  0.11454176207E+04  0.11454176207E+04  0.00000000000E+00 0.  1.
         -2   -1    0    0    0  501 -0.00000000000E+00 -0.00000000000E+00 -0.19730631572E+01  0.19730631572E+01  0.00000000000E+00 0. -1.
          2    1    1    2  502    0  0.35547349070E+01 -0.25554560871E+02  0.10535760127E+04  0.10538918760E+04  0.00000000000E+00 0.  1.
         -2    1    1    2    0  502 -0.35547349070E+01  0.25554560871E+02  0.89868544764E+02  0.93498807798E+02  0.00000000000E+00 0. -1.
</event>
<event>
 4    1  0.6145708E+003  0.2598401E+02  0.7546771E-02  0.1458090E+00
          2   -1    0    0  501    0  0.00000000000E+00  0.00000000000E+00  0.70459867328E+02  0.70459867328E+02  0.00000000000E+00 0.  1.
         -2   -1    0    0    0  501 -0.00000000000E+00 -0.00000000000E+00 -0.20985911139E+02  0.20985911139E+02  0.00000000000E+00 0. -1.
          2    1    1    2  502    0 -0.25226553472E+02  0.62281433720E+01  0.58441690899E+02  0.63957798625E+02  0.00000000000E+00 0.  1.
         -2    1    1    2    0  502  0.25226553472E+02 -0.62281433720E+01 -0.89677347096E+01  0.27487979841E+02  0.00000000000E+00 0. -1.
</event>
<event>
 4    1  0.6145708E+003  0.3000191E+02  0.7546771E-02  0.1419580E+00
          2   -1    0    0  501    0  0.00000000000E+00  0.00000000000E+00  0.38204420870E+03  0.38204420870E+03  0.00000000000E+00 0.  1.
         -2   -1    0    0    0  501 -0.00000000000E+00 -0.00000000000E+00 -0.38112483231E+02  0.38112483231E+02  0.00000000000E+00 0.  1.
          2    1    1    2  502    0 -0.29773679406E+02  0.36936220774E+01  0.37544728679E+03  0.37664410255E+03  0.00000000000E+00 0.  1.
         -2    1    1    2    0  502  0.29773679406E+02 -0.36936220774E+01 -0.31515561318E+02  0.43512589381E+02  0.00000000000E+00 0.  1.
</event>
<event>
 4    1  0.6145708E+003  0.2138498E+02  0.7546771E-02  0.1513839E+00
          2   -1    0    0  501    0  0.00000000000E+00  0.00000000000E+00  0.43595587203E+00  0.43595587203E+00  0.00000000000E+00 0.  1.
         -2   -1    0    0    0  501 -0.00000000000E+00 -0.00000000000E+00 -0.11003607521E+04  0.11003607521E+04  0.00000000000E+00 0. -1.
          2    1    1    2  502    0  0.51084061270E+01 -0.20765874228E+02 -0.43104954500E+03  0.43157968858E+03  0.00000000000E+00 0.  1.
         -2    1    1    2    0  502 -0.51084061270E+01  0.20765874228E+02 -0.66887525120E+03  0.66921701937E+03  0.00000000000E+00 0. -1.
</event>
<event>
 4    1  0.6145708E+003  0.2182040E+02  0.7546771E-02  0.1507866E+00
          2   -1    0    0  501    0  0.00000000000E+00  0.00000000000E+00  0.32433905816E+02  0.32433905816E+02  0.00000000000E+00 0.  1.
         -2   -1    0    0    0  501 -0.00000000000E+00 -0.00000000000E+00 -0.15368508569E+02  0.15368508569E+02  0.00000000000E+00 0.  1.
          2    1    1    2  502    0  0.14969704357E+02 -0.15875686306E+02  0.34737379201E+01  0.22095165068E+02  0.00000000000E+00 0.  1.
         -2    1    1    2    0  502 -0.14969704357E+02  0.15875686306E+02  0.13591659327E+02  0.25707249318E+02  0.00000000000E+00 0.  1.
</event>
<event>
 4    1  0.6145708E+003  0.2274063E+02  0.7546771E-02  0.1495781E+00
          2   -1    0    0  501    0  0.00000000000E+00  0.00000000000E+00  0.11128081998E+03  0.11128081998E+03  0.00000000000E+00 0.  1.
         -2   -1    0    0    0  501 -0.00000000000E+00 -0.00000000000E+00 -0.55900766769E+01  0.55900766769E+01  0.00000000000E+00 0.  1.
          2    1    1    2  502    0  0.21716840814E+02 -0.67464720100E+01  0.76845405049E+02  0.80139580338E+02  0.00000000000E+00 0.  1.
         -2    1    1    2    0  502 -0.21716840814E+02  0.67464720100E+01  0.28845338251E+02  0.36731316316E+02  0.00000000000E+00 0.  1.
</event>
<event>
 4    1  0.6145708E+003  0.2110416E+02  0.7546771E-02  0.1517783E+00
          2   -1    0    0  501    0  0.00000000000E+00  0.00000000000E+00  0.28200653491E+03  0.28200653491E+03  0.00000000000E+00 0. -1.
         -2   -1    0    0    0  501 -0.00000000000E+00 -0.00000000000E+00 -0.13988482462E+02  0.13988482462E+02  0.00000000000E+00 0. -1.
          2    1    1    2  502    0  0.20859936380E+02  0.32013524849E+01  0.27340168491E+03  0.27421500126E+03  0.00000000000E+00 0. -1.
         -2    1    1    2    0  502 -0.20859936380E+02 -0.32013524849E+01 -0.53836324600E+01  0.21780016115E+02  0.00000000000E+00 0. -1.
</event>
<event>
 4    1  0.6145708E+003  0.2518889E+02  0.7546771E-02  0.1466701E+00
          2   -1    0    0  501    0  0.00000000000E+00  0.00000000000E+00  0.10217629251E+02  0.10217629251E+02  0.00000000000E+00 0.  1.
         -2   -1    0    0    0  501 -0.00000000000E+00 -0.00000000000E+00 -0.24996512576E+03  0.24996512576E+03  0.00000000000E+00 0. -1.
          2    1    1    2  502    0  0.23159999581E+02 -0.99042719288E+01 -0.70927852376E+01  0.26168450192E+02  0.00000000000E+00 0.  1.
         -2    1    1    2    0  502 -0.23159999581E+02  0.99042719288E+01 -0.23265471128E+03  0.23401430482E+03  0.00000000000E+00 0. -1.
</event>
<event>
 4    1  0.6145708E+003  0.3239082E+02  0.7546771E-02  0.1399897E+00
          2   -1    0    0  501    0  0.00000000000E+00  0.00000000000E+00  0.38470831653E+03  0.38470831653E+03  0.00000000000E+00 0.  1.
         -2   -1    0    0    0  501 -0.00000000000E+00 -0.00000000000E+00 -0.77582779089E+01  0.77582779089E+01  0.00000000000E+00 0. -1.
          2    1    1    2  502    0  0.32091887383E+02  0.43904327814E+01  0.34649857645E+03  0.34800923640E+03  0.00000000000E+00 0.  1.
         -2    1    1    2    0  502 -0.32091887383E+02 -0.43904327814E+01  0.30451462175E+02  0.44457358045E+02  0.00000000000E+00 0. -1.
</event>
<event>
 4    1  0.6145708E+003  0.2302386E+02  0.7546771E-02  0.1492199E+00
          2   -1    0    0  501    0  0.00000000000E+00  0.00000000000E+00  0.19312817010E+02  0.19312817010E+02  0.00000000000E+00 0. -1.
         -2   -1    0    0    0  501 -0.00000000000E+00 -0.00000000000E+00 -0.70100593602E+02  0.70100593602E+02  0.00000000000E+00 0.  1.
          2    1    1    2  502    0  0.15052498304E+02 -0.17421831282E+02  0.94787348570E+01  0.24898681188E+02  0.00000000000E+00 0. -1.
         -2    1    1    2    0  502 -0.15052498304E+02  0.17421831282E+02 -0.60266511448E+02  0.64514729424E+02  0.00000000000E+00 0.  1.
</event>
<event>
 4    1  0.6145708E+003  0.2796816E+02  0.7546771E-02  0.1438118E+00
          2   -1    0    0  501    0  0.00000000000E+00  0.00000000000E+00  0.24259929466E+03  0.24259929466E+03  0.00000000000E+00 0.  1.
         -2   -1    0    0    0  501 -0.00000000000E+00 -0.00000000000E+00 -0.11196515206E+02  0.11196515206E+02  0.00000000000E+00 0.  1.
          2    1    1    2  502    0  0.27074072319E+02 -0.70151601965E+01  0.22277981237E+03  0.22452853418E+03  0.00000000000E+00 0.  1.
         -2    1    1    2    0  502 -0.27074072319E+02  0.70151601965E+01  0.86229670880E+01  0.29267275683E+02  0.00000000000E+00 0.  1.
</event>
<event>
 4    1  0.6145708E+003  0.2212491E+02  0.7546771E-02  0.1503789E+00
          2   -1    0    0  501    0  0.00000000000E+00  0.00000000000E+00  0.17098970910E+02  0.17098970910E+02  0.00000000000E+00 0. -1.
         -2   -1    0    0    0  501 -0.00000000000E+00 -0.00000000000E+00 -0.66222428072E+02  0.66222428072E+02  0.00000000000E+00 0.  1.
          2    1    1    2  502    0 -0.22105471156E+02  0.92716595355E+00  0.68278164834E+01  0.23154493509E+02  0.00000000000E+00 0. -1.
         -2    1    1    2    0  502  0.22105471156E+02 -0.92716595355E+00 -0.55951273645E+02  0.60166905474E+02  0.00000000000E+00 0.  1.
</event>
<event>
 4    1  0.6145708E+003  0.2080702E+02  0.7546771E-02  0.1522038E+00
          2   -1    0    0  501    0  0.00000000000E+00  0.00000000000E+00  0.17095063468E+03  0.17095063468E+03  0.00000000000E+00 0.  1.
         -2   -1    0    0    0  501 -0.00000000000E+00 -0.00000000000E+00 -0.15030603127E+03  0.15030603127E+03  0.00000000000E+00 0.  1.
          2    1    1    2  502    0  0.16460399306E+02 -0.12727418274E+02  0.16959167786E+03  0.17086330537E+03  0.00000000000E+00 0.  1.
         -2    1    1    2    0  502 -0.16460399306E+02  0.12727418274E+02 -0.14894707445E+03  0.15039336059E+03  0.00000000000E+00 0.  1.
</event>
<event>
 4    1  0.6145708E+003  0.3560017E+02  0.7546771E-02  0.1376392E+00
          2   -1    0    0  501    0  0.00000000000E+00  0.00000000000E+00  0.31690404026E+03  0.31690404026E+03  0.00000000000E+00 0.  1.
         -2   -1    0    0    0  501 -0.00000000000E+00 -0.00000000000E+00 -0.14157097557E+03  0.14157097557E+03  0.00000000000E+00 0. -1.
          2    1    1    2  502    0 -0.34781048833E+02  0.75928164825E+01  0.31364298644E+03  0.31565692637E+03  0.00000000000E+00 0.  1.
         -2    1    1    2    0  502  0.34781048833E+02 -0.75928164825E+01 -0.13830992176E+03  0.14281808946E+03  0.00000000000E+00 0. -1.
</event>
<event>
 4    1  0.6145708E+003  0.2302662E+02  0.7546771E-02  0.1492164E+00
          2   -1    0    0  501    0  0.00000000000E+00  0.00000000000E+00  0.43974591096E+02  0.43974591096E+02  0.00000000000E+00 0. -1.
         -2   -1    0    0    0  501 -0.00000000000E+00 -0.00000000000E+00 -0.58594238687E+02  0.58594238687E+02  0.00000000000E+00 0. -1.
          2    1    1    2  502    0  0.16498006934E+02  0.16063661139E+02  0.38394335765E+02  0.44769972759E+02  0.00000000000E+00 0. -1.
         -2    1    1    2    0  502 -0.16498006934E+02 -0.16063661139E+02 -0.53013983356E+02  0.57798857024E+02  0.00000000000E+00 0. -1.
</event>
<event>
 4    1  0.6145708E+003  0.3626055E+02  0.7546771E-02  0.1371911E+00
          2   -1    0    0  501    0  0.00000000000E+00  0.00000000000E+00  0.38127533149E+03  0.38127533149E+03  0.00000000000E+00 0.  1.
         -2   -1    0    0    0  501 -0.00000000000E+00 -0.00000000000E+00 -0.95782001043E+02  0.95782001043E+02  0.00000000000E+00 0. -1.
          2    1    1    2  502    0 -0.19454327991E+01  0.36208324843E+02  0.37694202257E+03  0.37868207758E+03  0.00000000000E+00 0.  1.
         -2    1    1    2    0  502  0.19454327991E+01 -0.36208324843E+02 -0.91448692125E+02  0.98375254958E+02  0.00000000000E+00 0. -1.
</event>
<event>
 4    1  0.6145708E+003  0.2942817E+02  0.7546771E-02  0.1424632E+00
          2   -1    0    0  501    0  0.00000000000E+00  0.00000000000E+00  0.10041530107E+01  0.10041530107E+01  0.00000000000E+00 0.  1.
         -2   -1    0    0    0  501 -0.00000000000E+00 -0.00000000000E+00 -0.89081665126E+03  0.89081665126E+03  0.00000000000E+00 0. -1.
          2    1    1    2  502    0 -0.28703525021E+02  0.64903666501E+01 -0.36531443310E+03  0.36649782024E+03  0.00000000000E+00 0.  1.
         -2    1    1    2    0  502  0.28703525021E+02 -0.64903666501E+01 -0.52449806515E+03  0.52532298403E+03  0.00000000000E+00 0. -1.
</event>
<event>
 4    1  0.6145708E+003  0.2112294E+02  0.7546771E-02  0.1517517E+00
          2   -1    0    0  501    0  0.00000000000E+00  0.00000000000E+00  0.94808282629E+03  0.94808282629E+03  0.00000000000E+00 0. -1.
         -2   -1    0    0    0  501 -0.00000000000E+00 -0.00000000000E+00 -0.96985633341E+01  0.96985633341E+01  0.00000000000E+00 0.  1.
          2    1    1    2  502    0  0.67941353821E+01  0.20000456040E+02  0.93631954952E+03  0.93655778110E+03  0.00000000000E+00 0. -1.
         -2    1    1    2    0  502 -0.67941353821E+01 -0.20000456040E+02  0.20647134357E+01  0.21223608528E+02  0.00000000000E+00 0.  1.
</event>
<event>
 4    1  0.6145708E+003  0.5384146E+02  0.7546771E-02  0.1282324E+00
          2   -1    0    0  501    0  0.00000000000E+00  0.00000000000E+00  0.26832902713E+04  0.26832902713E+04  0.00000000000E+00 0. -1.
         -2   -1    0    0    0  501 -0.00000000000E+00 -0.00000000000E+00 -0.15003784685E+01  0.15003784685E+01  0.00000000000E+00 0.  1.
          2    1    1    2  502    0 -0.38316401890E+02 -0.37825330494E+02  0.20511552233E+04  0.20518617527E+04  0.00000000000E+00 0. -1.
         -2    1    1    2    0  502  0.38316401890E+02  0.37825330494E+02  0.63063466960E+03  0.63292889710E+03  0.00000000000E+00 0.  1.
</event>
<event>
 4    1  0.6145708E+003  0.2465388E+02  0.7546771E-02  0.1472713E+00
          2   -1    0    0  501    0  0.00000000000E+00  0.00000000000E+00  0.25758321638E+03  0.25758321638E+03  0.00000000000E+00 0.  1.
         -2   -1    0    0    0  501 -0.00000000000E+00 -0.00000000000E+00 -0.13878615855E+02  0.13878615855E+02  0.00000000000E+00 0.  1.
          2    1    1    2  502    0 -0.83223914951E+01 -0.23206710942E+02  0.24550736438E+03  0.24674213178E+03  0.00000000000E+00 0.  1.
         -2    1    1    2    0  502  0.83223914951E+01  0.23206710942E+02 -0.18027638532E+01  0.24719700452E+02  0.00000000000E+00 0.  1.
</event>
<event>
 4    1  0.6145708E+003  0.2166716E+02  0.7546771E-02  0.1509949E+00
          2   -1    0    0  501    0  0.00000000000E+00  0.00000000000E+00  0.22479762996E+03  0.22479762996E+03  0.00000000000E+00 0.  1.
         -2   -1    0    0    0  501 -0.00000000000E+00 -0.00000000000E+00 -0.16493706911E+02  0.16493706911E+02  0.00000000000E+00 0. -1.
          2    1    1    2  502    0 -0.78142923459E+01 -0.20208977860E+02  0.21690128649E+03  0.21798081115E+03  0.00000000000E+00 0.  1.
         -2    1    1    2    0  502  0.78142923459E+01  0.20208977860E+02 -0.85973634410E+01  0.23310525716E+02  0.00000000000E+00 0. -1.
</event>
<event>
 4    1  0.6145708E+003  0.2126585E+02  0.7546771E-02  0.1515503E+00
          2   -1    0    0  501    0  0.00000000000E+00  0.00000000000E+00  0.83409699854E+02  0.83409699854E+02  0.00000000000E+00 0.  1.
         -2   -1    0    0    0  501 -0.00000000000E+00 -0.00000000000E+00 -0.29676547531E+02  0.29676547531E+02  0.00000000000E+00 0.  1.
          2    1    1    2  502    0  0.17650450506E+02  0.11861614884E+02  0.77984227059E+02  0.80831775810E+02  0.00000000000E+00 0.  1.
         -2    1    1    2    0  502 -0.17650450506E+02 -0.11861614884E+02 -0.24251074736E+02  0.32254471575E+02  0.00000000000E+00 0.  1.
</event>
<event>
 4    1  0.6145708E+003  0.4272867E+02  0.7546771E-02  0.1333197E+00
          2   -1    0    0  501    0  0.00000000000E+00  0.00000000000E+00  0.14962964822E+04  0.14962964822E+04  0.00000000000E+00 0.  1.
         -2   -1    0    0    0  501 -0.00000000000E+00 -0.00000000000E+00 -0.13793094928E+01  0.13793094928E+01  0.00000000000E+00 0.  1.
          2    1    1    2  502    0 -0.39393751897E+02 -0.16549053565E+02  0.10018154129E+04  0.10027262141E+04  0.00000000000E+00 0.  1.
         -2    1    1    2    0  502  0.39393751897E+02  0.16549053565E+02  0.49310175980E+03  0.49494957762E+03  0.00000000000E+00 0.  1.
</event>
<event>
 4    1  0.6145708E+003  0.2080885E+02  0.7546771E-02  0.1522012E+00
          2   -1    0    0  501    0  0.00000000000E+00  0.00000000000E+00  0.61507350687E+02  0.61507350687E+02  0.00000000000E+00 0.  1.
         -2   -1    0    0    0  501 -0.00000000000E+00 -0.00000000000E+00 -0.31739341724E+02  0.31739341724E+02  0.00000000000E+00 0. -1.
          2    1    1    2  502    0  0.17418839368E+02  0.11383864601E+02  0.56012957986E+02  0.59753324598E+02  0.00000000000E+00 0.  1.
         -2    1    1    2    0  502 -0.17418839368E+02 -0.11383864601E+02 -0.26244949023E+02  0.33493367812E+02  0.00000000000E+00 0. -1.
</event>
<event>
 4    1  0.6145708E+003  0.3738408E+02  0.7546771E-02  0.1364537E+00
          2   -1    0    0  501    0  0.00000000000E+00  0.00000000000E+00  0.10448180237E+03  0.10448180237E+03  0.00000000000E+00 0. -1.
         -2   -1    0    0    0  501 -0.00000000000E+00 -0.00000000000E+00 -0.14279082038E+02  0.14279082038E+02  0.00000000000E+00 0. -1.
          2    1    1    2  502    0  0.36798224179E+02  0.65924302594E+01  0.60033047737E+02  0.70721540283E+02  0.00000000000E+00 0. -1.
         -2    1    1    2    0  502 -0.36798224179E+02 -0.65924302594E+01  0.30169672597E+02  0.48039344126E+02  0.00000000000E+00 0. -1.
</event>
<event>
 4    1  0.6145708E+003  0.2418867E+02  0.7546771E-02  0.1478088E+00
          2   -1    0    0  501    0  0.00000000000E+00  0.00000000000E+00  0.15618411528E+04  0.15618411528E+04  0.00000000000E+00 0.  1.
         -2   -1    0    0    0  501 -0.00000000000E+00 -0.00000000000E+00 -0.73985190839E+00  0.73985190839E+00  0.00000000000E+00 0.  1.
          2    1    1    2  502    0  0.49521452697E+01 -0.23676313181E+02  0.13294927658E+04  0.13297127907E+04  0.00000000000E+00 0.  1.
         -2    1    1    2    0  502 -0.49521452697E+01  0.23676313181E+02  0.23160853511E+03  0.23286821399E+03  0.00000000000E+00 0.  1.
</event>
<event>
 4    1  0.6145708E+003  0.2567448E+02  0.7546771E-02  0.1461398E+00
          2   -1    0    0  501    0  0.00000000000E+00  0.00000000000E+00  0.11133186251E+03  0.11133186251E+03  0.00000000000E+00 0. -1.
         -2   -1    0    0    0  501 -0.00000000000E+00 -0.00000000000E+00 -0.10103250119E+03  0.10103250119E+03  0.00000000000E+00 0. -1.
          2    1    1    2  502    0 -0.99251583028E+01  0.23678478737E+02  0.10817357353E+03  0.11117869011E+03  0.00000000000E+00 0. -1.
         -2    1    1    2    0  502  0.99251583028E+01 -0.23678478737E+02 -0.97874212217E+02  0.10118567359E+03  0.00000000000E+00 0. -1.
</event>
<event>
 4    1  0.6145708E+003  0.2945221E+02  0.7546771E-02  0.1424417E+00
          2   -1    0    0  501    0  0.00000000000E+00  0.00000000000E+00  0.25412421619E+01  0.25412421619E+01  0.00000000000E+00 0. -1.
         -2   -1    0    0    0  501 -0.00000000000E+00 -0.00000000000E+00 -0.35910914358E+03  0.35910914358E+03  0.00000000000E+00 0. -1.
          2    1    1    2  502    0 -0.23779745865E+02  0.17376885732E+02 -0.13806270422E+03  0.14116919907E+03  0.00000000000E+00 0. -1.
         -2    1    1    2    0  502  0.23779745865E+02 -0.17376885732E+02 -0.21850519720E+03  0.22048118667E+03  0.00000000000E+00 0. -1.
</event>
<event>
 4    1  0.6145708E+003  0.2298486E+02  0.7546771E-02  0.1492688E+00
          2   -1    0    0  501    0  0.00000000000E+00  0.00000000000E+00  0.22833742634E+04  0.22833742634E+04  0.00000000000E+00 0. -1.
         -2   -1    0    0    0  501 -0.00000000000E+00 -0.00000000000E+00 -0.23886900594E+00  0.23886900594E+00  0.00000000000E+00 0.  1.
          2    1    1    2  502    0  0.16137043148E+02 -0.16367638143E+02  0.13438796903E+04  0.13440762351E+04  0.00000000000E+00 0. -1.
         -2    1    1    2    0  502 -0.16137043148E+02  0.16367638143E+02  0.93925570410E+03  0.93953689732E+03  0.00000000000E+00 0.  1.
</event>
<event>
 4    1  0.6145708E+003  0.2268804E+02  0.7546771E-02  0.1496453E+00
          2   -1    0    0  501    0  0.00000000000E+00  0.00000000000E+00  0.16148108392E+04  0.16148108392E+04  0.00000000000E+00 0. -1.
         -2   -1    0    0    0  501 -0.00000000000E+00 -0.00000000000E+00 -0.42840150272E+00  0.42840150272E+00  0.00000000000E+00 0. -1.
          2    1    1    2  502    0 -0.18583706005E+02  0.13015088096E+02  0.39862998881E+03  0.39927511145E+03  0.00000000000E+00 0. -1.
         -2    1    1    2    0  502  0.18583706005E+02 -0.13015088096E+02  0.12157524489E+04  0.12159641293E+04  0.00000000000E+00 0. -1.
</event>
<event>
 4    1  0.6145708E+003  0.2067687E+02  0.7546771E-02  0.1523929E+00
          2   -1    0    0  501    0  0.00000000000E+00  0.00000000000E+00  0.76655305665E+03  0.76655305665E+03  0.00000000000E+00 0.  1.
         -2   -1    0    0    0  501 -0.00000000000E+00 -0.00000000000E+00 -0.10945912190E+01  0.10945912190E+01  0.00000000000E+00 0.  1.
          2    1    1    2  502    0  0.11554950178E+02 -0.17146898281E+02  0.65153290197E+03  0.65186091718E+03  0.00000000000E+00 0.  1.
         -2    1    1    2    0  502 -0.11554950178E+02  0.17146898281E+02  0.11392556346E+03  0.11578673069E+03  0.00000000000E+00 0.  1.
</event>
<event>
 4    1  0.6145708E+003  0.4026441E+02  0.7546771E-02  0.1346943E+00
          2   -1    0    0  501    0  0.00000000000E+00  0.00000000000E+00  0.32412847828E+02  0.32412847828E+02  0.00000000000E+00 0.  1.
         -2   -1    0    0    0  501 -0.00000000000E+00 -0.00000000000E+00 -0.81964296789E+02  0.81964296789E+02  0.00000000000E+00 0. -1.
          2    1    1    2  502    0 -0.29427970369E+02 -0.27481223711E+02  0.10927523696E+02  0.41720904482E+02  0.00000000000E+00 0.  1.
         -2    1    1    2    0  502  0.29427970369E+02  0.27481223711E+02 -0.60478972658E+02  0.72656240134E+02  0.00000000000E+00 0. -1.
</event>
<event>
 4    1  0.6145708E+003  0.2144628E+02  0.7546771E-02  0.1512988E+00
          2   -1    0    0  501    0  0.00000000000E+00  0.00000000000E+00  0.66722484793E+03  0.66722484793E+03  0.00000000000E+00 0.  1.
         -2   -1    0    0    0  501 -0.00000000000E+00 -0.00000000000E+00 -0.13471074186E+02  0.13471074186E+02  0.00000000000E+00 0.  1.
          2    1    1    2  502    0  0.20121397876E+02 -0.74210718036E+01  0.65840241558E+03  0.65875161010E+03  0.00000000000E+00 0.  1.
         -2    1    1    2    0  502 -0.20121397876E+02  0.74210718036E+01 -0.46486418358E+01  0.21944312022E+02  0.00000000000E+00 0.  1.
</event>
<event>
 4    1  0.6145708E+003  0.3136635E+02  0.7546771E-02  0.1408083E+00
          2   -1    0    0  501    0  0.00000000000E+00  0.00000000000E+00  0.13240955548E+03  0.13240955548E+03  0.00000000000E+00 0.  1.
         -2   -1    0    0    0  501 -0.00000000000E+00 -0.00000000000E+00 -0.45210987692E+02  0.45210987692E+02  0.00000000000E+00 0. -1.
          2    1    1    2  502    0  0.23980311197E+02  0.20218612656E+02  0.12478430675E+03  0.12866612155E+03  0.00000000000E+00 0.  1.
         -2    1    1    2    0  502 -0.23980311197E+02 -0.20218612656E+02 -0.37585738965E+02  0.48954421623E+02  0.00000000000E+00 0. -1.
</event>
<event>
 4    1  0.6145708E+003  0.3102822E+02  0.7546771E-02  0.1410867E+00
          2   -1    0    0  501    0  0.00000000000E+00  0.00000000000E+00  0.14443267954E+03  0.14443267954E+03  0.00000000000E+00 0.  1.
         -2   -1    0    0    0  501 -0.00000000000E+00 -0.00000000000E+00 -0.99344487891E+02  0.99344487891E+02  0.00000000000E+00 0. -1.
          2    1    1    2  502    0  0.30578213869E+02 -0.52653163335E+01  0.14027249034E+03  0.14366322516E+03  0.00000000000E+00 0.  1.
         -2    1    1    2    0  502 -0.30578213869E+02  0.52653163335E+01 -0.95184298687E+02  0.10011394227E+03  0.00000000000E+00 0. -1.
</event>
<event>
 4    1  0.6145708E+003  0.3267558E+02  0.7546771E-02  0.1397685E+00
          2   -1    0    0  501    0  0.00000000000E+00  0.00000000000E+00  0.17323032244E+04  0.17323032244E+04  0.00000000000E+00 0.  1.
         -2   -1    0    0    0  501 -0.00000000000E+00 -0.00000000000E+00 -0.96263261243E+00  0.96263261243E+00  0.00000000000E+00 0. -1.
          2    1    1    2  502    0 -0.39495118994E+01 -0.32436015293E+02  0.13854560301E+04  0.13858412986E+04  0.00000000000E+00 0. -1.
         -2    1    1    2    0  502  0.39495118994E+01  0.32436015293E+02  0.34588456171E+03  0.34742455838E+03  0.00000000000E+00 0.  1.
</event>
<event>
 4    1  0.6145708E+003  0.3042326E+02  0.7546771E-02  0.1415953E+00
          2   -1    0    0  501    0  0.00000000000E+00  0.00000000000E+00  0.21887642837E+04  0.21887642837E+04  0.00000000000E+00 0.  1.
         -2   -1    0    0    0  501 -0.00000000000E+00 -0.00000000000E+00 -0.61419802277E+00  0.61419802277E+00  0.00000000000E+00 0.  1.
          2    1    1    2  502    0 -0.11126164074E+02 -0.28315777233E+02  0.17050447873E+04  0.17053161881E+04  0.00000000000E+00 0.  1.
         -2    1    1    2    0  502  0.11126164074E+02  0.28315777233E+02  0.48310529841E+03  0.48406229363E+03  0.00000000000E+00 0.  1.
</event>
<event>
 4    1  0.6145708E+003  0.2312147E+02  0.7546771E-02  0.1490978E+00
          2   -1    0    0  501    0  0.00000000000E+00  0.00000000000E+00  0.58521354937E+03  0.58521354937E+03  0.00000000000E+00 0.  1.
         -2   -1    0    0    0  501 -0.00000000000E+00 -0.00000000000E+00 -0.11943962697E+01  0.11943962697E+01  0.00000000000E+00 0.  1.
          2    1    1    2  502    0 -0.10107079490E+02 -0.20795417417E+02  0.43419516733E+03  0.43481035610E+03  0.00000000000E+00 0.  1.
         -2    1    1    2    0  502  0.10107079490E+02  0.20795417417E+02  0.14982398577E+03  0.15159758954E+03  0.00000000000E+00 0.  1.
</event>
<event>
 4    1  0.6145708E+003  0.2108115E+02  0.7546771E-02  0.1518109E+00
          2   -1    0    0  501    0  0.00000000000E+00  0.00000000000E+00  0.66349045177E+03  0.66349045177E+03  0.00000000000E+00 0.  1.
         -2   -1    0    0    0  501 -0.00000000000E+00 -0.00000000000E+00 -0.70707040679E+00  0.70707040679E+00  0.00000000000E+00 0. -1.
          2    1    1    2  502    0 -0.11904656543E+02 -0.17398101207E+02  0.40762418004E+03  0.40816894410E+03  0.00000000000E+00 0.  1.
         -2    1    1    2    0  502  0.11904656543E+02  0.17398101207E+02  0.25515920132E+03  0.25602857807E+03  0.00000000000E+00 0. -1.
</event>
<event>
 4    1  0.6145708E+003  0.2432535E+02  0.7546771E-02  0.1476494E+00
          2   -1    0    0  501    0  0.00000000000E+00  0.00000000000E+00  0.12419562376E+04  0.12419562376E+04  0.00000000000E+00 0. -1.
         -2   -1    0    0    0  501 -0.00000000000E+00 -0.00000000000E+00 -0.31386991449E+02  0.31386991449E+02  0.00000000000E+00 0.  1.
          2    1    1    2  502    0  0.53024082300E+01  0.23740414984E+02  0.12371055264E+04  0.12373446595E+04  0.00000000000E+00 0. -1.
         -2    1    1    2    0  502 -0.53024082300E+01 -0.23740414984E+02 -0.26536280302E+02  0.35998569539E+02  0.00000000000E+00 0.  1.
</event>
<event>
 4    1  0.6145708E+003  0.3457290E+02  0.7546771E-02  0.1383591E+00
          2   -1    0    0  501    0  0.00000000000E+00  0.00000000000E+00  0.15891215139E+04  0.15891215139E+04  0.00000000000E+00 0.  1.
         -2   -1    0    0    0  501 -0.00000000000E+00 -0.00000000000E+00 -0.35827758543E+01  0.35827758543E+01  0.00000000000E+00 0. -1.
          2    1    1    2  502    0 -0.10445689560E+02  0.32957136138E+02  0.15006095981E+04  0.15010078118E+04  0.00000000000E+00 0.  1.
         -2    1    1    2    0  502  0.10445689560E+02 -0.32957136138E+02  0.84929139964E+02  0.91696477947E+02  0.00000000000E+00 0. -1.
</event>
<event>
 4    1  0.6145708E+003  0.2836809E+02  0.7546771E-02  0.1434329E+00
          2   -1    0    0  501    0  0.00000000000E+00  0.00000000000E+00  0.51670437091E+02  0.51670437091E+02  0.00000000000E+00 0. -1.
         -2   -1    0    0    0  501 -0.00000000000E+00 -0.00000000000E+00 -0.15550615829E+03  0.15550615829E+03  0.00000000000E+00 0. -1.
          2    1    1    2  502    0  0.27091277712E+02  0.84149331958E+01  0.46346192600E+02  0.54338917889E+02  0.00000000000E+00 0. -1.
         -2    1    1    2    0  502 -0.27091277712E+02 -0.84149331958E+01 -0.15018191380E+03  0.15283767749E+03  0.00000000000E+00 0. -1.
</event>
<event>
 4    1  0.6145708E+003  0.2842515E+02  0.7546771E-02  0.1433794E+00
          2   -1    0    0  501    0  0.00000000000E+00  0.00000000000E+00  0.12150823147E+04  0.12150823147E+04  0.00000000000E+00 0. -1.
         -2   -1    0    0    0  501 -0.00000000000E+00 -0.00000000000E+00 -0.18560455409E+01  0.18560455409E+01  0.00000000000E+00 0. -1.
          2    1    1    2  502    0  0.32335187392E+01 -0.28240639850E+02  0.10940456656E+04  0.10944148700E+04  0.00000000000E+00 0. -1.
         -2    1    1    2    0  502 -0.32335187392E+01  0.28240639850E+02  0.11918060361E+03  0.12252349023E+03  0.00000000000E+00 0. -1.
</event>
<event>
 4    1  0.6145708E+003  0.2443702E+02  0.7546771E-02  0.1475201E+00
          2   -1    0    0  501    0  0.00000000000E+00  0.00000000000E+00  0.10650548276E+03  0.10650548276E+03  0.00000000000E+00 0. -1.
         -2   -1    0    0    0  501 -0.00000000000E+00 -0.00000000000E+00 -0.70533821187E+01  0.70533821187E+01  0.00000000000E+00 0. -1.
          2    1    1    2  502    0 -0.14797109482E+02  0.19447707521E+02  0.75438638551E+02  0.79297893814E+02  0.00000000000E+00 0. -1.
         -2    1    1    2    0  502  0.14797109482E+02 -0.19447707521E+02  0.24013462094E+02  0.34260971069E+02  0.00000000000E+00 0. -1.
</event>
<event>
 4    1  0.6145708E+003  0.3067470E+02  0.7546771E-02  0.1413822E+00
          2   -1    0    0  501    0  0.00000000000E+00  0.00000000000E+00  0.13840232280E+04  0.13840232280E+04  0.00000000000E+00 0. -1.
         -2   -1    0    0    0  501 -0.00000000000E+00 -0.00000000000E+00 -0.10172990300E+01  0.10172990300E+01  0.00000000000E+00 0. -1.
          2    1    1    2  502    0 -0.24583574526E+02  0.18346251765E+02  0.10903516132E+04  0.10907830112E+04  0.00000000000E+00 0. -1.
         -2    1    1    2    0  502  0.24583574526E+02 -0.18346251765E+02  0.29265431580E+03  0.29425751587E+03  0.00000000000E+00 0. -1.
</event>
<event>
 4    1  0.6145708E+003  0.2117057E+02  0.7546771E-02  0.1516843E+00
          2   -1    0    0  501    0  0.00000000000E+00  0.00000000000E+00  0.72366212152E+01  0.72366212152E+01  0.00000000000E+00 0.  1.
         -2   -1    0    0    0  501 -0.00000000000E+00 -0.00000000000E+00 -0.32057198750E+03  0.32057198750E+03  0.00000000000E+00 0. -1.
          2    1    1    2  502    0 -0.17253200574E+02  0.12268658938E+02 -0.94453393678E+01  0.23182048183E+02  0.00000000000E+00 0.  1.
         -2    1    1    2    0  502  0.17253200574E+02 -0.12268658938E+02 -0.30389002691E+03  0.30462656053E+03  0.00000000000E+00 0. -1.
</event>
<event>
 4    1  0.6145708E+003  0.2194645E+02  0.7546771E-02  0.1506169E+00
          2   -1    0    0  501    0  0.00000000000E+00  0.00000000000E+00  0.12464825624E+04  0.12464825624E+04  0.00000000000E+00 0. -1.
         -2   -1    0    0    0  501 -0.00000000000E+00 -0.00000000000E+00 -0.44353767537E+00  0.44353767537E+00  0.00000000000E+00 0. -1.
          2    1    1    2  502    0 -0.19461632436E+02 -0.10143544241E+02  0.84678297225E+03  0.84706732243E+03  0.00000000000E+00 0. -1.
         -2    1    1    2    0  502  0.19461632436E+02  0.10143544241E+02  0.39925605246E+03  0.39985877764E+03  0.00000000000E+00 0. -1.
</event>
<event>
 4    1  0.6145708E+003  0.4458484E+02  0.7546771E-02  0.1323529E+00
          2   -1    0    0  501    0  0.00000000000E+00  0.00000000000E+00  0.17928816997E+04  0.17928816997E+04  0.00000000000E+00 0. -1.
         -2   -1    0    0    0  501 -0.00000000000E+00 -0.00000000000E+00 -0.15289504122E+01  0.15289504122E+01  0.00000000000E+00 0.  1.
          2    1    1    2  502    0  0.39009675246E+02  0.21588264450E+02  0.13660442928E+04  0.13667716773E+04  0.00000000000E+00 0. -1.
         -2    1    1    2    0  502 -0.39009675246E+02 -0.21588264450E+02  0.42530845655E+03  0.42763897289E+03  0.00000000000E+00 0.  1.
</event>
<event>
 4    1  0.6145708E+003  0.3220044E+02  0.7546771E-02  0.1401391E+00
          2   -1    0    0  501    0  0.00000000000E+00  0.00000000000E+00  0.96303920273E+03  0.96303920273E+03  0.00000000000E+00 0.  1.
         -2   -1    0    0    0  501 -0.00000000000E+00 -0.00000000000E+00 -0.16320459507E+01  0.16320459507E+01  0.00000000000E+00 0.  1.
          2    1    1    2  502    0  0.31086026508E+02 -0.83980363419E+01  0.76207479670E+03  0.76275478617E+03  0.00000000000E+00 0.  1.
         -2    1    1    2    0  502 -0.31086026508E+02  0.83980363419E+01  0.19933236008E+03  0.20191646251E+03  0.00000000000E+00 0.  1.
</event>
<event>
 4    1  0.6145708E+003  0.3306968E+02  0.7546771E-02  0.1394667E+00
          2   -1    0    0  501    0  0.00000000000E+00  0.00000000000E+00  0.85228138724E+02  0.85228138724E+02  0.00000000000E+00 0.  1.
         -2   -1    0    0    0  501 -0.00000000000E+00 -0.00000000000E+00 -0.13079059056E+02  0.13079059056E+02  0.00000000000E+00 0.  1.
          2    1    1    2  502    0  0.13061141210E+02  0.30381068242E+02  0.29311708558E+02  0.44190258834E+02  0.00000000000E+00 0.  1.
         -2    1    1    2    0  502 -0.13061141210E+02 -0.30381068242E+02  0.42837371111E+02  0.54116938946E+02  0.00000000000E+00 0.  1.
</event>
<event>
 4    1  0.6145708E+003  0.2009579E+02  0.7546771E-02  0.1532576E+00
          2   -1    0    0  501    0  0.00000000000E+00  0.00000000000E+00  0.22117274100E+03  0.22117274100E+03  0.00000000000E+00 0. -1.
         -2   -1    0    0    0  501 -0.00000000000E+00 -0.00000000000E+00 -0.26945211212E+01  0.26945211212E+01  0.00000000000E+00 0. -1.
          2    1    1    2  502    0  0.19489321801E+02  0.48997185067E+01  0.17279168946E+03  0.17395634180E+03  0.00000000000E+00 0. -1.
         -2    1    1    2    0  502 -0.19489321801E+02 -0.48997185067E+01  0.45686530420E+02  0.49910920323E+02  0.00000000000E+00 0. -1.
</event>
<event>
 4    1  0.6145708E+003  0.2146831E+02  0.7546771E-02  0.1512682E+00
          2   -1    0    0  501    0  0.00000000000E+00  0.00000000000E+00  0.15976781394E+03  0.15976781394E+03  0.00000000000E+00 0. -1.
         -2   -1    0    0    0  501 -0.00000000000E+00 -0.00000000000E+00 -0.11075832020E+02  0.11075832020E+02  0.00000000000E+00 0.  1.
          2    1    1    2  502    0 -0.21462840537E+02 -0.48474952594E+00  0.14780610088E+03  0.14935706198E+03  0.00000000000E+00 0. -1.
         -2    1    1    2    0  502  0.21462840537E+02  0.48474952594E+00  0.88588104326E+00  0.21486583983E+02  0.00000000000E+00 0.  1.
</event>
<event>
 4    1  0.8032767E+003  0.2528741E+02  0.7546771E-02  0.1465614E+00
          2   -1    0    0  501    0  0.00000000000E+00  0.00000000000E+00  0.18556611457E+04  0.18556611457E+04  0.00000000000E+00 0. -1.
         -2   -1    0    0    0  501 -0.00000000000E+00 -0.00000000000E+00 -0.10540362358E+03  0.10540362358E+03  0.00000000000E+00 0.  1.
          2    1    1    2  502    0  0.22182405181E+02  0.12140593962E+02  0.18540570073E+04  0.18542294463E+04  0.00000000000E+00 0. -1.
         -2    1    1    2    0  502 -0.22182405181E+02 -0.12140593962E+02 -0.10379948517E+03  0.10683532301E+03  0.00000000000E+00 0.  1.
</event>
<event>
 4    1  0.6145708E+003  0.2911547E+02  0.7546771E-02  0.1427442E+00
          2   -1    0    0  501    0  0.00000000000E+00  0.00000000000E+00  0.10856068235E+03  0.10856068235E+03  0.00000000000E+00 0.  1.
         -2   -1    0    0    0  501 -0.00000000000E+00 -0.00000000000E+00 -0.11539660539E+03  0.11539660539E+03  0.00000000000E+00 0. -1.
          2    1    1    2  502    0 -0.19971301624E+02 -0.21186259656E+02  0.10470565139E+03  0.10867835074E+03  0.00000000000E+00 0.  1.
         -2    1    1    2    0  502  0.19971301624E+02  0.21186259656E+02 -0.11154157443E+03  0.11527893699E+03  0.00000000000E+00 0. -1.
</event>
<event>
 4    1  0.6145708E+003  0.4899665E+02  0.7546771E-02  0.1302582E+00
          2   -1    0    0  501    0  0.00000000000E+00  0.00000000000E+00  0.73753341602E+03  0.73753341602E+03  0.00000000000E+00 0.  1.
         -2   -1    0    0    0  501 -0.00000000000E+00 -0.00000000000E+00 -0.48570943588E+01  0.48570943588E+01  0.00000000000E+00 0. -1.
          2    1    1    2  502    0 -0.29677805050E+02 -0.38985894225E+02  0.57952384910E+03  0.58159140617E+03  0.00000000000E+00 0.  1.
         -2    1    1    2    0  502  0.29677805050E+02  0.38985894225E+02  0.15315247256E+03  0.16079910420E+03  0.00000000000E+00 0. -1.
</event>
<event>
 4    1  0.6145708E+003  0.2157524E+02  0.7546771E-02  0.1511208E+00
          2   -1    0    0  501    0  0.00000000000E+00  0.00000000000E+00  0.11743724790E+04  0.11743724790E+04  0.00000000000E+00 0.  1.
         -2   -1    0    0    0  501 -0.00000000000E+00 -0.00000000000E+00 -0.11781666108E+01  0.11781666108E+01  0.00000000000E+00 0. -1.
          2    1    1    2  502    0 -0.13899746209E+02  0.16501146833E+02  0.10653967313E+04  0.10656151678E+04  0.00000000000E+00 0.  1.
         -2    1    1    2    0  502  0.13899746209E+02 -0.16501146833E+02  0.10779758103E+03  0.10993547775E+03  0.00000000000E+00 0. -1.
</event>
<event>
 4    1  0.6145708E+003  0.2488681E+02  0.7546771E-02  0.1470074E+00
          2   -1    0    0  501    0  0.00000000000E+00  0.00000000000E+00  0.26042193218E+03  0.26042193218E+03  0.00000000000E+00 0. -1.
         -2   -1    0    0    0  501 -0.00000000000E+00 -0.00000000000E+00 -0.32040680691E+02  0.32040680691E+02  0.00000000000E+00 0. -1.
          2    1    1    2  502    0 -0.14628564029E+01 -0.24843776425E+02  0.25489018232E+03  0.25610224173E+03  0.00000000000E+00 0. -1.
         -2    1    1    2    0  502  0.14628564029E+01  0.24843776425E+02 -0.26508930830E+02  0.36360371143E+02  0.00000000000E+00 0. -1.
</event>
<event>
 4    1  0.6145708E+003  0.2211368E+02  0.7546771E-02  0.1503938E+00
          2   -1    0    0  501    0  0.00000000000E+00  0.00000000000E+00  0.12996739192E+04  0.12996739192E+04  0.00000000000E+00 0. -1.
         -2   -1    0    0    0  501 -0.00000000000E+00 -0.00000000000E+00 -0.19947751185E+01  0.19947751185E+01  0.00000000000E+00 0. -1.
          2    1    1    2  502    0  0.12858486547E+02  0.17990950057E+02  0.12350882945E+04  0.12352862463E+04  0.00000000000E+00 0. -1.
         -2    1    1    2    0  502 -0.12858486547E+02 -0.17990950057E+02  0.62590849558E+02  0.66382448047E+02  0.00000000000E+00 0. -1.
</event>
<event>
 4    1  0.6145708E+003  0.5207779E+02  0.7546771E-02  0.1289407E+00
          2   -1    0    0  501    0  0.00000000000E+00  0.00000000000E+00  0.33886178716E+03  0.33886178716E+03  0.00000000000E+00 0. -1.
         -2   -1    0    0    0  501 -0.00000000000E+00 -0.00000000000E+00 -0.81876793064E+02  0.81876793064E+02  0.00000000000E+00 0.  1.
          2    1    1    2  502    0  0.49148189335E+02 -0.17220670896E+02  0.32831551907E+03  0.33242018002E+03  0.00000000000E+00 0. -1.
         -2    1    1    2    0  502 -0.49148189335E+02  0.17220670896E+02 -0.71330524977E+02  0.88318400203E+02  0.00000000000E+00 0.  1.
</event>
<event>
 4    1  0.6145708E+003  0.2522516E+02  0.7546771E-02  0.1466300E+00
          2   -1    0    0  501    0  0.00000000000E+00  0.00000000000E+00  0.28739307399E+02  0.28739307399E+02  0.00000000000E+00 0.  1.
         -2   -1    0    0    0  501 -0.00000000000E+00 -0.00000000000E+00 -0.17797450377E+03  0.17797450377E+03  0.00000000000E+00 0.  1.
          2    1    1    2  502    0  0.12681078234E+02 -0.21805941746E+02  0.22096863018E+02  0.33534761008E+02  0.00000000000E+00 0.  1.
         -2    1    1    2    0  502 -0.12681078234E+02  0.21805941746E+02 -0.17133205939E+03  0.17317905016E+03  0.00000000000E+00 0.  1.
</event>
<event>
 4    1  0.6145708E+003  0.3292991E+02  0.7546771E-02  0.1395731E+00
          2   -1    0    0  501    0  0.00000000000E+00  0.00000000000E+00  0.22470262633E+04  0.22470262633E+04  0.00000000000E+00 0. -1.
         -2   -1    0    0    0  501 -0.00000000000E+00 -0.00000000000E+00 -0.12701098677E+01  0.12701098677E+01  0.00000000000E+00 0.  1.
          2    1    1    2  502    0 -0.31365048466E+02 -0.10030576066E+02  0.20080657504E+04  0.20083357381E+04  0.00000000000E+00 0. -1.
         -2    1    1    2    0  502  0.31365048466E+02  0.10030576066E+02  0.23769040299E+03  0.23996063509E+03  0.00000000000E+00 0.  1.
</event>
<event>
 4    1  0.6145708E+003  0.3892355E+02  0.7546771E-02  0.1354912E+00
          2   -1    0    0  501    0  0.00000000000E+00  0.00000000000E+00  0.90319021027E+02  0.90319021027E+02  0.00000000000E+00 0. -1.
         -2   -1    0    0    0  501 -0.00000000000E+00 -0.00000000000E+00 -0.26490668820E+02  0.26490668820E+02  0.00000000000E+00 0.  1.
          2    1    1    2  502    0 -0.29721304535E+01  0.38809892298E+02 -0.34573404498E+01  0.39076777025E+02  0.00000000000E+00 0.  1.
         -2    1    1    2    0  502  0.29721304535E+01 -0.38809892298E+02  0.67285692656E+02  0.77732912822E+02  0.00000000000E+00 0. -1.
</event>
<event>
 4    1  0.6145708E+003  0.2648747E+02  0.7546771E-02  0.1452826E+00
          2   -1    0    0  501    0  0.00000000000E+00  0.00000000000E+00  0.10257404227E+04  0.10257404227E+04  0.00000000000E+00 0.  1.
         -2   -1    0    0    0  501 -0.00000000000E+00 -0.00000000000E+00 -0.75268681575E+00  0.75268681575E+00  0.00000000000E+00 0. -1.
          2    1    1    2  502    0 -0.10650552040E+02  0.24251846727E+02  0.66756022520E+03  0.66808550396E+03  0.00000000000E+00 0.  1.
         -2    1    1    2    0  502  0.10650552040E+02 -0.24251846727E+02  0.35742751070E+03  0.35840760558E+03  0.00000000000E+00 0. -1.
</event>
<event>
 4    1  0.6145708E+003  0.4056226E+02  0.7546771E-02  0.1345222E+00
          2   -1    0    0  501    0  0.00000000000E+00  0.00000000000E+00  0.30417882824E+03  0.30417882824E+03  0.00000000000E+00 0.  1.
         -2   -1    0    0    0  501 -0.00000000000E+00 -0.00000000000E+00 -0.10239709945E+03  0.10239709945E+03  0.00000000000E+00 0.  1.
          2    1    1    2  502    0  0.29225601168E+02  0.28127580501E+02  0.29873679080E+03  0.30147797054E+03  0.00000000000E+00 0.  1.
         -2    1    1    2    0  502 -0.29225601168E+02 -0.28127580501E+02 -0.96955062005E+02  0.10509795715E+03  0.00000000000E+00 0.  1.
</event>
<event>
 4    1  0.6145708E+003  0.2881571E+02  0.7546771E-02  0.1430175E+00
          2   -1    0    0  501    0  0.00000000000E+00  0.00000000000E+00  0.19763937971E+03  0.19763937971E+03  0.00000000000E+00 0.  1.
         -2   -1    0    0    0  501 -0.00000000000E+00 -0.00000000000E+00 -0.15511135088E+02  0.15511135088E+02  0.00000000000E+00 0. -1.
          2    1    1    2  502    0 -0.85012115296E+01 -0.27533153880E+02  0.18206853706E+03  0.18433474264E+03  0.00000000000E+00 0.  1.
         -2    1    1    2    0  502  0.85012115296E+01  0.27533153880E+02  0.59707570423E-01  0.28815772158E+02  0.00000000000E+00 0. -1.
</event>
<event>
 4    1  0.6145708E+003  0.4081360E+02  0.7546771E-02  0.1343783E+00
          2   -1    0    0  501    0  0.00000000000E+00  0.00000000000E+00  0.22938525481E+03  0.22938525481E+03  0.00000000000E+00 0. -1.
         -2   -1    0    0    0  501 -0.00000000000E+00 -0.00000000000E+00 -0.16599780280E+02  0.16599780280E+02  0.00000000000E+00 0.  1.
          2    1    1    2  502    0  0.20166890383E+02 -0.35483042935E+02  0.19864010908E+03  0.20278965145E+03  0.00000000000E+00 0. -1.
         -2    1    1    2    0  502 -0.20166890383E+02  0.35483042935E+02  0.14145365456E+02  0.43195383637E+02  0.00000000000E+00 0.  1.
</event>
<event>
 4    1  0.6145708E+003  0.2581197E+02  0.7546771E-02  0.1459921E+00
          2   -1    0    0  501    0  0.00000000000E+00  0.00000000000E+00  0.52608130722E+03  0.52608130722E+03  0.00000000000E+00 0. -1.
         -2   -1    0    0    0  501 -0.00000000000E+00 -0.00000000000E+00 -0.25899384266E+03  0.25899384266E+03  0.00000000000E+00 0.  1.
          2    1    1    2  502    0  0.22735927954E+02  0.12220294193E+02  0.52512039600E+03  0.52575439923E+03  0.00000000000E+00 0. -1.
         -2    1    1    2    0  502 -0.22735927954E+02 -0.12220294193E+02 -0.25803293144E+03  0.25932075065E+03  0.00000000000E+00 0.  1.
</event>
<event>
 4    1  0.6145708E+003  0.2376030E+02  0.7546771E-02  0.1483165E+00
          2   -1    0    0  501    0  0.00000000000E+00  0.00000000000E+00  0.28121687557E+02  0.28121687557E+02  0.00000000000E+00 0.  1.
         -2   -1    0    0    0  501 -0.00000000000E+00 -0.00000000000E+00 -0.20491591491E+03  0.20491591491E+03  0.00000000000E+00 0.  1.
          2    1    1    2  502    0  0.12240113158E+02 -0.20364958644E+02  0.22267007772E+02  0.32563346662E+02  0.00000000000E+00 0.  1.
         -2    1    1    2    0  502 -0.12240113158E+02  0.20364958644E+02 -0.19906123512E+03  0.20047425580E+03  0.00000000000E+00 0.  1.
</event>
<event>
 4    1  0.6145708E+003  0.2841416E+02  0.7546771E-02  0.1433897E+00
          2   -1    0    0  501    0  0.00000000000E+00  0.00000000000E+00  0.18791835817E+04  0.18791835817E+04  0.00000000000E+00 0. -1.
         -2   -1    0    0    0  501 -0.00000000000E+00 -0.00000000000E+00 -0.55331289022E+00  0.55331289022E+00  0.00000000000E+00 0.  1.
          2    1    1    2  502    0 -0.27251367187E+02 -0.80453514465E+01  0.13836661361E+04  0.13839578537E+04  0.00000000000E+00 0. -1.
         -2    1    1    2    0  502  0.27251367187E+02  0.80453514465E+01  0.49496413273E+03  0.49577904089E+03  0.00000000000E+00 0.  1.
</event>
<event>
 4    1  0.6145708E+003  0.2124861E+02  0.7546771E-02  0.1515745E+00
          2   -1    0    0  501    0  0.00000000000E+00  0.00000000000E+00  0.23331334590E+03  0.23331334590E+03  0.00000000000E+00 0. -1.
         -2   -1    0    0    0  501 -0.00000000000E+00 -0.00000000000E+00 -0.81736349166E+01  0.81736349166E+01  0.00000000000E+00 0. -1.
          2    1    1    2  502    0  0.19427680281E+02  0.86063218589E+01  0.21805580016E+03  0.21908864763E+03  0.00000000000E+00 0. -1.
         -2    1    1    2    0  502 -0.19427680281E+02 -0.86063218589E+01  0.70839108262E+01  0.22398333189E+02  0.00000000000E+00 0. -1.
</event>
<event>
 4    1  0.6145708E+003  0.2423471E+02  0.7546771E-02  0.1477550E+00
          2   -1    0    0  501    0  0.00000000000E+00  0.00000000000E+00  0.93315464387E+02  0.93315464387E+02  0.00000000000E+00 0.  1.
         -2   -1    0    0    0  501 -0.00000000000E+00 -0.00000000000E+00 -0.72448030191E+02  0.72448030191E+02  0.00000000000E+00 0.  1.
          2    1    1    2  502    0 -0.11715929901E+02  0.21214572592E+02  0.89633499242E+02  0.92851953615E+02  0.00000000000E+00 0.  1.
         -2    1    1    2    0  502  0.11715929901E+02 -0.21214572592E+02 -0.68766065046E+02  0.72911540963E+02  0.00000000000E+00 0.  1.
</event>
<event>
 4    1  0.6145708E+003  0.2486972E+02  0.7546771E-02  0.1470266E+00
          2   -1    0    0  501    0  0.00000000000E+00  0.00000000000E+00  0.39065630899E+01  0.39065630899E+01  0.00000000000E+00 0.  1.
         -2   -1    0    0    0  501 -0.00000000000E+00 -0.00000000000E+00 -0.29565302436E+03  0.29565302436E+03  0.00000000000E+00 0. -1.
          2    1    1    2  502    0 -0.24861037051E+02 -0.65713898568E+00 -0.43792654858E+02  0.50361687962E+02  0.00000000000E+00 0.  1.
         -2    1    1    2    0  502  0.24861037051E+02  0.65713898568E+00 -0.24795380641E+03  0.24919789949E+03  0.00000000000E+00 0. -1.
</event>
<event>
 4    1  0.6145708E+003  0.2100077E+02  0.7546771E-02  0.1519254E+00
          2   -1    0    0  501    0  0.00000000000E+00  0.00000000000E+00  0.21319942116E+02  0.21319942116E+02  0.00000000000E+00 0. -1.
         -2   -1    0    0    0  501 -0.00000000000E+00 -0.00000000000E+00 -0.37691124695E+02  0.37691124695E+02  0.00000000000E+00 0. -1.
          2    1    1    2  502    0 -0.18707568577E+02 -0.95424909731E+01  0.11632831110E+02  0.24007395021E+02  0.00000000000E+00 0. -1.
         -2    1    1    2    0  502  0.18707568577E+02  0.95424909731E+01 -0.28004013690E+02  0.35003671790E+02  0.00000000000E+00 0. -1.
</event>
<event>
 4    1  0.6145708E+003  0.2565523E+02  0.7546771E-02  0.1461605E+00
          2   -1    0    0  501    0  0.00000000000E+00  0.00000000000E+00  0.30294202831E+03  0.30294202831E+03  0.00000000000E+00 0.  1.
         -2   -1    0    0    0  501 -0.00000000000E+00 -0.00000000000E+00 -0.31820780764E+01  0.31820780764E+01  0.00000000000E+00 0.  1.
          2    1    1    2  502    0  0.10030899512E+02 -0.23612965226E+02  0.23608784538E+03  0.23747770803E+03  0.00000000000E+00 0.  1.
         -2    1    1    2    0  502 -0.10030899512E+02  0.23612965226E+02  0.63672104856E+02  0.68646398366E+02  0.00000000000E+00 0.  1.
</event>
<event>
 4    1  0.6145708E+003  0.2785448E+02  0.7546771E-02  0.1439208E+00
          2   -1    0    0  501    0  0.00000000000E+00  0.00000000000E+00  0.36099305733E+03  0.36099305733E+03  0.00000000000E+00 0.  1.
         -2   -1    0    0    0  501 -0.00000000000E+00 -0.00000000000E+00 -0.72728842250E+01  0.72728842250E+01  0.00000000000E+00 0.  1.
          2    1    1    2  502    0  0.25379073212E+02 -0.11479324786E+02  0.33140914067E+03  0.33257764624E+03  0.00000000000E+00 0.  1.
         -2    1    1    2    0  502 -0.25379073212E+02  0.11479324786E+02  0.22311032435E+02  0.35688295321E+02  0.00000000000E+00 0.  1.
</event>
<event>
 4    1  0.6145708E+003  0.5262989E+02  0.7546771E-02  0.1287156E+00
          2   -1    0    0  501    0  0.00000000000E+00  0.00000000000E+00  0.33384878571E+04  0.33384878571E+04  0.00000000000E+00 0.  1.
         -2   -1    0    0    0  501 -0.00000000000E+00 -0.00000000000E+00 -0.68257193857E+01  0.68257193857E+01  0.00000000000E+00 0. -1.
          2    1    1    2  502    0  0.10643116651E+01  0.52619123318E+02  0.32335368288E+04  0.32339651093E+04  0.00000000000E+00 0.  1.
         -2    1    1    2    0  502 -0.10643116651E+01 -0.52619123318E+02  0.98125308942E+02  0.11134846722E+03  0.00000000000E+00 0. -1.
</event>
<event>
 4    1  0.6145708E+003  0.2168463E+02  0.7546771E-02  0.1509711E+00
          2   -1    0    0  501    0  0.00000000000E+00  0.00000000000E+00  0.12681030902E+04  0.12681030902E+04  0.00000000000E+00 0.  1.
         -2   -1    0    0    0  501 -0.00000000000E+00 -0.00000000000E+00 -0.61191276728E+00  0.61191276728E+00  0.00000000000E+00 0.  1.
          2    1    1    2  502    0 -0.20575405886E+02 -0.68465835356E+01  0.10319371343E+04  0.10321649442E+04  0.00000000000E+00 0.  1.
         -2    1    1    2    0  502  0.20575405886E+02  0.68465835356E+01  0.23555404322E+03  0.23655005879E+03  0.00000000000E+00 0.  1.
</event>
<event>
 4    1  0.6145708E+003  0.2042782E+02  0.7546771E-02  0.1527593E+00
          2   -1    0    0  501    0  0.00000000000E+00  0.00000000000E+00  0.16856131588E+02  0.16856131588E+02  0.00000000000E+00 0.  1.
         -2   -1    0    0    0  501 -0.00000000000E+00 -0.00000000000E+00 -0.23963178225E+03  0.23963178225E+03  0.00000000000E+00 0. -1.
          2    1    1    2  502    0  0.82448120718E+01  0.18690078798E+02  0.10051152094E+02  0.22766678062E+02  0.00000000000E+00 0.  1.
         -2    1    1    2    0  502 -0.82448120718E+01 -0.18690078798E+02 -0.23282680275E+03  0.23372123577E+03  0.00000000000E+00 0. -1.
</event>
<event>
 4    1  0.6145708E+003  0.2380483E+02  0.7546771E-02  0.1482632E+00
          2   -1    0    0  501    0  0.00000000000E+00  0.00000000000E+00  0.22476093054E+03  0.22476093054E+03  0.00000000000E+00 0.  1.
         -2   -1    0    0    0  501 -0.00000000000E+00 -0.00000000000E+00 -0.27225558330E+01  0.27225558330E+01  0.00000000000E+00 0.  1.
          2    1    1    2  502    0 -0.10766483822E+01  0.23780472806E+02  0.14195062830E+03  0.14393280007E+03  0.00000000000E+00 0.  1.
         -2    1    1    2    0  502  0.10766483822E+01 -0.23780472806E+02  0.80087746399E+02  0.83550686304E+02  0.00000000000E+00 0.  1.
</event>
<event>
 4    1  0.6145708E+003  0.3209929E+02  0.7546771E-02  0.1402190E+00
          2   -1    0    0  501    0  0.00000000000E+00  0.00000000000E+00  0.10255102722E+02  0.10255102722E+02  0.00000000000E+00 0. -1.
         -2   -1    0    0    0  501 -0.00000000000E+00 -0.00000000000E+00 -0.13033156406E+03  0.13033156406E+03  0.00000000000E+00 0.  1.
          2    1    1    2  502    0 -0.16845601354E+02 -0.27323802636E+02 -0.26393172479E+02  0.41556756719E+02  0.00000000000E+00 0. -1.
         -2    1    1    2    0  502  0.16845601354E+02  0.27323802636E+02 -0.93683288856E+02  0.99029910059E+02  0.00000000000E+00 0.  1.
</event>
<event>
 4    1  0.6145708E+003  0.2573225E+02  0.7546771E-02  0.1460776E+00
          2   -1    0    0  501    0  0.00000000000E+00  0.00000000000E+00  0.22862442076E+03  0.22862442076E+03  0.00000000000E+00 0.  1.
         -2   -1    0    0    0  501 -0.00000000000E+00 -0.00000000000E+00 -0.34402736078E+01  0.34402736078E+01  0.00000000000E+00 0.  1.
          2    1    1    2  502    0 -0.20752268638E+01  0.25648433634E+02  0.15873443073E+03  0.16080661744E+03  0.00000000000E+00 0.  1.
         -2    1    1    2    0  502  0.20752268638E+01 -0.25648433634E+02  0.66449716425E+02  0.71258076927E+02  0.00000000000E+00 0.  1.
</event>
<event>
 4    1  0.6145708E+003  0.2420805E+02  0.7546771E-02  0.1477861E+00
          2   -1    0    0  501    0  0.00000000000E+00  0.00000000000E+00  0.57269257783E+02  0.57269257783E+02  0.00000000000E+00 0. -1.
         -2   -1    0    0    0  501 -0.00000000000E+00 -0.00000000000E+00 -0.55161917181E+03  0.55161917181E+03  0.00000000000E+00 0. -1.
          2    1    1    2  502    0 -0.23649325256E+02  0.51709685920E+01  0.54432223598E+02  0.59572615077E+02  0.00000000000E+00 0. -1.
         -2    1    1    2    0  502  0.23649325256E+02 -0.51709685920E+01 -0.54878213763E+03  0.54931581452E+03  0.00000000000E+00 0. -1.
</event>
<event>
 4    1  0.6145708E+003  0.2449668E+02  0.7546771E-02  0.1474513E+00
          2   -1    0    0  501    0  0.00000000000E+00  0.00000000000E+00  0.26097326672E+03  0.26097326672E+03  0.00000000000E+00 0. -1.
         -2   -1    0    0    0  501 -0.00000000000E+00 -0.00000000000E+00 -0.43861330518E+01  0.43861330518E+01  0.00000000000E+00 0.  1.
          2    1    1    2  502    0  0.89426073693E+01 -0.22806075505E+02  0.21980911450E+03  0.22116992139E+03  0.00000000000E+00 0. -1.
         -2    1    1    2    0  502 -0.89426073693E+01  0.22806075505E+02  0.36778019168E+02  0.44189478390E+02  0.00000000000E+00 0.  1.
</event>
<event>
 4    1  0.6145708E+003  0.2008468E+02  0.7546771E-02  0.1532745E+00
          2   -1    0    0  501    0  0.00000000000E+00  0.00000000000E+00  0.41171913154E+03  0.41171913154E+03  0.00000000000E+00 0. -1.
         -2   -1    0    0    0  501 -0.00000000000E+00 -0.00000000000E+00 -0.44091006365E+01  0.44091006365E+01  0.00000000000E+00 0.  1.
          2    1    1    2  502    0 -0.77351260623E+00  0.20069776102E+02  0.38715085281E+03  0.38767148085E+03  0.00000000000E+00 0. -1.
         -2    1    1    2    0  502  0.77351260623E+00 -0.20069776102E+02  0.20159178093E+02  0.28456751324E+02  0.00000000000E+00 0.  1.
</event>
<event>
 4    1  0.6145708E+003  0.2455378E+02  0.7546771E-02  0.1473858E+00
          2   -1    0    0  501    0  0.00000000000E+00  0.00000000000E+00  0.17546441681E+02  0.17546441681E+02  0.00000000000E+00 0. -1.
         -2   -1    0    0    0  501 -0.00000000000E+00 -0.00000000000E+00 -0.91008456996E+02  0.91008456996E+02  0.00000000000E+00 0.  1.
          2    1    1    2  502    0 -0.37334880759E+00  0.24550938384E+02  0.60917168843E+01  0.25298161582E+02  0.00000000000E+00 0. -1.
         -2    1    1    2    0  502  0.37334880759E+00 -0.24550938384E+02 -0.79553732199E+02  0.83256737095E+02  0.00000000000E+00 0.  1.
</event>
<event>
 4    1  0.6145708E+003  0.2896865E+02  0.7546771E-02  0.1428776E+00
          2   -1    0    0  501    0  0.00000000000E+00  0.00000000000E+00  0.24617337468E+04  0.24617337468E+04  0.00000000000E+00 0.  1.
         -2   -1    0    0    0  501 -0.00000000000E+00 -0.00000000000E+00 -0.38278389354E+00  0.38278389354E+00  0.00000000000E+00 0.  1.
          2    1    1    2  502    0 -0.16620371088E+02 -0.23726463314E+02  0.82341315460E+03  0.82392257219E+03  0.00000000000E+00 0.  1.
         -2    1    1    2    0  502  0.16620371088E+02  0.23726463314E+02  0.16379378083E+04  0.16381939585E+04  0.00000000000E+00 0.  1.
</event>
<event>
 4    1  0.6145708E+003  0.2143251E+02  0.7546771E-02  0.1513178E+00
          2   -1    0    0  501    0  0.00000000000E+00  0.00000000000E+00  0.39647253962E+03  0.39647253962E+03  0.00000000000E+00 0. -1.
         -2   -1    0    0    0  501 -0.00000000000E+00 -0.00000000000E+00 -0.11530609397E+02  0.11530609397E+02  0.00000000000E+00 0.  1.
          2    1    1    2  502    0 -0.62762483410E+01  0.20492955309E+02  0.38595220873E+03  0.38654684054E+03  0.00000000000E+00 0. -1.
         -2    1    1    2    0  502  0.62762483410E+01 -0.20492955309E+02 -0.10102785103E+01  0.21456308471E+02  0.00000000000E+00 0.  1.
</event>
<event>
 4    1  0.6145708E+003  0.2214590E+02  0.7546771E-02  0.1503511E+00
          2   -1    0    0  501    0  0.00000000000E+00  0.00000000000E+00  0.17579433913E+04  0.17579433913E+04  0.00000000000E+00 0. -1.
         -2   -1    0    0    0  501 -0.00000000000E+00 -0.00000000000E+00 -0.58691830897E+00  0.58691830897E+00  0.00000000000E+00 0.  1.
          2    1    1    2  502    0  0.90943535701E+01 -0.20192414395E+02  0.15155602081E+04  0.15157220013E+04  0.00000000000E+00 0. -1.
         -2    1    1    2    0  502 -0.90943535701E+01  0.20192414395E+02  0.24179626495E+03  0.24280830836E+03  0.00000000000E+00 0.  1.
</event>
<event>
 4    1  0.6145708E+003  0.3625998E+02  0.7546771E-02  0.1371915E+00
          2   -1    0    0  501    0  0.00000000000E+00  0.00000000000E+00  0.20341645892E+03  0.20341645892E+03  0.00000000000E+00 0.  1.
         -2   -1    0    0    0  501 -0.00000000000E+00 -0.00000000000E+00 -0.83299187923E+02  0.83299187923E+02  0.00000000000E+00 0.  1.
          2    1    1    2  502    0  0.35914880901E+02 -0.49907739086E+01  0.19774231009E+03  0.20103931878E+03  0.00000000000E+00 0.  1.
         -2    1    1    2    0  502 -0.35914880901E+02  0.49907739086E+01 -0.77625039101E+02  0.85676328059E+02  0.00000000000E+00 0.  1.
</event>
<event>
 4    1  0.6145708E+003  0.2199853E+02  0.7546771E-02  0.1505472E+00
          2   -1    0    0  501    0  0.00000000000E+00  0.00000000000E+00  0.30177080476E+03  0.30177080476E+03  0.00000000000E+00 0. -1.
         -2   -1    0    0    0  501 -0.00000000000E+00 -0.00000000000E+00 -0.36087204906E+02  0.36087204906E+02  0.00000000000E+00 0.  1.
          2    1    1    2  502    0 -0.68151405895E-01  0.21998427855E+02  0.29797469738E+03  0.29878563512E+03  0.00000000000E+00 0. -1.
         -2    1    1    2    0  502  0.68151405895E-01 -0.21998427855E+02 -0.32291097532E+02  0.39072374544E+02  0.00000000000E+00 0.  1.
</event>
<event>
 4    1  0.6145708E+003  0.2275429E+02  0.7546771E-02  0.1495607E+00
          2   -1    0    0  501    0  0.00000000000E+00  0.00000000000E+00  0.36103887172E+03  0.36103887172E+03  0.00000000000E+00 0. -1.
         -2   -1    0    0    0  501 -0.00000000000E+00 -0.00000000000E+00 -0.36397305257E+01  0.36397305257E+01  0.00000000000E+00 0.  1.
          2    1    1    2  502    0 -0.81267137104E+01 -0.21253565858E+02  0.32064268106E+03  0.32144904177E+03  0.00000000000E+00 0. -1.
         -2    1    1    2    0  502  0.81267137104E+01  0.21253565858E+02  0.36756460141E+02  0.43229560482E+02  0.00000000000E+00 0.  1.
</event>
<event>
 4    1  0.6145708E+003  0.8922630E+02  0.7546771E-02  0.1183912E+00
          2   -1    0    0  501    0  0.00000000000E+00  0.00000000000E+00  0.23848070123E+03  0.23848070123E+03  0.00000000000E+00 0.  1.
         -2   -1    0    0    0  501 -0.00000000000E+00 -0.00000000000E+00 -0.10255836675E+03  0.10255836675E+03  0.00000000000E+00 0.  1.
          2    1    1    2  502    0 -0.88647773854E+02  0.10144176246E+02  0.20800455289E+03  0.22633432383E+03  0.00000000000E+00 0.  1.
         -2    1    1    2    0  502  0.88647773854E+02 -0.10144176246E+02 -0.72082218405E+02  0.11470474415E+03  0.00000000000E+00 0.  1.
</event>
<event>
 4    1  0.6145708E+003  0.2143142E+02  0.7546771E-02  0.1513194E+00
          2   -1    0    0  501    0  0.00000000000E+00  0.00000000000E+00  0.55854388239E+01  0.55854388239E+01  0.00000000000E+00 0.  1.
         -2   -1    0    0    0  501 -0.00000000000E+00 -0.00000000000E+00 -0.92619767153E+02  0.92619767153E+02  0.00000000000E+00 0.  1.
          2    1    1    2  502    0  0.87853908878E+01  0.19547963239E+02 -0.27073514075E+02  0.34529424035E+02  0.00000000000E+00 0.  1.
         -2    1    1    2    0  502 -0.87853908878E+01 -0.19547963239E+02 -0.59960814254E+02  0.63675781941E+02  0.00000000000E+00 0.  1.
</event>
<event>
 4    1  0.6145708E+003  0.2528126E+02  0.7546771E-02  0.1465681E+00
          2   -1    0    0  501    0  0.00000000000E+00  0.00000000000E+00  0.11029302009E+02  0.11029302009E+02  0.00000000000E+00 0.  1.
         -2   -1    0    0    0  501 -0.00000000000E+00 -0.00000000000E+00 -0.64357659389E+02  0.64357659389E+02  0.00000000000E+00 0.  1.
          2    1    1    2  502    0 -0.19282049308E+02 -0.16350681680E+02 -0.14770019191E+02  0.29279612085E+02  0.00000000000E+00 0.  1.
         -2    1    1    2    0  502  0.19282049308E+02  0.16350681680E+02 -0.38558338189E+02  0.46107349314E+02  0.00000000000E+00 0.  1.
</event>
<event>
 4    1  0.6145708E+003  0.2121943E+02  0.7546771E-02  0.1516155E+00
          2   -1    0    0  501    0  0.00000000000E+00  0.00000000000E+00  0.55670440276E+02  0.55670440276E+02  0.00000000000E+00 0. -1.
         -2   -1    0    0    0  501 -0.00000000000E+00 -0.00000000000E+00 -0.15870565096E+02  0.15870565096E+02  0.00000000000E+00 0. -1.
          2    1    1    2  502    0  0.14946972039E+02  0.15061621550E+02  0.44948873337E+02  0.49705790720E+02  0.00000000000E+00 0. -1.
         -2    1    1    2    0  502 -0.14946972039E+02 -0.15061621550E+02 -0.51489981574E+01  0.21835214652E+02  0.00000000000E+00 0. -1.
</event>
<event>
 4    1  0.6145708E+003  0.4625734E+02  0.7546771E-02  0.1315269E+00
          2   -1    0    0  501    0  0.00000000000E+00  0.00000000000E+00  0.19312734354E+02  0.19312734354E+02  0.00000000000E+00 0.  1.
         -2   -1    0    0    0  501 -0.00000000000E+00 -0.00000000000E+00 -0.21378730670E+04  0.21378730670E+04  0.00000000000E+00 0. -1.
          2    1    1    2  502    0 -0.46231711220E+02  0.15396822060E+01 -0.90078774218E+01  0.47126251700E+02  0.00000000000E+00 0.  1.
         -2    1    1    2    0  502  0.46231711220E+02 -0.15396822060E+01 -0.21095524552E+04  0.21100595497E+04  0.00000000000E+00 0. -1.
</event>
<event>
 4    1  0.6145708E+003  0.3194883E+02  0.7546771E-02  0.1403384E+00
          2   -1    0    0  501    0  0.00000000000E+00  0.00000000000E+00  0.67039061892E+02  0.67039061892E+02  0.00000000000E+00 0.  1.
         -2   -1    0    0    0  501 -0.00000000000E+00 -0.00000000000E+00 -0.49820754052E+02  0.49820754052E+02  0.00000000000E+00 0. -1.
          2    1    1    2  502    0  0.23594036150E+02  0.21541808520E+02  0.57298729891E+02  0.65603906159E+02  0.00000000000E+00 0.  1.
         -2    1    1    2    0  502 -0.23594036150E+02 -0.21541808520E+02 -0.40080422051E+02  0.51255909785E+02  0.00000000000E+00 0. -1.
</event>
<event>
 4    1  0.6145708E+003  0.2047298E+02  0.7546771E-02  0.1526924E+00
          2   -1    0    0  501    0  0.00000000000E+00  0.00000000000E+00  0.21544545877E+03  0.21544545877E+03  0.00000000000E+00 0.  1.
         -2   -1    0    0    0  501 -0.00000000000E+00 -0.00000000000E+00 -0.13747524602E+02  0.13747524602E+02  0.00000000000E+00 0. -1.
          2    1    1    2  502    0  0.20295202252E+02  0.26921407507E+01  0.20702777956E+03  0.20803760325E+03  0.00000000000E+00 0.  1.
         -2    1    1    2    0  502 -0.20295202252E+02 -0.26921407507E+01 -0.53298453912E+01  0.21155380123E+02  0.00000000000E+00 0. -1.
</event>
<event>
 4    1  0.6145708E+003  0.2263116E+02  0.7546771E-02  0.1497182E+00
          2   -1    0    0  501    0  0.00000000000E+00  0.00000000000E+00  0.42590519794E+03  0.42590519794E+03  0.00000000000E+00 0.  1.
         -2   -1    0    0    0  501 -0.00000000000E+00 -0.00000000000E+00 -0.26772370101E+01  0.26772370101E+01  0.00000000000E+00 0. -1.
          2    1    1    2  502    0 -0.22575364376E+02 -0.15882037636E+01  0.37065599468E+03  0.37134624794E+03  0.00000000000E+00 0.  1.
         -2    1    1    2    0  502  0.22575364376E+02  0.15882037636E+01  0.52571966250E+02  0.57236187009E+02  0.00000000000E+00 0. -1.
</event>
<event>
 4    1  0.6145708E+003  0.2025150E+02  0.7546771E-02  0.1530225E+00
          2   -1    0    0  501    0  0.00000000000E+00  0.00000000000E+00  0.15652520297E+04  0.15652520297E+04  0.00000000000E+00 0.  1.
         -2   -1    0    0    0  501 -0.00000000000E+00 -0.00000000000E+00 -0.63284514116E+00  0.63284514116E+00  0.00000000000E+00 0.  1.
          2    1    1    2  502    0 -0.15773971829E+02 -0.12700592244E+02  0.13816412660E+04  0.13817896769E+04  0.00000000000E+00 0.  1.
         -2    1    1    2    0  502  0.15773971829E+02  0.12700592244E+02  0.18297791858E+03  0.18409519798E+03  0.00000000000E+00 0.  1.
</event>
<event>
 4    1  0.6145708E+003  0.2909191E+02  0.7546771E-02  0.1427655E+00
          2   -1    0    0  501    0  0.00000000000E+00  0.00000000000E+00  0.21775571487E+03  0.21775571487E+03  0.00000000000E+00 0.  1.
         -2   -1    0    0    0  501 -0.00000000000E+00 -0.00000000000E+00 -0.42259309517E+02  0.42259309517E+02  0.00000000000E+00 0. -1.
          2    1    1    2  502    0 -0.28576041788E+02  0.54542800874E+01  0.21163305949E+03  0.21362324593E+03  0.00000000000E+00 0.  1.
         -2    1    1    2    0  502  0.28576041788E+02 -0.54542800874E+01 -0.36136654138E+02  0.46391778450E+02  0.00000000000E+00 0. -1.
</event>
<event>
 4    1  0.6145708E+003  0.2260732E+02  0.7546771E-02  0.1497489E+00
          2   -1    0    0  501    0  0.00000000000E+00  0.00000000000E+00  0.12780544390E+04  0.12780544390E+04  0.00000000000E+00 0. -1.
         -2   -1    0    0    0  501 -0.00000000000E+00 -0.00000000000E+00 -0.11260115196E+02  0.11260115196E+02  0.00000000000E+00 0.  1.
          2    1    1    2  502    0  0.19904042588E+02  0.10720077466E+02  0.12665036075E+04  0.12667053638E+04  0.00000000000E+00 0. -1.
         -2    1    1    2    0  502 -0.19904042588E+02 -0.10720077466E+02  0.29071629572E+00  0.22609190348E+02  0.00000000000E+00 0.  1.
</event>
<event>
 4    1  0.6145708E+003  0.2008466E+02  0.7546771E-02  0.1532745E+00
          2   -1    0    0  501    0  0.00000000000E+00  0.00000000000E+00  0.26343621283E+03  0.26343621283E+03  0.00000000000E+00 0.  1.
         -2   -1    0    0    0  501 -0.00000000000E+00 -0.00000000000E+00 -0.20286622179E+01  0.20286622179E+01  0.00000000000E+00 0.  1.
          2    1    1    2  502    0  0.31917137010E+01 -0.19829435987E+02  0.19642702723E+03  0.19745118535E+03  0.00000000000E+00 0.  1.
         -2    1    1    2    0  502 -0.31917137010E+01  0.19829435987E+02  0.64980523380E+02  0.68013689701E+02  0.00000000000E+00 0.  1.
</event>
<event>
 4    1 -0.6145708E+003  0.4665244E+02  0.7546771E-02  0.1313377E+00
          2   -1    0    0  501    0  0.00000000000E+00  0.00000000000E+00  0.90660862860E+00  0.90660862860E+00  0.00000000000E+00 0. -1.
         -2   -1    0    0    0  501 -0.00000000000E+00 -0.00000000000E+00 -0.39885239109E+04  0.39885239109E+04  0.00000000000E+00 0. -1.
          2    1    1    2  502    0 -0.41885134899E+02  0.20544719558E+02 -0.73522289249E+03  0.73670153500E+03  0.00000000000E+00 0. -1.
         -2    1    1    2    0  502  0.41885134899E+02 -0.20544719558E+02 -0.32523944098E+04  0.32527289845E+04  0.00000000000E+00 0. -1.
</event>
<event>
 4    1  0.6145708E+003  0.3351707E+02  0.7546771E-02  0.1391299E+00
          2   -1    0    0  501    0  0.00000000000E+00  0.00000000000E+00  0.18830487239E+03  0.18830487239E+03  0.00000000000E+00 0. -1.
         -2   -1    0    0    0  501 -0.00000000000E+00 -0.00000000000E+00 -0.18486170122E+02  0.18486170122E+02  0.00000000000E+00 0. -1.
          2    1    1    2  502    0 -0.27895425203E+02 -0.18580607932E+02  0.17000089840E+03  0.17327348094E+03  0.00000000000E+00 0. -1.
         -2    1    1    2    0  502  0.27895425203E+02  0.18580607932E+02 -0.18219613675E+00  0.33517561573E+02  0.00000000000E+00 0. -1.
</event>
<event>
 4    1  0.6145708E+003  0.2277886E+02  0.7546771E-02  0.1495294E+00
          2   -1    0    0  501    0  0.00000000000E+00  0.00000000000E+00  0.13469059158E+04  0.13469059158E+04  0.00000000000E+00 0. -1.
         -2   -1    0    0    0  501 -0.00000000000E+00 -0.00000000000E+00 -0.95784617953E+01  0.95784617953E+01  0.00000000000E+00 0. -1.
          2    1    1    2  502    0 -0.21276539243E+02 -0.81354396160E+01  0.13331268471E+04  0.13333214417E+04  0.00000000000E+00 0. -1.
         -2    1    1    2    0  502  0.21276539243E+02  0.81354396160E+01  0.42006069057E+01  0.23162935873E+02  0.00000000000E+00 0. -1.
</event>
<event>
 4    1  0.7394762E+003  0.2482821E+02  0.7546771E-02  0.1470734E+00
          2   -1    0    0  501    0  0.00000000000E+00  0.00000000000E+00  0.80012379817E+03  0.80012379817E+03  0.00000000000E+00 0. -1.
         -2   -1    0    0    0  501 -0.00000000000E+00 -0.00000000000E+00 -0.15983138726E+03  0.15983138726E+03  0.00000000000E+00 0. -1.
          2    1    1    2  502    0  0.16841782029E+01 -0.24771018631E+02  0.79896558980E+03  0.79935127041E+03  0.00000000000E+00 0. -1.
         -2    1    1    2    0  502 -0.16841782029E+01  0.24771018631E+02 -0.15867317890E+03  0.16060391502E+03  0.00000000000E+00 0. -1.
</event>
<event>
 4    1  0.6145708E+003  0.2695589E+02  0.7546771E-02  0.1448052E+00
          2   -1    0    0  501    0  0.00000000000E+00  0.00000000000E+00  0.18002069514E+04  0.18002069514E+04  0.00000000000E+00 0.  1.
         -2   -1    0    0    0  501 -0.00000000000E+00 -0.00000000000E+00 -0.70807183085E+00  0.70807183085E+00  0.00000000000E+00 0. -1.
          2    1    1    2  502    0 -0.26955807595E+02  0.68074133762E-01  0.14901893060E+04  0.14904330873E+04  0.00000000000E+00 0.  1.
         -2    1    1    2    0  502  0.26955807595E+02 -0.68074133762E-01  0.30930957358E+03  0.31048193588E+03  0.00000000000E+00 0. -1.
</event>
<event>
 4    1  0.6145708E+003  0.4703433E+02  0.7546771E-02  0.1311569E+00
          2   -1    0    0  501    0  0.00000000000E+00  0.00000000000E+00  0.21420135384E+03  0.21420135384E+03  0.00000000000E+00 0. -1.
         -2   -1    0    0    0  501 -0.00000000000E+00 -0.00000000000E+00 -0.21115218088E+02  0.21115218088E+02  0.00000000000E+00 0.  1.
          2    1    1    2  502    0 -0.21951494938E+02  0.41597593212E+02  0.18064066113E+03  0.18666353780E+03  0.00000000000E+00 0. -1.
         -2    1    1    2    0  502  0.21951494938E+02 -0.41597593212E+02  0.12445474620E+02  0.48653034125E+02  0.00000000000E+00 0.  1.
</event>
<event>
 4    1  0.6145708E+003  0.2209286E+02  0.7546771E-02  0.1504214E+00
          2   -1    0    0  501    0  0.00000000000E+00  0.00000000000E+00  0.70785528482E+03  0.70785528482E+03  0.00000000000E+00 0.  1.
         -2   -1    0    0    0  501 -0.00000000000E+00 -0.00000000000E+00 -0.10903570410E+01  0.10903570410E+01  0.00000000000E+00 0.  1.
          2    1    1    2  502    0 -0.19000289936E+02  0.11273127833E+02  0.56829994598E+03  0.56872921767E+03  0.00000000000E+00 0.  1.
         -2    1    1    2    0  502  0.19000289936E+02 -0.11273127833E+02  0.13846498180E+03  0.14021642419E+03  0.00000000000E+00 0.  1.
</event>
<event>
 4    1  0.6145708E+003  0.3857639E+02  0.7546771E-02  0.1357036E+00
          2   -1    0    0  501    0  0.00000000000E+00  0.00000000000E+00  0.16027338540E+04  0.16027338540E+04  0.00000000000E+00 0. -1.
         -2   -1    0    0    0  501 -0.00000000000E+00 -0.00000000000E+00 -0.10293183926E+01  0.10293183926E+01  0.00000000000E+00 0. -1.
          2    1    1    2  502    0  0.70953146871E+01  0.37918260996E+02  0.10518129949E+04  0.10525201729E+04  0.00000000000E+00 0. -1.
         -2    1    1    2    0  502 -0.70953146871E+01 -0.37918260996E+02  0.54989154070E+03  0.55124299954E+03  0.00000000000E+00 0. -1.
</event>
<event>
 4    1  0.6145708E+003  0.2114059E+02  0.7546771E-02  0.1517267E+00
          2   -1    0    0  501    0  0.00000000000E+00  0.00000000000E+00  0.67074930292E+03  0.67074930292E+03  0.00000000000E+00 0. -1.
         -2   -1    0    0    0  501 -0.00000000000E+00 -0.00000000000E+00 -0.78709146424E+00  0.78709146424E+00  0.00000000000E+00 0. -1.
          2    1    1    2  502    0  0.93299197432E+01 -0.18970426173E+02  0.46651382354E+03  0.46699258241E+03  0.00000000000E+00 0. -1.
         -2    1    1    2    0  502 -0.93299197432E+01  0.18970426173E+02  0.20344838791E+03  0.20454381197E+03  0.00000000000E+00 0. -1.
</event>
<event>
 4    1  0.6145708E+003  0.2134664E+02  0.7546771E-02  0.1514373E+00
          2   -1    0    0  501    0  0.00000000000E+00  0.00000000000E+00  0.44077741773E+03  0.44077741773E+03  0.00000000000E+00 0. -1.
         -2   -1    0    0    0  501 -0.00000000000E+00 -0.00000000000E+00 -0.13730756870E+03  0.13730756870E+03  0.00000000000E+00 0. -1.
          2    1    1    2  502    0  0.97677767157E+01  0.18980764961E+02  0.43968724181E+03  0.44020512208E+03  0.00000000000E+00 0. -1.
         -2    1    1    2    0  502 -0.97677767157E+01 -0.18980764961E+02 -0.13621739278E+03  0.13787986436E+03  0.00000000000E+00 0. -1.
</event>
<event>
 4    1  0.6145708E+003  0.3246676E+02  0.7546771E-02  0.1399304E+00
          2   -1    0    0  501    0  0.00000000000E+00  0.00000000000E+00  0.16179687094E+04  0.16179687094E+04  0.00000000000E+00 0. -1.
         -2   -1    0    0    0  501 -0.00000000000E+00 -0.00000000000E+00 -0.23201255378E+02  0.23201255378E+02  0.00000000000E+00 0. -1.
          2    1    1    2  502    0 -0.23383183223E+02 -0.22523709765E+02  0.16063656817E+04  0.16066937462E+04  0.00000000000E+00 0. -1.
         -2    1    1    2    0  502  0.23383183223E+02  0.22523709765E+02 -0.11598227705E+02  0.34476218544E+02  0.00000000000E+00 0. -1.
</event>
<event>
 4    1  0.6145708E+003  0.3154638E+02  0.7546771E-02  0.1406618E+00
          2   -1    0    0  501    0  0.00000000000E+00  0.00000000000E+00  0.23185208008E+04  0.23185208008E+04  0.00000000000E+00 0.  1.
         -2   -1    0    0    0  501 -0.00000000000E+00 -0.00000000000E+00 -0.93426863560E+01  0.93426863560E+01  0.00000000000E+00 0.  1.
          2    1    1    2  502    0  0.24568405049E+02  0.19788074179E+02  0.22914693655E+04  0.22916865028E+04  0.00000000000E+00 0.  1.
         -2    1    1    2    0  502 -0.24568405049E+02 -0.19788074179E+02  0.17708749036E+02  0.36176984379E+02  0.00000000000E+00 0.  1.
</event>
<event>
 4    1  0.6145708E+003  0.6037438E+02  0.7546771E-02  0.1258566E+00
          2   -1    0    0  501    0  0.00000000000E+00  0.00000000000E+00  0.50210912407E+03  0.50210912407E+03  0.00000000000E+00 0. -1.
         -2   -1    0    0    0  501 -0.00000000000E+00 -0.00000000000E+00 -0.81996009673E+01  0.81996009673E+01  0.00000000000E+00 0.  1.
          2    1    1    2  502    0  0.42211048709E+01 -0.60226636615E+02  0.33335041855E+03  0.33877362210E+03  0.00000000000E+00 0. -1.
         -2    1    1    2    0  502 -0.42211048709E+01  0.60226636615E+02  0.16055910455E+03  0.17153510293E+03  0.00000000000E+00 0.  1.
</event>
<event>
 4    1  0.6145708E+003  0.2193946E+02  0.7546771E-02  0.1506263E+00
          2   -1    0    0  501    0  0.00000000000E+00  0.00000000000E+00  0.41422770951E+01  0.41422770951E+01  0.00000000000E+00 0.  1.
         -2   -1    0    0    0  501 -0.00000000000E+00 -0.00000000000E+00 -0.14701449698E+03  0.14701449698E+03  0.00000000000E+00 0.  1.
          2    1    1    2  502    0  0.17949888606E+02  0.12615126227E+02 -0.36835588865E+02  0.42874240725E+02  0.00000000000E+00 0.  1.
         -2    1    1    2    0  502 -0.17949888606E+02 -0.12615126227E+02 -0.10603663102E+03  0.10828253335E+03  0.00000000000E+00 0.  1.
</event>
<event>
 4    1  0.6145708E+003  0.2796093E+02  0.7546771E-02  0.1438187E+00
          2   -1    0    0  501    0  0.00000000000E+00  0.00000000000E+00  0.94757035959E+03  0.94757035959E+03  0.00000000000E+00 0.  1.
         -2   -1    0    0    0  501 -0.00000000000E+00 -0.00000000000E+00 -0.67995345351E+01  0.67995345351E+01  0.00000000000E+00 0. -1.
          2    1    1    2  502    0 -0.26298269488E+02 -0.94981300521E+01  0.91768302143E+03  0.91810889402E+03  0.00000000000E+00 0.  1.
         -2    1    1    2    0  502  0.26298269488E+02  0.94981300521E+01  0.23087803622E+02  0.36261000105E+02  0.00000000000E+00 0. -1.
</event>
<event>
 4    1  0.6145708E+003  0.2586864E+02  0.7546771E-02  0.1459316E+00
          2   -1    0    0  501    0  0.00000000000E+00  0.00000000000E+00  0.16380216896E+04  0.16380216896E+04  0.00000000000E+00 0. -1.
         -2   -1    0    0    0  501 -0.00000000000E+00 -0.00000000000E+00 -0.78371212727E+01  0.78371212727E+01  0.00000000000E+00 0.  1.
          2    1    1    2  502    0 -0.16939101996E+02 -0.19551303535E+02  0.16162858052E+04  0.16164928057E+04  0.00000000000E+00 0. -1.
         -2    1    1    2    0  502  0.16939101996E+02  0.19551303535E+02  0.13898763140E+02  0.29366005230E+02  0.00000000000E+00 0.  1.
</event>
<event>
 4    1  0.6145708E+003  0.2461026E+02  0.7546771E-02  0.1473211E+00
          2   -1    0    0  501    0  0.00000000000E+00  0.00000000000E+00  0.17791371046E+04  0.17791371046E+04  0.00000000000E+00 0.  1.
         -2   -1    0    0    0  501 -0.00000000000E+00 -0.00000000000E+00 -0.47593276043E+00  0.47593276043E+00  0.00000000000E+00 0. -1.
          2    1    1    2  502    0  0.23602428570E+02 -0.69706768494E+01  0.13641220101E+04  0.13643439902E+04  0.00000000000E+00 0.  1.
         -2    1    1    2    0  502 -0.23602428570E+02  0.69706768494E+01  0.41453916168E+03  0.41526904717E+03  0.00000000000E+00 0. -1.
</event>
<event>
 4    1  0.6145708E+003  0.3583158E+02  0.7546771E-02  0.1374809E+00
          2   -1    0    0  501    0  0.00000000000E+00  0.00000000000E+00  0.49563701648E+03  0.49563701648E+03  0.00000000000E+00 0.  1.
         -2   -1    0    0    0  501 -0.00000000000E+00 -0.00000000000E+00 -0.47438596858E+02  0.47438596858E+02  0.00000000000E+00 0.  1.
          2    1    1    2  502    0  0.28319353446E+02  0.21952596185E+02  0.48811921863E+03  0.48943260399E+03  0.00000000000E+00 0.  1.
         -2    1    1    2    0  502 -0.28319353446E+02 -0.21952596185E+02 -0.39920799002E+02  0.53643009347E+02  0.00000000000E+00 0.  1.
</event>
<event>
 4    1  0.6145708E+003  0.2279265E+02  0.7546771E-02  0.1495118E+00
          2   -1    0    0  501    0  0.00000000000E+00  0.00000000000E+00  0.10341652958E+02  0.10341652958E+02  0.00000000000E+00 0.  1.
         -2   -1    0    0    0  501 -0.00000000000E+00 -0.00000000000E+00 -0.55219822331E+02  0.55219822331E+02  0.00000000000E+00 0. -1.
          2    1    1    2  502    0 -0.19417177689E+02  0.11936425910E+02 -0.12589242644E+02  0.26038319517E+02  0.00000000000E+00 0.  1.
         -2    1    1    2    0  502  0.19417177689E+02 -0.11936425910E+02 -0.32288926728E+02  0.39523155772E+02  0.00000000000E+00 0. -1.
</event>
<event>
 4    1  0.6145708E+003  0.3370311E+02  0.7546771E-02  0.1389917E+00
          2   -1    0    0  501    0  0.00000000000E+00  0.00000000000E+00  0.97269265905E+02  0.97269265905E+02  0.00000000000E+00 0.  1.
         -2   -1    0    0    0  501 -0.00000000000E+00 -0.00000000000E+00 -0.32663287733E+03  0.32663287733E+03  0.00000000000E+00 0.  1.
          2    1    1    2  502    0 -0.98455619166E+01 -0.32232977290E+02  0.93445907453E+02  0.99337996427E+02  0.00000000000E+00 0.  1.
         -2    1    1    2    0  502  0.98455619166E+01  0.32232977290E+02 -0.32280951888E+03  0.32456414681E+03  0.00000000000E+00 0.  1.
</event>
<event>
 4    1  0.6145708E+003  0.2612526E+02  0.7546771E-02  0.1456599E+00
          2   -1    0    0  501    0  0.00000000000E+00  0.00000000000E+00  0.13717621948E+03  0.13717621948E+03  0.00000000000E+00 0.  1.
         -2   -1    0    0    0  501 -0.00000000000E+00 -0.00000000000E+00 -0.28998881901E+02  0.28998881901E+02  0.00000000000E+00 0.  1.
          2    1    1    2  502    0 -0.47434395268E+01 -0.25691031325E+02  0.12971304542E+03  0.13231781234E+03  0.00000000000E+00 0.  1.
         -2    1    1    2    0  502  0.47434395268E+01  0.25691031325E+02 -0.21535707843E+02  0.33857289044E+02  0.00000000000E+00 0.  1.
</event>
<event>
 4    1  0.6145708E+003  0.2548870E+02  0.7546771E-02  0.1463410E+00
          2   -1    0    0  501    0  0.00000000000E+00  0.00000000000E+00  0.15596623094E+04  0.15596623094E+04  0.00000000000E+00 0.  1.
         -2   -1    0    0    0  501 -0.00000000000E+00 -0.00000000000E+00 -0.24276397904E+01  0.24276397904E+01  0.00000000000E+00 0. -1.
          2    1    1    2  502    0  0.23087260721E+02 -0.10800560393E+02  0.14895032346E+04  0.14897213027E+04  0.00000000000E+00 0.  1.
         -2    1    1    2    0  502 -0.23087260721E+02  0.10800560393E+02  0.67731435019E+02  0.72368646541E+02  0.00000000000E+00 0. -1.
</event>
<event>
 4    1  0.6145708E+003  0.4000945E+02  0.7546771E-02  0.1348430E+00
          2   -1    0    0  501    0  0.00000000000E+00  0.00000000000E+00  0.11623218125E+02  0.11623218125E+02  0.00000000000E+00 0.  1.
         -2   -1    0    0    0  501 -0.00000000000E+00 -0.00000000000E+00 -0.95907658983E+03  0.95907658983E+03  0.00000000000E+00 0.  1.
          2    1    1    2  502    0  0.34441051508E+02 -0.20360985014E+02 -0.24573963693E+02  0.46953545460E+02  0.00000000000E+00 0.  1.
         -2    1    1    2    0  502 -0.34441051508E+02  0.20360985014E+02 -0.92287940801E+03  0.92374626250E+03  0.00000000000E+00 0.  1.
</event>
<event>
 4    1  0.6145708E+003  0.3147696E+02  0.7546771E-02  0.1407182E+00
          2   -1    0    0  501    0  0.00000000000E+00  0.00000000000E+00  0.45109191376E+03  0.45109191376E+03  0.00000000000E+00 0.  1.
         -2   -1    0    0    0  501 -0.00000000000E+00 -0.00000000000E+00 -0.78005465852E+02  0.78005465852E+02  0.00000000000E+00 0.  1.
          2    1    1    2  502    0 -0.26654470325E+02  0.16743306401E+02  0.44734079242E+03  0.44844685712E+03  0.00000000000E+00 0.  1.
         -2    1    1    2    0  502  0.26654470325E+02 -0.16743306401E+02 -0.74254344518E+02  0.80650522486E+02  0.00000000000E+00 0.  1.
</event>
<event>
 4    1  0.6145708E+003  0.2074142E+02  0.7546771E-02  0.1522989E+00
          2   -1    0    0  501    0  0.00000000000E+00  0.00000000000E+00  0.13424213077E+04  0.13424213077E+04  0.00000000000E+00 0.  1.
         -2   -1    0    0    0  501 -0.00000000000E+00 -0.00000000000E+00 -0.32454183789E+01  0.32454183789E+01  0.00000000000E+00 0.  1.
          2    1    1    2  502    0 -0.12521282346E+02  0.16535538610E+02  0.13083384131E+04  0.13085028123E+04  0.00000000000E+00 0.  1.
         -2    1    1    2    0  502  0.12521282346E+02 -0.16535538610E+02  0.30837476180E+02  0.37163913759E+02  0.00000000000E+00 0.  1.
</event>
<event>
 4    1  0.6145708E+003  0.3691205E+02  0.7546771E-02  0.1367597E+00
          2   -1    0    0  501    0  0.00000000000E+00  0.00000000000E+00  0.78275535681E+03  0.78275535681E+03  0.00000000000E+00 0. -1.
         -2   -1    0    0    0  501 -0.00000000000E+00 -0.00000000000E+00 -0.15540155529E+02  0.15540155529E+02  0.00000000000E+00 0.  1.
          2    1    1    2  502    0 -0.34842944773E+02 -0.12184778902E+02  0.75973748803E+03  0.76063365056E+03  0.00000000000E+00 0. -1.
         -2    1    1    2    0  502  0.34842944773E+02  0.12184778902E+02  0.74777132475E+01  0.37661861781E+02  0.00000000000E+00 0.  1.
</event>
<event>
 4    1  0.6145708E+003  0.2437410E+02  0.7546771E-02  0.1475929E+00
          2   -1    0    0  501    0  0.00000000000E+00  0.00000000000E+00  0.60374203248E+03  0.60374203248E+03  0.00000000000E+00 0. -1.
         -2   -1    0    0    0  501 -0.00000000000E+00 -0.00000000000E+00 -0.12684164532E+01  0.12684164532E+01  0.00000000000E+00 0.  1.
          2    1    1    2  502    0 -0.24133125595E+02 -0.34188597909E+01  0.15799778341E+03  0.15986680680E+03  0.00000000000E+00 0. -1.
         -2    1    1    2    0  502  0.24133125595E+02  0.34188597909E+01  0.44447583261E+03  0.44514364213E+03  0.00000000000E+00 0.  1.
</event>
<event>
 4    1  0.9060514E+003  0.2699660E+02  0.7546771E-02  0.1447642E+00
          2   -1    0    0  501    0  0.00000000000E+00  0.00000000000E+00  0.11543866743E+04  0.11543866743E+04  0.00000000000E+00 0.  1.
         -2   -1    0    0    0  501 -0.00000000000E+00 -0.00000000000E+00 -0.27447809916E+03  0.27447809916E+03  0.00000000000E+00 0.  1.
          2    1    1    2  502    0 -0.26994273119E+02  0.35418806251E+00  0.11535645450E+04  0.11538803993E+04  0.00000000000E+00 0.  1.
         -2    1    1    2    0  502  0.26994273119E+02 -0.35418806251E+00 -0.27365596987E+03  0.27498437424E+03  0.00000000000E+00 0.  1.
</event>
<event>
 4    1  0.6145708E+003  0.3012210E+02  0.7546771E-02  0.1418538E+00
          2   -1    0    0  501    0  0.00000000000E+00  0.00000000000E+00  0.32026134075E+03  0.32026134075E+03  0.00000000000E+00 0.  1.
         -2   -1    0    0    0  501 -0.00000000000E+00 -0.00000000000E+00 -0.40454794866E+01  0.40454794866E+01  0.00000000000E+00 0.  1.
          2    1    1    2  502    0 -0.95320339786E+00 -0.30107012729E+02  0.24687577474E+03  0.24870663233E+03  0.00000000000E+00 0.  1.
         -2    1    1    2    0  502  0.95320339786E+00  0.30107012729E+02  0.69340086524E+02  0.75600187905E+02  0.00000000000E+00 0.  1.
</event>
<event>
 4    1  0.6145708E+003  0.1373561E+03  0.7546771E-02  0.1111332E+00
          2   -1    0    0  501    0  0.00000000000E+00  0.00000000000E+00  0.24613463917E+04  0.24613463917E+04  0.00000000000E+00 0. -1.
         -2   -1    0    0    0  501 -0.00000000000E+00 -0.00000000000E+00 -0.83619431288E+02  0.83619431288E+02  0.00000000000E+00 0. -1.
          2    1    1    2  502    0 -0.14926410320E+02 -0.13654267012E+03  0.24016220620E+04  0.24055467627E+04  0.00000000000E+00 0. -1.
         -2    1    1    2    0  502  0.14926410320E+02  0.13654267012E+03 -0.23895101663E+02  0.13941906029E+03  0.00000000000E+00 0. -1.
</event>
<event>
 4    1  0.6145708E+003  0.2255786E+02  0.7546771E-02  0.1498126E+00
          2   -1    0    0  501    0  0.00000000000E+00  0.00000000000E+00  0.97880199307E+03  0.97880199307E+03  0.00000000000E+00 0. -1.
         -2   -1    0    0    0  501 -0.00000000000E+00 -0.00000000000E+00 -0.49438214921E+02  0.49438214921E+02  0.00000000000E+00 0.  1.
          2    1    1    2  502    0 -0.47382929906E+01 -0.22054609336E+02  0.97609168189E+03  0.97635230765E+03  0.00000000000E+00 0. -1.
         -2    1    1    2    0  502  0.47382929906E+01  0.22054609336E+02 -0.46727903739E+02  0.51887900336E+02  0.00000000000E+00 0.  1.
</event>
<event>
 4    1  0.6145708E+003  0.2706202E+02  0.7546771E-02  0.1446986E+00
          2   -1    0    0  501    0  0.00000000000E+00  0.00000000000E+00  0.14310221997E+02  0.14310221997E+02  0.00000000000E+00 0. -1.
         -2   -1    0    0    0  501 -0.00000000000E+00 -0.00000000000E+00 -0.73265723316E+02  0.73265723316E+02  0.00000000000E+00 0. -1.
          2    1    1    2  502    0  0.23150211229E+02 -0.14015013248E+02 -0.54346399704E+01  0.27602322147E+02  0.00000000000E+00 0. -1.
         -2    1    1    2    0  502 -0.23150211229E+02  0.14015013248E+02 -0.53520861348E+02  0.59973623166E+02  0.00000000000E+00 0. -1.
</event>
<event>
 4    1  0.6145708E+003  0.3112920E+02  0.7546771E-02  0.1410031E+00
          2   -1    0    0  501    0  0.00000000000E+00  0.00000000000E+00  0.11187655896E+04  0.11187655896E+04  0.00000000000E+00 0. -1.
         -2   -1    0    0    0  501 -0.00000000000E+00 -0.00000000000E+00 -0.49685948334E+01  0.49685948334E+01  0.00000000000E+00 0. -1.
          2    1    1    2  502    0  0.22901178449E+02  0.21084670115E+02  0.10674479078E+04  0.10679017105E+04  0.00000000000E+00 0. -1.
         -2    1    1    2    0  502 -0.22901178449E+02 -0.21084670115E+02  0.46349086878E+02  0.55832473908E+02  0.00000000000E+00 0. -1.
</event>
<event>
 4    1  0.6145708E+003  0.2261975E+02  0.7546771E-02  0.1497329E+00
          2   -1    0    0  501    0  0.00000000000E+00  0.00000000000E+00  0.13393170862E+04  0.13393170862E+04  0.00000000000E+00 0.  1.
         -2   -1    0    0    0  501 -0.00000000000E+00 -0.00000000000E+00 -0.10572480844E+01  0.10572480844E+01  0.00000000000E+00 0. -1.
          2    1    1    2  502    0  0.21390437086E+02 -0.73554110785E+01  0.12047184053E+04  0.12049307403E+04  0.00000000000E+00 0.  1.
         -2    1    1    2    0  502 -0.21390437086E+02  0.73554110785E+01  0.13354143284E+03  0.13544359400E+03  0.00000000000E+00 0. -1.
</event>
<event>
 4    1  0.6145708E+003  0.3229601E+02  0.7546771E-02  0.1400640E+00
          2   -1    0    0  501    0  0.00000000000E+00  0.00000000000E+00  0.11214784463E+04  0.11214784463E+04  0.00000000000E+00 0.  1.
         -2   -1    0    0    0  501 -0.00000000000E+00 -0.00000000000E+00 -0.11549529349E+02  0.11549529349E+02  0.00000000000E+00 0. -1.
          2    1    1    2  502    0  0.31920685288E+02  0.49093775129E+01  0.10981898809E+04  0.10986646652E+04  0.00000000000E+00 0.  1.
         -2    1    1    2    0  502 -0.31920685288E+02 -0.49093775129E+01  0.11739036096E+02  0.34363310453E+02  0.00000000000E+00 0. -1.
</event>
<event>
 4    1  0.6145708E+003  0.4878437E+02  0.7546771E-02  0.1303531E+00
          2   -1    0    0  501    0  0.00000000000E+00  0.00000000000E+00  0.23929304745E+02  0.23929304745E+02  0.00000000000E+00 0. -1.
         -2   -1    0    0    0  501 -0.00000000000E+00 -0.00000000000E+00 -0.25133184494E+03  0.25133184494E+03  0.00000000000E+00 0. -1.
          2    1    1    2  502    0  0.48293103404E+02 -0.69058594445E+01 -0.67131860350E+01  0.49244102162E+02  0.00000000000E+00 0. -1.
         -2    1    1    2    0  502 -0.48293103404E+02  0.69058594445E+01 -0.22068935416E+03  0.22601704752E+03  0.00000000000E+00 0. -1.
</event>
<event>
 4    1  0.6145708E+003  0.5470728E+02  0.7546771E-02  0.1278959E+00
          2   -1    0    0  501    0  0.00000000000E+00  0.00000000000E+00  0.22582342649E+03  0.22582342649E+03  0.00000000000E+00 0.  1.
         -2   -1    0    0    0  501 -0.00000000000E+00 -0.00000000000E+00 -0.16285603676E+02  0.16285603676E+02  0.00000000000E+00 0. -1.
          2    1    1    2  502    0 -0.25583454712E+02  0.48356697507E+02  0.52532603933E+02  0.75845618362E+02  0.00000000000E+00 0.  1.
         -2    1    1    2    0  502  0.25583454712E+02 -0.48356697507E+02  0.15700521889E+03  0.16626341181E+03  0.00000000000E+00 0. -1.
</event>
<event>
 4    1  0.6145708E+003  0.2047068E+02  0.7546771E-02  0.1526958E+00
          2   -1    0    0  501    0  0.00000000000E+00  0.00000000000E+00  0.76485762251E+02  0.76485762251E+02  0.00000000000E+00 0. -1.
         -2   -1    0    0    0  501 -0.00000000000E+00 -0.00000000000E+00 -0.19583614876E+02  0.19583614876E+02  0.00000000000E+00 0. -1.
          2    1    1    2  502    0  0.20260108357E+02  0.29285747815E+01  0.69216555281E+02  0.72180191645E+02  0.00000000000E+00 0. -1.
         -2    1    1    2    0  502 -0.20260108357E+02 -0.29285747815E+01 -0.12314407906E+02  0.23889185482E+02  0.00000000000E+00 0. -1.
</event>
<event>
 4    1  0.6145708E+003  0.2392243E+02  0.7546771E-02  0.1481229E+00
          2   -1    0    0  501    0  0.00000000000E+00  0.00000000000E+00  0.10052721454E+03  0.10052721454E+03  0.00000000000E+00 0. -1.
         -2   -1    0    0    0  501 -0.00000000000E+00 -0.00000000000E+00 -0.11877744663E+02  0.11877744663E+02  0.00000000000E+00 0.  1.
          2    1    1    2  502    0 -0.12630282113E+02 -0.20316459361E+02  0.84880814577E+02  0.88187500421E+02  0.00000000000E+00 0. -1.
         -2    1    1    2    0  502  0.12630282113E+02  0.20316459361E+02  0.37686553031E+01  0.24217458785E+02  0.00000000000E+00 0.  1.
</event>
<event>
 4    1  0.6145708E+003  0.2143910E+02  0.7546771E-02  0.1513087E+00
          2   -1    0    0  501    0  0.00000000000E+00  0.00000000000E+00  0.85927753226E+03  0.85927753226E+03  0.00000000000E+00 0. -1.
         -2   -1    0    0    0  501 -0.00000000000E+00 -0.00000000000E+00 -0.78079803985E+00  0.78079803985E+00  0.00000000000E+00 0. -1.
          2    1    1    2  502    0 -0.19975783295E+02  0.77847917400E+01  0.67057126668E+03  0.67091389805E+03  0.00000000000E+00 0. -1.
         -2    1    1    2    0  502  0.19975783295E+02 -0.77847917400E+01  0.18792546754E+03  0.18914443225E+03  0.00000000000E+00 0. -1.
</event>
<event>
 4    1  0.6145708E+003  0.2087477E+02  0.7546771E-02  0.1521060E+00
          2   -1    0    0  501    0  0.00000000000E+00  0.00000000000E+00  0.51739669953E+03  0.51739669953E+03  0.00000000000E+00 0. -1.
         -2   -1    0    0    0  501 -0.00000000000E+00 -0.00000000000E+00 -0.11494018786E+01  0.11494018786E+01  0.00000000000E+00 0. -1.
          2    1    1    2  502    0 -0.11133455437E+02  0.17657925167E+02  0.39216136089E+03  0.39271655062E+03  0.00000000000E+00 0. -1.
         -2    1    1    2    0  502  0.11133455437E+02 -0.17657925167E+02  0.12408593676E+03  0.12582955079E+03  0.00000000000E+00 0. -1.
</event>
<event>
 4    1  0.6145708E+003  0.4922496E+02  0.7546771E-02  0.1301568E+00
          2   -1    0    0  501    0  0.00000000000E+00  0.00000000000E+00  0.21480828421E+02  0.21480828421E+02  0.00000000000E+00 0. -1.
         -2   -1    0    0    0  501 -0.00000000000E+00 -0.00000000000E+00 -0.12435958402E+03  0.12435958402E+03  0.00000000000E+00 0.  1.
          2    1    1    2  502    0  0.10695493975E+02  0.48048966609E+02 -0.29209991977E+02  0.57239151067E+02  0.00000000000E+00 0. -1.
         -2    1    1    2    0  502 -0.10695493975E+02 -0.48048966609E+02 -0.73668763627E+02  0.88601261379E+02  0.00000000000E+00 0.  1.
</event>
<event>
 4    1  0.6145708E+003  0.2229155E+02  0.7546771E-02  0.1501591E+00
          2   -1    0    0  501    0  0.00000000000E+00  0.00000000000E+00  0.13555993718E+03  0.13555993718E+03  0.00000000000E+00 0.  1.
         -2   -1    0    0    0  501 -0.00000000000E+00 -0.00000000000E+00 -0.37318407753E+01  0.37318407753E+01  0.00000000000E+00 0.  1.
          2    1    1    2  502    0 -0.68851320215E+01 -0.21201592700E+02  0.56637248364E+02  0.60866168585E+02  0.00000000000E+00 0.  1.
         -2    1    1    2    0  502  0.68851320215E+01  0.21201592700E+02  0.75190848038E+02  0.78425609367E+02  0.00000000000E+00 0.  1.
</event>
<event>
 4    1  0.6145708E+003  0.3300650E+02  0.7546771E-02  0.1395147E+00
          2   -1    0    0  501    0  0.00000000000E+00  0.00000000000E+00  0.87311519038E+03  0.87311519038E+03  0.00000000000E+00 0. -1.
         -2   -1    0    0    0  501 -0.00000000000E+00 -0.00000000000E+00 -0.29716615696E+01  0.29716615696E+01  0.00000000000E+00 0.  1.
          2    1    1    2  502    0  0.31472775699E+02  0.99445146300E+01  0.76870941701E+03  0.76941769981E+03  0.00000000000E+00 0. -1.
         -2    1    1    2    0  502 -0.31472775699E+02 -0.99445146300E+01  0.10143411180E+03  0.10666915214E+03  0.00000000000E+00 0.  1.
</event>
<event>
 4    1  0.6145708E+003  0.3926795E+02  0.7546771E-02  0.1352830E+00
          2   -1    0    0  501    0  0.00000000000E+00  0.00000000000E+00  0.11563227441E+04  0.11563227441E+04  0.00000000000E+00 0. -1.
         -2   -1    0    0    0  501 -0.00000000000E+00 -0.00000000000E+00 -0.74270910561E+02  0.74270910561E+02  0.00000000000E+00 0.  1.
          2    1    1    2  502    0  0.15361171329E+02  0.36138714565E+02  0.11507739821E+04  0.11514437590E+04  0.00000000000E+00 0. -1.
         -2    1    1    2    0  502 -0.15361171329E+02 -0.36138714565E+02 -0.68722148576E+02  0.79149895641E+02  0.00000000000E+00 0.  1.
</event>
<event>
 4    1  0.6145708E+003  0.2023929E+02  0.7546771E-02  0.1530409E+00
          2   -1    0    0  501    0  0.00000000000E+00  0.00000000000E+00  0.45607921098E+03  0.45607921098E+03  0.00000000000E+00 0.  1.
         -2   -1    0    0    0  501 -0.00000000000E+00 -0.00000000000E+00 -0.10154549601E+01  0.10154549601E+01  0.00000000000E+00 0. -1.
          2    1    1    2  502    0  0.16297480666E+02  0.12000870430E+02  0.30521005879E+03  0.30588038308E+03  0.00000000000E+00 0.  1.
         -2    1    1    2    0  502 -0.16297480666E+02 -0.12000870430E+02  0.14985369724E+03  0.15121428287E+03  0.00000000000E+00 0. -1.
</event>
<event>
 4    1  0.6145708E+003  0.2307984E+02  0.7546771E-02  0.1491498E+00
          2   -1    0    0  501    0  0.00000000000E+00  0.00000000000E+00  0.74799950739E+02  0.74799950739E+02  0.00000000000E+00 0.  1.
         -2   -1    0    0    0  501 -0.00000000000E+00 -0.00000000000E+00 -0.14201390872E+02  0.14201390872E+02  0.00000000000E+00 0.  1.
          2    1    1    2  502    0 -0.48259610392E+01  0.22569652680E+02  0.61720133405E+02  0.65894263708E+02  0.00000000000E+00 0.  1.
         -2    1    1    2    0  502  0.48259610392E+01 -0.22569652680E+02 -0.11215735376E+01  0.23107077903E+02  0.00000000000E+00 0.  1.
</event>
<event>
 4    1  0.6145708E+003  0.4057935E+02  0.7546771E-02  0.1345124E+00
          2   -1    0    0  501    0  0.00000000000E+00  0.00000000000E+00  0.25893180272E+04  0.25893180272E+04  0.00000000000E+00 0. -1.
         -2   -1    0    0    0  501 -0.00000000000E+00 -0.00000000000E+00 -0.56652852379E+01  0.56652852379E+01  0.00000000000E+00 0. -1.
          2    1    1    2  502    0 -0.19700431495E+02  0.35476421168E+02  0.25143263626E+04  0.25146538015E+04  0.00000000000E+00 0. -1.
         -2    1    1    2    0  502  0.19700431495E+02 -0.35476421168E+02  0.69326379327E+02  0.80329510957E+02  0.00000000000E+00 0. -1.
</event>
<event>
 4    1  0.6145708E+003  0.2282661E+02  0.7546771E-02  0.1494687E+00
          2   -1    0    0  501    0  0.00000000000E+00  0.00000000000E+00  0.12100199955E+03  0.12100199955E+03  0.00000000000E+00 0.  1.
         -2   -1    0    0    0  501 -0.00000000000E+00 -0.00000000000E+00 -0.62622344116E+01  0.62622344116E+01  0.00000000000E+00 0. -1.
          2    1    1    2  502    0 -0.19144923191E+02 -0.12430850977E+02  0.92933361808E+02  0.95695683690E+02  0.00000000000E+00 0.  1.
         -2    1    1    2    0  502  0.19144923191E+02  0.12430850977E+02  0.21806403328E+02  0.31568550269E+02  0.00000000000E+00 0. -1.
</event>
<event>
 4    1  0.6145708E+003  0.2402451E+02  0.7546771E-02  0.1480019E+00
          2   -1    0    0  501    0  0.00000000000E+00  0.00000000000E+00  0.32616773441E+03  0.32616773441E+03  0.00000000000E+00 0. -1.
         -2   -1    0    0    0  501 -0.00000000000E+00 -0.00000000000E+00 -0.38679849447E+02  0.38679849447E+02  0.00000000000E+00 0.  1.
          2    1    1    2  502    0 -0.20542720426E+02  0.12456873485E+02  0.32194601490E+03  0.32284115842E+03  0.00000000000E+00 0. -1.
         -2    1    1    2    0  502  0.20542720426E+02 -0.12456873485E+02 -0.34458129936E+02  0.42006425439E+02  0.00000000000E+00 0.  1.
</event>
<event>
 4    1  0.6145708E+003  0.2371961E+02  0.7546771E-02  0.1483654E+00
          2   -1    0    0  501    0  0.00000000000E+00  0.00000000000E+00  0.42423846709E+03  0.42423846709E+03  0.00000000000E+00 0. -1.
         -2   -1    0    0    0  501 -0.00000000000E+00 -0.00000000000E+00 -0.15862098816E+03  0.15862098816E+03  0.00000000000E+00 0.  1.
          2    1    1    2  502    0  0.10877216969E+02 -0.21078563413E+02  0.42301762725E+03  0.42368211273E+03  0.00000000000E+00 0. -1.
         -2    1    1    2    0  502 -0.10877216969E+02  0.21078563413E+02 -0.15740014831E+03  0.15917734252E+03  0.00000000000E+00 0.  1.
</event>
<event>
 4    1  0.6145708E+003  0.2717811E+02  0.7546771E-02  0.1445827E+00
          2   -1    0    0  501    0  0.00000000000E+00  0.00000000000E+00  0.12775539194E+02  0.12775539194E+02  0.00000000000E+00 0.  1.
         -2   -1    0    0    0  501 -0.00000000000E+00 -0.00000000000E+00 -0.30580244146E+03  0.30580244146E+03  0.00000000000E+00 0.  1.
          2    1    1    2  502    0  0.25399039274E+02  0.96715358585E+01 -0.30709214357E+01  0.27351057756E+02  0.00000000000E+00 0.  1.
         -2    1    1    2    0  502 -0.25399039274E+02 -0.96715358585E+01 -0.28995598083E+03  0.29122692289E+03  0.00000000000E+00 0.  1.
</event>
<event>
 4    1  0.6145708E+003  0.2883801E+02  0.7546771E-02  0.1429970E+00
          2   -1    0    0  501    0  0.00000000000E+00  0.00000000000E+00  0.14697567960E+04  0.14697567960E+04  0.00000000000E+00 0.  1.
         -2   -1    0    0    0  501 -0.00000000000E+00 -0.00000000000E+00 -0.26365614955E+01  0.26365614955E+01  0.00000000000E+00 0. -1.
          2    1    1    2  502    0 -0.25194171374E+02 -0.14031549052E+02  0.13859946317E+04  0.13862946114E+04  0.00000000000E+00 0.  1.
         -2    1    1    2    0  502  0.25194171374E+02  0.14031549052E+02  0.81125602817E+02  0.86098746056E+02  0.00000000000E+00 0. -1.
</event>
<event>
 4    1  0.6145708E+003  0.2101772E+02  0.7546771E-02  0.1519012E+00
          2   -1    0    0  501    0  0.00000000000E+00  0.00000000000E+00  0.56816637457E+02  0.56816637457E+02  0.00000000000E+00 0. -1.
         -2   -1    0    0    0  501 -0.00000000000E+00 -0.00000000000E+00 -0.24017323056E+02  0.24017323056E+02  0.00000000000E+00 0.  1.
          2    1    1    2  502    0  0.13207623865E+02 -0.16349408445E+02  0.49637037076E+02  0.53903431563E+02  0.00000000000E+00 0. -1.
         -2    1    1    2    0  502 -0.13207623865E+02  0.16349408445E+02 -0.16837722675E+02  0.26930528950E+02  0.00000000000E+00 0.  1.
</event>
<event>
 4    1  0.6145708E+003  0.2332421E+02  0.7546771E-02  0.1488467E+00
          2   -1    0    0  501    0  0.00000000000E+00  0.00000000000E+00  0.97897060702E+01  0.97897060702E+01  0.00000000000E+00 0. -1.
         -2   -1    0    0    0  501 -0.00000000000E+00 -0.00000000000E+00 -0.20488487200E+03  0.20488487200E+03  0.00000000000E+00 0.  1.
          2    1    1    2  502    0  0.71963188113E+00 -0.23313109966E+02 -0.59157305396E+01  0.24062727072E+02  0.00000000000E+00 0. -1.
         -2    1    1    2    0  502 -0.71963188113E+00  0.23313109966E+02 -0.18917943539E+03  0.19061185100E+03  0.00000000000E+00 0.  1.
</event>
<event>
 4    1  0.6145708E+003  0.2131390E+02  0.7546771E-02  0.1514830E+00
          2   -1    0    0  501    0  0.00000000000E+00  0.00000000000E+00  0.52938031894E+02  0.52938031894E+02  0.00000000000E+00 0. -1.
         -2   -1    0    0    0  501 -0.00000000000E+00 -0.00000000000E+00 -0.30320232620E+02  0.30320232620E+02  0.00000000000E+00 0.  1.
          2    1    1    2  502    0 -0.71060247208E+00  0.21302051904E+02  0.46558095480E+02  0.51204869162E+02  0.00000000000E+00 0. -1.
         -2    1    1    2    0  502  0.71060247208E+00 -0.21302051904E+02 -0.23940296206E+02  0.32053395352E+02  0.00000000000E+00 0.  1.
</event>
<event>
 4    1  0.6145708E+003  0.2606342E+02  0.7546771E-02  0.1457250E+00
          2   -1    0    0  501    0  0.00000000000E+00  0.00000000000E+00  0.24820338539E+03  0.24820338539E+03  0.00000000000E+00 0.  1.
         -2   -1    0    0    0  501 -0.00000000000E+00 -0.00000000000E+00 -0.11859204262E+03  0.11859204262E+03  0.00000000000E+00 0. -1.
          2    1    1    2  502    0 -0.15484946424E+02  0.20964689885E+02  0.24607480006E+03  0.24745122552E+03  0.00000000000E+00 0.  1.
         -2    1    1    2    0  502  0.15484946424E+02 -0.20964689885E+02 -0.11646345728E+03  0.11934420249E+03  0.00000000000E+00 0. -1.
</event>
<event>
 4    1  0.6145708E+003  0.2991021E+02  0.7546771E-02  0.1420378E+00
          2   -1    0    0  501    0  0.00000000000E+00  0.00000000000E+00  0.70169461308E+02  0.70169461308E+02  0.00000000000E+00 0. -1.
         -2   -1    0    0    0  501 -0.00000000000E+00 -0.00000000000E+00 -0.34469347723E+02  0.34469347723E+02  0.00000000000E+00 0. -1.
          2    1    1    2  502    0  0.15487251860E+02 -0.25588392035E+02  0.59381337851E+02  0.66488826596E+02  0.00000000000E+00 0. -1.
         -2    1    1    2    0  502 -0.15487251860E+02  0.25588392035E+02 -0.23681224266E+02  0.38149982436E+02  0.00000000000E+00 0. -1.
</event>
<event>
 4    1  0.6145708E+003  0.3793114E+02  0.7546771E-02  0.1361055E+00
          2   -1    0    0  501    0  0.00000000000E+00  0.00000000000E+00  0.56009032256E+01  0.56009032256E+01  0.00000000000E+00 0.  1.
         -2   -1    0    0    0  501 -0.00000000000E+00 -0.00000000000E+00 -0.72173261155E+03  0.72173261155E+03  0.00000000000E+00 0.  1.
          2    1    1    2  502    0  0.19405400676E+02 -0.32591433705E+02 -0.66207485370E+02  0.76303356711E+02  0.00000000000E+00 0.  1.
         -2    1    1    2    0  502 -0.19405400676E+02  0.32591433705E+02 -0.64992422296E+03  0.65103015807E+03  0.00000000000E+00 0.  1.
</event>
<event>
 4    1  0.6145708E+003  0.2285283E+02  0.7546771E-02  0.1494354E+00
          2   -1    0    0  501    0  0.00000000000E+00  0.00000000000E+00  0.31614330508E+02  0.31614330508E+02  0.00000000000E+00 0.  1.
         -2   -1    0    0    0  501 -0.00000000000E+00 -0.00000000000E+00 -0.32814767658E+03  0.32814767658E+03  0.00000000000E+00 0.  1.
          2    1    1    2  502    0  0.21237592631E+02  0.84390001733E+01  0.27028118950E+02  0.35394509160E+02  0.00000000000E+00 0.  1.
         -2    1    1    2    0  502 -0.21237592631E+02 -0.84390001733E+01 -0.32356146502E+03  0.32436749793E+03  0.00000000000E+00 0.  1.
</event>
<event>
 4    1  0.6145708E+003  0.2073538E+02  0.7546771E-02  0.1523077E+00
          2   -1    0    0  501    0  0.00000000000E+00  0.00000000000E+00  0.46478613988E+03  0.46478613988E+03  0.00000000000E+00 0. -1.
         -2   -1    0    0    0  501 -0.00000000000E+00 -0.00000000000E+00 -0.26115243588E+02  0.26115243588E+02  0.00000000000E+00 0. -1.
          2    1    1    2  502    0  0.99749699262E+01  0.18178448950E+02  0.46039973108E+03  0.46086643228E+03  0.00000000000E+00 0. -1.
         -2    1    1    2    0  502 -0.99749699262E+01 -0.18178448950E+02 -0.21728834787E+02  0.30034951181E+02  0.00000000000E+00 0. -1.
</event>
<event>
 4    1  0.6145708E+003  0.2333004E+02  0.7546771E-02  0.1488395E+00
          2   -1    0    0  501    0  0.00000000000E+00  0.00000000000E+00  0.33558829608E+02  0.33558829608E+02  0.00000000000E+00 0.  1.
         -2   -1    0    0    0  501 -0.00000000000E+00 -0.00000000000E+00 -0.53302109845E+02  0.53302109845E+02  0.00000000000E+00 0.  1.
          2    1    1    2  502    0 -0.19096502065E+02 -0.13402025808E+02  0.26353526794E+02  0.35196577410E+02  0.00000000000E+00 0.  1.
         -2    1    1    2    0  502  0.19096502065E+02  0.13402025808E+02 -0.46096807031E+02  0.51664362043E+02  0.00000000000E+00 0.  1.
</event>
<event>
 4    1  0.6145708E+003  0.3931682E+02  0.7546771E-02  0.1352536E+00
          2   -1    0    0  501    0  0.00000000000E+00  0.00000000000E+00  0.42503818169E+03  0.42503818169E+03  0.00000000000E+00 0.  1.
         -2   -1    0    0    0  501 -0.00000000000E+00 -0.00000000000E+00 -0.85224734005E+03  0.85224734005E+03  0.00000000000E+00 0. -1.
          2    1    1    2  502    0 -0.51049019720E+01  0.38984004867E+02  0.42367405305E+03  0.42549443696E+03  0.00000000000E+00 0.  1.
         -2    1    1    2    0  502  0.51049019720E+01 -0.38984004867E+02 -0.85088321141E+03  0.85179108478E+03  0.00000000000E+00 0. -1.
</event>
<event>
 4    1  0.6145708E+003  0.2928158E+02  0.7546771E-02  0.1425944E+00
          2   -1    0    0  501    0  0.00000000000E+00  0.00000000000E+00  0.32641755187E+02  0.32641755187E+02  0.00000000000E+00 0. -1.
         -2   -1    0    0    0  501 -0.00000000000E+00 -0.00000000000E+00 -0.90707054857E+02  0.90707054857E+02  0.00000000000E+00 0. -1.
          2    1    1    2  502    0 -0.29111665457E+02 -0.31498967675E+01  0.22950352715E+02  0.37203892337E+02  0.00000000000E+00 0. -1.
         -2    1    1    2    0  502  0.29111665457E+02  0.31498967675E+01 -0.81015652385E+02  0.86144917707E+02  0.00000000000E+00 0. -1.
</event>
<event>
 4    1  0.6145708E+003  0.2639066E+02  0.7546771E-02  0.1453827E+00
          2   -1    0    0  501    0  0.00000000000E+00  0.00000000000E+00  0.62428214268E+03  0.62428214268E+03  0.00000000000E+00 0.  1.
         -2   -1    0    0    0  501 -0.00000000000E+00 -0.00000000000E+00 -0.46561224127E+01  0.46561224127E+01  0.00000000000E+00 0.  1.
          2    1    1    2  502    0 -0.18425611450E+02 -0.18893483999E+02  0.58403214687E+03  0.58462810014E+03  0.00000000000E+00 0.  1.
         -2    1    1    2    0  502  0.18425611450E+02  0.18893483999E+02  0.35593873405E+02  0.44310164961E+02  0.00000000000E+00 0.  1.
</event>
<event>
 4    1  0.6145708E+003  0.1433219E+03  0.7546771E-02  0.1104665E+00
          2   -1    0    0  501    0  0.00000000000E+00  0.00000000000E+00  0.48070527565E+03  0.48070527565E+03  0.00000000000E+00 0. -1.
         -2   -1    0    0    0  501 -0.00000000000E+00 -0.00000000000E+00 -0.29888879299E+03  0.29888879299E+03  0.00000000000E+00 0.  1.
          2    1    1    2  502    0 -0.14149869113E+03  0.22787953803E+02  0.45176698353E+03  0.47395630372E+03  0.00000000000E+00 0. -1.
         -2    1    1    2    0  502  0.14149869113E+03 -0.22787953803E+02 -0.26995050086E+03  0.30563776492E+03  0.00000000000E+00 0.  1.
</event>
<event>
 4    1  0.6145708E+003  0.2687945E+02  0.7546771E-02  0.1448823E+00
          2   -1    0    0  501    0  0.00000000000E+00  0.00000000000E+00  0.64670872155E+03  0.64670872155E+03  0.00000000000E+00 0.  1.
         -2   -1    0    0    0  501 -0.00000000000E+00 -0.00000000000E+00 -0.19659986824E+02  0.19659986824E+02  0.00000000000E+00 0. -1.
          2    1    1    2  502    0  0.26806331506E+02  0.19812927599E+01  0.63710346214E+03  0.63767023327E+03  0.00000000000E+00 0.  1.
         -2    1    1    2    0  502 -0.26806331506E+02 -0.19812927599E+01 -0.10054727415E+02  0.28698475102E+02  0.00000000000E+00 0. -1.
</event>
<event>
 4    1  0.6145708E+003  0.2752196E+02  0.7546771E-02  0.1442434E+00
          2   -1    0    0  501    0  0.00000000000E+00  0.00000000000E+00  0.73864881570E+03  0.73864881570E+03  0.00000000000E+00 0.  1.
         -2   -1    0    0    0  501 -0.00000000000E+00 -0.00000000000E+00 -0.44946676332E+02  0.44946676332E+02  0.00000000000E+00 0. -1.
          2    1    1    2  502    0  0.47563973029E+00  0.27517849958E+02  0.73415356760E+03  0.73466925832E+03  0.00000000000E+00 0.  1.
         -2    1    1    2    0  502 -0.47563973029E+00 -0.27517849958E+02 -0.40451428231E+02  0.48926233714E+02  0.00000000000E+00 0. -1.
</event>
<event>
 4    1  0.6145708E+003  0.3196781E+02  0.7546771E-02  0.1403233E+00
          2   -1    0    0  501    0  0.00000000000E+00  0.00000000000E+00  0.57373471218E+03  0.57373471218E+03  0.00000000000E+00 0. -1.
         -2   -1    0    0    0  501 -0.00000000000E+00 -0.00000000000E+00 -0.29925552805E+01  0.29925552805E+01  0.00000000000E+00 0.  1.
          2    1    1    2  502    0 -0.19895695123E+02 -0.25022037544E+02  0.46883626812E+03  0.46992487416E+03  0.00000000000E+00 0. -1.
         -2    1    1    2    0  502  0.19895695123E+02  0.25022037544E+02  0.10190588877E+03  0.10680239330E+03  0.00000000000E+00 0.  1.
</event>
<event>
 4    1  0.6145708E+003  0.2285514E+02  0.7546771E-02  0.1494325E+00
          2   -1    0    0  501    0  0.00000000000E+00  0.00000000000E+00  0.50191507791E+03  0.50191507791E+03  0.00000000000E+00 0. -1.
         -2   -1    0    0    0  501 -0.00000000000E+00 -0.00000000000E+00 -0.12187638495E+01  0.12187638495E+01  0.00000000000E+00 0. -1.
          2    1    1    2  502    0  0.16384821778E+02  0.15934081596E+02  0.34649761424E+03  0.34725056374E+03  0.00000000000E+00 0. -1.
         -2    1    1    2    0  502 -0.16384821778E+02 -0.15934081596E+02  0.15419869982E+03  0.15588327802E+03  0.00000000000E+00 0. -1.
</event>
<event>
 4    1  0.6145708E+003  0.2817020E+02  0.7546771E-02  0.1436195E+00
          2   -1    0    0  501    0  0.00000000000E+00  0.00000000000E+00  0.97121298525E+02  0.97121298525E+02  0.00000000000E+00 0. -1.
         -2   -1    0    0    0  501 -0.00000000000E+00 -0.00000000000E+00 -0.30193816953E+02  0.30193816953E+02  0.00000000000E+00 0.  1.
          2    1    1    2  502    0  0.25887276449E+02 -0.11108957704E+02  0.87829973092E+02  0.92237000149E+02  0.00000000000E+00 0. -1.
         -2    1    1    2    0  502 -0.25887276449E+02  0.11108957704E+02 -0.20902491520E+02  0.35078115328E+02  0.00000000000E+00 0.  1.
</event>
<event>
 4    1  0.6145708E+003  0.2026119E+02  0.7546771E-02  0.1530080E+00
          2   -1    0    0  501    0  0.00000000000E+00  0.00000000000E+00  0.10706157110E+04  0.10706157110E+04  0.00000000000E+00 0.  1.
         -2   -1    0    0    0  501 -0.00000000000E+00 -0.00000000000E+00 -0.27023935088E+02  0.27023935088E+02  0.00000000000E+00 0.  1.
          2    1    1    2  502    0  0.11536825286E+02  0.16655857407E+02  0.10667082343E+04  0.10669006388E+04  0.00000000000E+00 0.  1.
         -2    1    1    2    0  502 -0.11536825286E+02 -0.16655857407E+02 -0.23116458367E+02  0.30739007321E+02  0.00000000000E+00 0.  1.
</event>
<event>
 4    1  0.6307021E+003  0.2706372E+02  0.7546771E-02  0.1446969E+00
          2   -1    0    0  501    0  0.00000000000E+00  0.00000000000E+00  0.44767946529E+03  0.44767946529E+03  0.00000000000E+00 0. -1.
         -2   -1    0    0    0  501 -0.00000000000E+00 -0.00000000000E+00 -0.51931765110E+03  0.51931765110E+03  0.00000000000E+00 0. -1.
          2    1    1    2  502    0 -0.25413644729E+02 -0.93054609170E+01  0.44691724172E+03  0.44773593321E+03  0.00000000000E+00 0. -1.
         -2    1    1    2    0  502  0.25413644729E+02  0.93054609170E+01 -0.51855542753E+03  0.51926118319E+03  0.00000000000E+00 0. -1.
</event>
<event>
 4    1  0.6145708E+003  0.2254798E+02  0.7546771E-02  0.1498254E+00
          2   -1    0    0  501    0  0.00000000000E+00  0.00000000000E+00  0.26144230219E+01  0.26144230219E+01  0.00000000000E+00 0.  1.
         -2   -1    0    0    0  501 -0.00000000000E+00 -0.00000000000E+00 -0.19464352402E+03  0.19464352402E+03  0.00000000000E+00 0.  1.
          2    1    1    2  502    0  0.22474066410E+02 -0.18241944782E+01 -0.93019812408E+02  0.95713618921E+02  0.00000000000E+00 0.  1.
         -2    1    1    2    0  502 -0.22474066410E+02  0.18241944782E+01 -0.99009288594E+02  0.10154432813E+03  0.00000000000E+00 0.  1.
</event>
<event>
 4    1  0.6145708E+003  0.2660381E+02  0.7546771E-02  0.1451629E+00
          2   -1    0    0  501    0  0.00000000000E+00  0.00000000000E+00  0.75844618566E+02  0.75844618566E+02  0.00000000000E+00 0. -1.
         -2   -1    0    0    0  501 -0.00000000000E+00 -0.00000000000E+00 -0.24742002180E+02  0.24742002180E+02  0.00000000000E+00 0. -1.
          2    1    1    2  502    0  0.24219747722E+01 -0.26493331684E+02  0.65242830458E+02  0.70458423994E+02  0.00000000000E+00 0. -1.
         -2    1    1    2    0  502 -0.24219747722E+01  0.26493331684E+02 -0.14140214072E+02  0.30128196752E+02  0.00000000000E+00 0. -1.
</event>
<event>
 4    1  0.6145708E+003  0.2144554E+02  0.7546771E-02  0.1512998E+00
          2   -1    0    0  501    0  0.00000000000E+00  0.00000000000E+00  0.15241757921E+02  0.15241757921E+02  0.00000000000E+00 0. -1.
         -2   -1    0    0    0  501 -0.00000000000E+00 -0.00000000000E+00 -0.11807655438E+03  0.11807655438E+03  0.00000000000E+00 0. -1.
          2    1    1    2  502    0 -0.19165070643E+02  0.96234799134E+01  0.60971444555E+01  0.22295436055E+02  0.00000000000E+00 0. -1.
         -2    1    1    2    0  502  0.19165070643E+02 -0.96234799134E+01 -0.10893194092E+03  0.11102287625E+03  0.00000000000E+00 0. -1.
</event>
<event>
 4    1  0.6145708E+003  0.2025338E+02  0.7546771E-02  0.1530197E+00
          2   -1    0    0  501    0  0.00000000000E+00  0.00000000000E+00  0.50586441041E+03  0.50586441041E+03  0.00000000000E+00 0.  1.
         -2   -1    0    0    0  501 -0.00000000000E+00 -0.00000000000E+00 -0.84473332502E+01  0.84473332502E+01  0.00000000000E+00 0.  1.
          2    1    1    2  502    0  0.17392790133E+02  0.10377387515E+02  0.49321044859E+03  0.49362611957E+03  0.00000000000E+00 0.  1.
         -2    1    1    2    0  502 -0.17392790133E+02 -0.10377387515E+02  0.42066285713E+01  0.20685624095E+02  0.00000000000E+00 0.  1.
</event>
<event>
 4    1  0.6145708E+003  0.2315242E+02  0.7546771E-02  0.1490593E+00
          2   -1    0    0  501    0  0.00000000000E+00  0.00000000000E+00  0.15524151904E+03  0.15524151904E+03  0.00000000000E+00 0. -1.
         -2   -1    0    0    0  501 -0.00000000000E+00 -0.00000000000E+00 -0.49007474374E+01  0.49007474374E+01  0.00000000000E+00 0.  1.
          2    1    1    2  502    0  0.21696093278E+02 -0.80817075530E+01  0.11869202360E+03  0.12092903261E+03  0.00000000000E+00 0. -1.
         -2    1    1    2    0  502 -0.21696093278E+02  0.80817075530E+01  0.31648747996E+02  0.39213233866E+02  0.00000000000E+00 0.  1.
</event>
<event>
 4    1  0.6145708E+003  0.2079877E+02  0.7546771E-02  0.1522157E+00
          2   -1    0    0  501    0  0.00000000000E+00  0.00000000000E+00  0.22693339826E+02  0.22693339826E+02  0.00000000000E+00 0. -1.
         -2   -1    0    0    0  501 -0.00000000000E+00 -0.00000000000E+00 -0.39431931682E+02  0.39431931682E+02  0.00000000000E+00 0.  1.
          2    1    1    2  502    0 -0.16927670580E+02 -0.12084816361E+02  0.13956406417E+02  0.25047357103E+02  0.00000000000E+00 0. -1.
         -2    1    1    2    0  502  0.16927670580E+02  0.12084816361E+02 -0.30694998272E+02  0.37077914406E+02  0.00000000000E+00 0.  1.
</event>
<event>
 4    1  0.6145708E+003  0.2416494E+02  0.7546771E-02  0.1478366E+00
          2   -1    0    0  501    0  0.00000000000E+00  0.00000000000E+00  0.15495892510E+04  0.15495892510E+04  0.00000000000E+00 0. -1.
         -2   -1    0    0    0  501 -0.00000000000E+00 -0.00000000000E+00 -0.41951066668E+00  0.41951066668E+00  0.00000000000E+00 0. -1.
          2    1    1    2  502    0 -0.15615411774E+02  0.18441888648E+02  0.10217611536E+04  0.10220468675E+04  0.00000000000E+00 0. -1.
         -2    1    1    2    0  502  0.15615411774E+02 -0.18441888648E+02  0.52740858674E+03  0.52796189418E+03  0.00000000000E+00 0. -1.
</event>
<event>
 4    1  0.6145708E+003  0.3004859E+02  0.7546771E-02  0.1419175E+00
          2   -1    0    0  501    0  0.00000000000E+00  0.00000000000E+00  0.14010069088E+04  0.14010069088E+04  0.00000000000E+00 0. -1.
         -2   -1    0    0    0  501 -0.00000000000E+00 -0.00000000000E+00 -0.31748047210E+01  0.31748047210E+01  0.00000000000E+00 0. -1.
          2    1    1    2  502    0  0.20477633340E+02  0.21990553673E+02  0.13257075869E+04  0.13260480851E+04  0.00000000000E+00 0. -1.
         -2    1    1    2    0  502 -0.20477633340E+02 -0.21990553673E+02  0.72124517126E+02  0.78133628411E+02  0.00000000000E+00 0. -1.
</event>
<event>
 4    1  0.6145708E+003  0.2895347E+02  0.7546771E-02  0.1428914E+00
          2   -1    0    0  501    0  0.00000000000E+00  0.00000000000E+00  0.71640675684E+01  0.71640675684E+01  0.00000000000E+00 0.  1.
         -2   -1    0    0    0  501 -0.00000000000E+00 -0.00000000000E+00 -0.24670317338E+03  0.24670317338E+03  0.00000000000E+00 0. -1.
          2    1    1    2  502    0  0.28223062284E+02  0.64623847812E+01 -0.27737434845E+02  0.40095747325E+02  0.00000000000E+00 0.  1.
         -2    1    1    2    0  502 -0.28223062284E+02 -0.64623847812E+01 -0.21180167096E+03  0.21377149362E+03  0.00000000000E+00 0. -1.
</event>
<event>
 4    1  0.6145708E+003  0.3553258E+02  0.7546771E-02  0.1376857E+00
          2   -1    0    0  501    0  0.00000000000E+00  0.00000000000E+00  0.21249565575E+03  0.21249565575E+03  0.00000000000E+00 0. -1.
         -2   -1    0    0    0  501 -0.00000000000E+00 -0.00000000000E+00 -0.59438526236E+01  0.59438526236E+01  0.00000000000E+00 0.  1.
          2    1    1    2  502    0  0.22798401173E+02  0.27254302033E+02  0.10540238838E+03  0.11123051538E+03  0.00000000000E+00 0.  1.
         -2    1    1    2    0  502 -0.22798401173E+02 -0.27254302033E+02  0.10114941475E+03  0.10720899300E+03  0.00000000000E+00 0. -1.
</event>
<event>
 4    1  0.6145708E+003  0.3224837E+02  0.7546771E-02  0.1401014E+00
          2   -1    0    0  501    0  0.00000000000E+00  0.00000000000E+00  0.27181515543E+02  0.27181515543E+02  0.00000000000E+00 0.  1.
         -2   -1    0    0    0  501 -0.00000000000E+00 -0.00000000000E+00 -0.16141105826E+03  0.16141105826E+03  0.00000000000E+00 0. -1.
          2    1    1    2  502    0 -0.23574989688E+02 -0.22004031980E+02  0.15251136946E+02  0.35672885225E+02  0.00000000000E+00 0.  1.
         -2    1    1    2    0  502  0.23574989688E+02  0.22004031980E+02 -0.14948067966E+03  0.15291968857E+03  0.00000000000E+00 0. -1.
</event>
<event>
 4    1  0.6145708E+003  0.2046004E+02  0.7546771E-02  0.1527116E+00
          2   -1    0    0  501    0  0.00000000000E+00  0.00000000000E+00  0.94488712961E+02  0.94488712961E+02  0.00000000000E+00 0.  1.
         -2   -1    0    0    0  501 -0.00000000000E+00 -0.00000000000E+00 -0.82961874038E+01  0.82961874038E+01  0.00000000000E+00 0.  1.
          2    1    1    2  502    0 -0.66989203860E+01 -0.19332295608E+02  0.78178294792E+02  0.80811255183E+02  0.00000000000E+00 0.  1.
         -2    1    1    2    0  502  0.66989203860E+01  0.19332295608E+02  0.80142307658E+01  0.21973645182E+02  0.00000000000E+00 0.  1.
</event>
<event>
 4    1  0.6145708E+003  0.4702519E+02  0.7546771E-02  0.1311612E+00
          2   -1    0    0  501    0  0.00000000000E+00  0.00000000000E+00  0.17171029162E+04  0.17171029162E+04  0.00000000000E+00 0.  1.
         -2   -1    0    0    0  501 -0.00000000000E+00 -0.00000000000E+00 -0.36327358957E+02  0.36327358957E+02  0.00000000000E+00 0.  1.
          2    1    1    2  502    0  0.11739203412E+02 -0.45536356074E+02  0.17014223851E+04  0.17020721198E+04  0.00000000000E+00 0.  1.
         -2    1    1    2    0  502 -0.11739203412E+02  0.45536356074E+02 -0.20646827826E+02  0.51358155346E+02  0.00000000000E+00 0.  1.
</event>
<event>
 4    1  0.6145708E+003  0.2101668E+02  0.7546771E-02  0.1519027E+00
          2   -1    0    0  501    0  0.00000000000E+00  0.00000000000E+00  0.22713279986E+03  0.22713279986E+03  0.00000000000E+00 0.  1.
         -2   -1    0    0    0  501 -0.00000000000E+00 -0.00000000000E+00 -0.66584798922E+01  0.66584798922E+01  0.00000000000E+00 0. -1.
          2    1    1    2  502    0 -0.23271372986E+01 -0.20887446799E+02  0.20859211827E+03  0.20964821203E+03  0.00000000000E+00 0.  1.
         -2    1    1    2    0  502  0.23271372986E+01  0.20887446799E+02  0.11882201690E+02  0.24143067717E+02  0.00000000000E+00 0. -1.
</event>
<event>
 4    1  0.6145708E+003  0.3180338E+02  0.7546771E-02  0.1404547E+00
          2   -1    0    0  501    0  0.00000000000E+00  0.00000000000E+00  0.34564998443E+03  0.34564998443E+03  0.00000000000E+00 0.  1.
         -2   -1    0    0    0  501 -0.00000000000E+00 -0.00000000000E+00 -0.97720610326E+01  0.97720610326E+01  0.00000000000E+00 0. -1.
          2    1    1    2  502    0 -0.34024332237E+01  0.31620849614E+02  0.31668111465E+03  0.31827406910E+03  0.00000000000E+00 0.  1.
         -2    1    1    2    0  502  0.34024332237E+01 -0.31620849614E+02  0.19196808747E+02  0.37147976367E+02  0.00000000000E+00 0. -1.
</event>
<event>
 4    1  0.6145708E+003  0.4406786E+02  0.7546771E-02  0.1326167E+00
          2   -1    0    0  501    0  0.00000000000E+00  0.00000000000E+00  0.14927471190E+04  0.14927471190E+04  0.00000000000E+00 0.  1.
         -2   -1    0    0    0  501 -0.00000000000E+00 -0.00000000000E+00 -0.53251521182E+01  0.53251521182E+01  0.00000000000E+00 0. -1.
          2    1    1    2  502    0 -0.43971223761E+02  0.29168075802E+01  0.13948551078E+04  0.13955510554E+04  0.00000000000E+00 0.  1.
         -2    1    1    2    0  502  0.43971223761E+02 -0.29168075802E+01  0.92566859067E+02  0.10252121577E+03  0.00000000000E+00 0. -1.
</event>
<event>
 4    1  0.6145708E+003  0.3475823E+02  0.7546771E-02  0.1382271E+00
          2   -1    0    0  501    0  0.00000000000E+00  0.00000000000E+00  0.53173393956E+02  0.53173393956E+02  0.00000000000E+00 0.  1.
         -2   -1    0    0    0  501 -0.00000000000E+00 -0.00000000000E+00 -0.25232727156E+03  0.25232727156E+03  0.00000000000E+00 0. -1.
          2    1    1    2  502    0 -0.25902289470E+02 -0.23177698845E+02  0.46134037780E+02  0.57762304018E+02  0.00000000000E+00 0.  1.
         -2    1    1    2    0  502  0.25902289470E+02  0.23177698845E+02 -0.24528791538E+03  0.24773836149E+03  0.00000000000E+00 0. -1.
</event>
<event>
 4    1  0.6145708E+003  0.3224872E+02  0.7546771E-02  0.1401011E+00
          2   -1    0    0  501    0  0.00000000000E+00  0.00000000000E+00  0.18740864764E+03  0.18740864764E+03  0.00000000000E+00 0.  1.
         -2   -1    0    0    0  501 -0.00000000000E+00 -0.00000000000E+00 -0.92895416326E+01  0.92895416326E+01  0.00000000000E+00 0.  1.
          2    1    1    2  502    0 -0.11658932591E+02  0.30067412598E+02  0.15146538245E+03  0.15486039548E+03  0.00000000000E+00 0.  1.
         -2    1    1    2    0  502  0.11658932591E+02 -0.30067412598E+02  0.26653723561E+02  0.41837793789E+02  0.00000000000E+00 0.  1.
</event>
<event>
 4    1  0.6145708E+003  0.2889544E+02  0.7546771E-02  0.1429444E+00
          2   -1    0    0  501    0  0.00000000000E+00  0.00000000000E+00  0.31666947888E+01  0.31666947888E+01  0.00000000000E+00 0.  1.
         -2   -1    0    0    0  501 -0.00000000000E+00 -0.00000000000E+00 -0.26458686638E+03  0.26458686638E+03  0.00000000000E+00 0. -1.
          2    1    1    2  502    0 -0.22339864621E+02 -0.18326949255E+02 -0.12280780925E+03  0.12616142292E+03  0.00000000000E+00 0.  1.
         -2    1    1    2    0  502  0.22339864621E+02  0.18326949255E+02 -0.13861236234E+03  0.14159213825E+03  0.00000000000E+00 0. -1.
</event>
<event>
 4    1  0.6145708E+003  0.2021020E+02  0.7546771E-02  0.1530846E+00
          2   -1    0    0  501    0  0.00000000000E+00  0.00000000000E+00  0.32050436245E+03  0.32050436245E+03  0.00000000000E+00 0.  1.
         -2   -1    0    0    0  501 -0.00000000000E+00 -0.00000000000E+00 -0.20787463491E+01  0.20787463491E+01  0.00000000000E+00 0. -1.
          2    1    1    2  502    0 -0.15688092557E+02 -0.12741119049E+02  0.25954286867E+03  0.26032854827E+03  0.00000000000E+00 0.  1.
         -2    1    1    2    0  502  0.15688092557E+02  0.12741119049E+02  0.58882747432E+02  0.62254560539E+02  0.00000000000E+00 0. -1.
</event>
<event>
 4    1  0.6145708E+003  0.5758356E+02  0.7546771E-02  0.1268271E+00
          2   -1    0    0  501    0  0.00000000000E+00  0.00000000000E+00  0.22451065506E+04  0.22451065506E+04  0.00000000000E+00 0.  1.
         -2   -1    0    0    0  501 -0.00000000000E+00 -0.00000000000E+00 -0.11017961822E+02  0.11017961822E+02  0.00000000000E+00 0.  1.
          2    1    1    2  502    0  0.24103464872E+02 -0.52296173598E+02  0.21667802987E+04  0.21675453235E+04  0.00000000000E+00 0.  1.
         -2    1    1    2    0  502 -0.24103464872E+02  0.52296173598E+02  0.67308290154E+02  0.88579188952E+02  0.00000000000E+00 0.  1.
</event>
<event>
 4    1  0.6145708E+003  0.4589432E+02  0.7546771E-02  0.1317027E+00
          2   -1    0    0  501    0  0.00000000000E+00  0.00000000000E+00  0.33203230437E+03  0.33203230437E+03  0.00000000000E+00 0.  1.
         -2   -1    0    0    0  501 -0.00000000000E+00 -0.00000000000E+00 -0.80082962808E+01  0.80082962808E+01  0.00000000000E+00 0. -1.
          2    1    1    2  502    0 -0.45242653233E+02 -0.77065468894E+01  0.23952863932E+03  0.24388574701E+03  0.00000000000E+00 0.  1.
         -2    1    1    2    0  502  0.45242653233E+02  0.77065468894E+01  0.84495368765E+02  0.96154853644E+02  0.00000000000E+00 0. -1.
</event>
<event>
 4    1  0.6145708E+003  0.2228572E+02  0.7546771E-02  0.1501668E+00
          2   -1    0    0  501    0  0.00000000000E+00  0.00000000000E+00  0.55508922351E+02  0.55508922351E+02  0.00000000000E+00 0.  1.
         -2   -1    0    0    0  501 -0.00000000000E+00 -0.00000000000E+00 -0.95142010337E+02  0.95142010337E+02  0.00000000000E+00 0.  1.
          2    1    1    2  502    0 -0.20833421648E+02 -0.79134054541E+01  0.51879640522E+02  0.56463709975E+02  0.00000000000E+00 0.  1.
         -2    1    1    2    0  502  0.20833421648E+02  0.79134054541E+01 -0.91512728508E+02  0.94187222713E+02  0.00000000000E+00 0.  1.
</event>
<event>
 4    1  0.6145708E+003  0.2087100E+02  0.7546771E-02  0.1521115E+00
          2   -1    0    0  501    0  0.00000000000E+00  0.00000000000E+00  0.51925873003E+03  0.51925873003E+03  0.00000000000E+00 0.  1.
         -2   -1    0    0    0  501 -0.00000000000E+00 -0.00000000000E+00 -0.42704931309E+01  0.42704931309E+01  0.00000000000E+00 0. -1.
          2    1    1    2  502    0  0.18737392075E+02  0.91928654052E+01  0.49214421094E+03  0.49258656397E+03  0.00000000000E+00 0.  1.
         -2    1    1    2    0  502 -0.18737392075E+02 -0.91928654052E+01  0.22844025958E+02  0.30942659196E+02  0.00000000000E+00 0. -1.
</event>
<event>
 4    1  0.6145708E+003  0.4290956E+02  0.7546771E-02  0.1332231E+00
          2   -1    0    0  501    0  0.00000000000E+00  0.00000000000E+00  0.27286902237E+03  0.27286902237E+03  0.00000000000E+00 0.  1.
         -2   -1    0    0    0  501 -0.00000000000E+00 -0.00000000000E+00 -0.22589912153E+02  0.22589912153E+02  0.00000000000E+00 0.  1.
          2    1    1    2  502    0 -0.11123503086E+02 -0.41442704464E+02  0.24885336636E+03  0.25252569775E+03  0.00000000000E+00 0.  1.
         -2    1    1    2    0  502  0.11123503086E+02  0.41442704464E+02  0.14257438536E+01  0.42933236772E+02  0.00000000000E+00 0.  1.
</event>
<event>
 4    1  0.6145708E+003  0.2695550E+02  0.7546771E-02  0.1448056E+00
          2   -1    0    0  501    0  0.00000000000E+00  0.00000000000E+00  0.29111739201E+03  0.29111739201E+03  0.00000000000E+00 0. -1.
         -2   -1    0    0    0  501 -0.00000000000E+00 -0.00000000000E+00 -0.27366939206E+01  0.27366939206E+01  0.00000000000E+00 0.  1.
          2    1    1    2  502    0  0.10854723876E+02 -0.24673343122E+02  0.18777308642E+03  0.18969799913E+03  0.00000000000E+00 0. -1.
         -2    1    1    2    0  502 -0.10854723876E+02  0.24673343122E+02  0.10060761167E+03  0.10415608680E+03  0.00000000000E+00 0.  1.
</event>
<event>
 4    1  0.6145708E+003  0.2450496E+02  0.7546771E-02  0.1474418E+00
          2   -1    0    0  501    0  0.00000000000E+00  0.00000000000E+00  0.15158243240E+03  0.15158243240E+03  0.00000000000E+00 0.  1.
         -2   -1    0    0    0  501 -0.00000000000E+00 -0.00000000000E+00 -0.80376113429E+01  0.80376113429E+01  0.00000000000E+00 0.  1.
          2    1    1    2  502    0 -0.23334187036E+02 -0.74839121554E+01  0.12860757904E+03  0.13092136041E+03  0.00000000000E+00 0.  1.
         -2    1    1    2    0  502  0.23334187036E+02  0.74839121554E+01  0.14937242015E+02  0.28698683329E+02  0.00000000000E+00 0.  1.
</event>
<event>
 4    1  0.6145708E+003  0.3501808E+02  0.7546771E-02  0.1380436E+00
          2   -1    0    0  501    0  0.00000000000E+00  0.00000000000E+00  0.25729899767E+02  0.25729899767E+02  0.00000000000E+00 0. -1.
         -2   -1    0    0    0  501 -0.00000000000E+00 -0.00000000000E+00 -0.30836132409E+03  0.30836132409E+03  0.00000000000E+00 0.  1.
          2    1    1    2  502    0  0.23154555972E+02  0.26270369144E+02  0.12279411430E+02  0.37108620324E+02  0.00000000000E+00 0. -1.
         -2    1    1    2    0  502 -0.23154555972E+02 -0.26270369144E+02 -0.29491083575E+03  0.29698260353E+03  0.00000000000E+00 0.  1.
</event>
<event>
 4    1  0.6145708E+003  0.2305566E+02  0.7546771E-02  0.1491800E+00
          2   -1    0    0  501    0  0.00000000000E+00  0.00000000000E+00  0.12217879672E+04  0.12217879672E+04  0.00000000000E+00 0. -1.
         -2   -1    0    0    0  501 -0.00000000000E+00 -0.00000000000E+00 -0.96754424598E+02  0.96754424598E+02  0.00000000000E+00 0. -1.
          2    1    1    2  502    0  0.12819516198E+02 -0.19163070548E+02  0.12203040440E+04  0.12205218241E+04  0.00000000000E+00 0. -1.
         -2    1    1    2    0  502 -0.12819516198E+02  0.19163070548E+02 -0.95270501371E+02  0.98020567739E+02  0.00000000000E+00 0. -1.
</event>
<event>
 4    1  0.6145708E+003  0.2067652E+02  0.7546771E-02  0.1523934E+00
          2   -1    0    0  501    0  0.00000000000E+00  0.00000000000E+00  0.11858066049E+04  0.11858066049E+04  0.00000000000E+00 0. -1.
         -2   -1    0    0    0  501 -0.00000000000E+00 -0.00000000000E+00 -0.33829322777E+01  0.33829322777E+01  0.00000000000E+00 0. -1.
          2    1    1    2  502    0  0.19466987584E+02  0.69681333447E+01  0.11532303061E+04  0.11534156481E+04  0.00000000000E+00 0. -1.
         -2    1    1    2    0  502 -0.19466987584E+02 -0.69681333447E+01  0.29193366566E+02  0.35773889072E+02  0.00000000000E+00 0. -1.
</event>
<event>
 4    1  0.6145708E+003  0.3192865E+02  0.7546771E-02  0.1403545E+00
          2   -1    0    0  501    0  0.00000000000E+00  0.00000000000E+00  0.70464771581E+01  0.70464771581E+01  0.00000000000E+00 0. -1.
         -2   -1    0    0    0  501 -0.00000000000E+00 -0.00000000000E+00 -0.18325159160E+03  0.18325159160E+03  0.00000000000E+00 0. -1.
          2    1    1    2  502    0 -0.45554739526E+01 -0.31601995195E+02 -0.44445854308E+02  0.54725427439E+02  0.00000000000E+00 0. -1.
         -2    1    1    2    0  502  0.45554739526E+01  0.31601995195E+02 -0.13175926014E+03  0.13557264132E+03  0.00000000000E+00 0. -1.
</event>
<event>
 4    1  0.6145708E+003  0.2501848E+02  0.7546771E-02  0.1468597E+00
          2   -1    0    0  501    0  0.00000000000E+00  0.00000000000E+00  0.67805127113E+03  0.67805127113E+03  0.00000000000E+00 0. -1.
         -2   -1    0    0    0  501 -0.00000000000E+00 -0.00000000000E+00 -0.27050530615E+01  0.27050530615E+01  0.00000000000E+00 0.  1.
          2    1    1    2  502    0  0.97948898113E+01  0.23021387635E+02  0.61393388296E+03  0.61444343662E+03  0.00000000000E+00 0. -1.
         -2    1    1    2    0  502 -0.97948898113E+01 -0.23021387635E+02  0.61412335108E+02  0.66312887575E+02  0.00000000000E+00 0.  1.
</event>
<event>
 4    1  0.6145708E+003  0.2469088E+02  0.7546771E-02  0.1472291E+00
          2   -1    0    0  501    0  0.00000000000E+00  0.00000000000E+00  0.81283815710E+03  0.81283815710E+03  0.00000000000E+00 0. -1.
         -2   -1    0    0    0  501 -0.00000000000E+00 -0.00000000000E+00 -0.17507767858E+01  0.17507767858E+01  0.00000000000E+00 0. -1.
          2    1    1    2  502    0 -0.11949763813E+02  0.21606544038E+02  0.71347851039E+03  0.71390561308E+03  0.00000000000E+00 0. -1.
         -2    1    1    2    0  502  0.11949763813E+02 -0.21606544038E+02  0.97608869931E+02  0.10068332081E+03  0.00000000000E+00 0. -1.
</event>
<event>
 4    1  0.6145708E+003  0.2061880E+02  0.7546771E-02  0.1524778E+00
          2   -1    0    0  501    0  0.00000000000E+00  0.00000000000E+00  0.10953584131E+03  0.10953584131E+03  0.00000000000E+00 0.  1.
         -2   -1    0    0    0  501 -0.00000000000E+00 -0.00000000000E+00 -0.86041131161E+03  0.86041131161E+03  0.00000000000E+00 0.  1.
          2    1    1    2  502    0  0.13008508008E+02 -0.15997297895E+02  0.10844076850E+03  0.11038358163E+03  0.00000000000E+00 0.  1.
         -2    1    1    2    0  502 -0.13008508008E+02  0.15997297895E+02 -0.85931623881E+03  0.85956357129E+03  0.00000000000E+00 0.  1.
</event>
<event>
 4    1  0.6145708E+003  0.2168482E+02  0.7546771E-02  0.1509708E+00
          2   -1    0    0  501    0  0.00000000000E+00  0.00000000000E+00  0.11617455616E+04  0.11617455616E+04  0.00000000000E+00 0. -1.
         -2   -1    0    0    0  501 -0.00000000000E+00 -0.00000000000E+00 -0.65015611947E+02  0.65015611947E+02  0.00000000000E+00 0. -1.
          2    1    1    2  502    0  0.75116822867E+01 -0.20342225720E+02  0.11598332414E+04  0.11600359389E+04  0.00000000000E+00 0. -1.
         -2    1    1    2    0  502 -0.75116822867E+01  0.20342225720E+02 -0.63103291751E+02  0.66725234715E+02  0.00000000000E+00 0. -1.
</event>
<event>
 4    1  0.6145708E+003  0.3964632E+02  0.7546771E-02  0.1350571E+00
          2   -1    0    0  501    0  0.00000000000E+00  0.00000000000E+00  0.19368022651E+04  0.19368022651E+04  0.00000000000E+00 0.  1.
         -2   -1    0    0    0  501 -0.00000000000E+00 -0.00000000000E+00 -0.33483660951E+01  0.33483660951E+01  0.00000000000E+00 0.  1.
          2    1    1    2  502    0  0.27921981646E+02 -0.28145937230E+02  0.18110966488E+04  0.18115305413E+04  0.00000000000E+00 0.  1.
         -2    1    1    2    0  502 -0.27921981646E+02  0.28145937230E+02  0.12235725020E+03  0.12862008987E+03  0.00000000000E+00 0.  1.
</event>
<event>
 4    1  0.6145708E+003  0.2641604E+02  0.7546771E-02  0.1453564E+00
          2   -1    0    0  501    0  0.00000000000E+00  0.00000000000E+00  0.78780292779E+01  0.78780292779E+01  0.00000000000E+00 0. -1.
         -2   -1    0    0    0  501 -0.00000000000E+00 -0.00000000000E+00 -0.11951888234E+03  0.11951888234E+03  0.00000000000E+00 0.  1.
          2    1    1    2  502    0 -0.25390293972E+02 -0.72897326832E+01 -0.23409724811E+02  0.35296210084E+02  0.00000000000E+00 0. -1.
         -2    1    1    2    0  502  0.25390293972E+02  0.72897326832E+01 -0.88231128251E+02  0.92100701533E+02  0.00000000000E+00 0.  1.
</event>
<event>
 4    1  0.6145708E+003  0.2136475E+02  0.7546771E-02  0.1514120E+00
          2   -1    0    0  501    0  0.00000000000E+00  0.00000000000E+00  0.23820219687E+03  0.23820219687E+03  0.00000000000E+00 0. -1.
         -2   -1    0    0    0  501 -0.00000000000E+00 -0.00000000000E+00 -0.57362991673E+01  0.57362991673E+01  0.00000000000E+00 0. -1.
          2    1    1    2  502    0 -0.20708234999E+01 -0.21264150864E+02  0.21576650746E+03  0.21682167365E+03  0.00000000000E+00 0. -1.
         -2    1    1    2    0  502  0.20708234999E+01  0.21264150864E+02  0.16699390237E+02  0.27116822384E+02  0.00000000000E+00 0. -1.
</event>
<event>
 4    1  0.6145708E+003  0.2257759E+02  0.7546771E-02  0.1497872E+00
          2   -1    0    0  501    0  0.00000000000E+00  0.00000000000E+00  0.58589227057E+01  0.58589227057E+01  0.00000000000E+00 0. -1.
         -2   -1    0    0    0  501 -0.00000000000E+00 -0.00000000000E+00 -0.17386885325E+03  0.17386885325E+03  0.00000000000E+00 0. -1.
          2    1    1    2  502    0 -0.22086290665E+02  0.46843508493E+01 -0.20486886997E+02  0.30487045069E+02  0.00000000000E+00 0. -1.
         -2    1    1    2    0  502  0.22086290665E+02 -0.46843508493E+01 -0.14752304355E+03  0.14924073089E+03  0.00000000000E+00 0. -1.
</event>
<event>
 4    1  0.6145708E+003  0.2612171E+02  0.7546771E-02  0.1456636E+00
          2   -1    0    0  501    0  0.00000000000E+00  0.00000000000E+00  0.13411765897E+02  0.13411765897E+02  0.00000000000E+00 0.  1.
         -2   -1    0    0    0  501 -0.00000000000E+00 -0.00000000000E+00 -0.40642541921E+03  0.40642541921E+03  0.00000000000E+00 0.  1.
          2    1    1    2  502    0  0.66151328594E+01 -0.25270218867E+02 -0.16621241205E+00  0.26122242838E+02  0.00000000000E+00 0.  1.
         -2    1    1    2    0  502 -0.66151328594E+01  0.25270218867E+02 -0.39284744090E+03  0.39371494227E+03  0.00000000000E+00 0.  1.
</event>
<event>
 4    1  0.6145708E+003  0.2924864E+02  0.7546771E-02  0.1426240E+00
          2   -1    0    0  501    0  0.00000000000E+00  0.00000000000E+00  0.48018355417E+03  0.48018355417E+03  0.00000000000E+00 0.  1.
         -2   -1    0    0    0  501 -0.00000000000E+00 -0.00000000000E+00 -0.12406926478E+02  0.12406926478E+02  0.00000000000E+00 0. -1.
          2    1    1    2  502    0 -0.25090369019E+02  0.15031846229E+02  0.46181520516E+03  0.46274049611E+03  0.00000000000E+00 0.  1.
         -2    1    1    2    0  502  0.25090369019E+02 -0.15031846229E+02  0.59614225296E+01  0.29849984542E+02  0.00000000000E+00 0. -1.
</event>
<event>
 4    1  0.6145708E+003  0.2293532E+02  0.7546771E-02  0.1493312E+00
          2   -1    0    0  501    0  0.00000000000E+00  0.00000000000E+00  0.96165992432E+03  0.96165992432E+03  0.00000000000E+00 0. -1.
         -2   -1    0    0    0  501 -0.00000000000E+00 -0.00000000000E+00 -0.12532092967E+01  0.12532092967E+01  0.00000000000E+00 0. -1.
          2    1    1    2  502    0 -0.20666020729E+02  0.99470910014E+01  0.84162294758E+03  0.84193539831E+03  0.00000000000E+00 0. -1.
         -2    1    1    2    0  502  0.20666020729E+02 -0.99470910014E+01  0.11878376744E+03  0.12097773530E+03  0.00000000000E+00 0. -1.
</event>
<event>
 4    1  0.6145708E+003  0.2667349E+02  0.7546771E-02  0.1450916E+00
          2   -1    0    0  501    0  0.00000000000E+00  0.00000000000E+00  0.11630939172E+04  0.11630939172E+04  0.00000000000E+00 0.  1.
         -2   -1    0    0    0  501 -0.00000000000E+00 -0.00000000000E+00 -0.36599300801E+01  0.36599300801E+01  0.00000000000E+00 0.  1.
          2    1    1    2  502    0 -0.56913187541E+01  0.26059238646E+02  0.11121145849E+04  0.11124344138E+04  0.00000000000E+00 0.  1.
         -2    1    1    2    0  502  0.56913187541E+01 -0.26059238646E+02  0.47319402170E+02  0.54319433444E+02  0.00000000000E+00 0.  1.
</event>
<event>
 4    1  0.6145708E+003  0.2106537E+02  0.7546771E-02  0.1518334E+00
          2   -1    0    0  501    0  0.00000000000E+00  0.00000000000E+00  0.13752771008E+02  0.13752771008E+02  0.00000000000E+00 0. -1.
         -2   -1    0    0    0  501 -0.00000000000E+00 -0.00000000000E+00 -0.79993491281E+02  0.79993491281E+02  0.00000000000E+00 0.  1.
          2    1    1    2  502    0  0.12079139920E+02  0.17258158299E+02  0.30855973198E+01  0.21290151712E+02  0.00000000000E+00 0. -1.
         -2    1    1    2    0  502 -0.12079139920E+02 -0.17258158299E+02 -0.69326317593E+02  0.72456110578E+02  0.00000000000E+00 0.  1.
</event>
<event>
 4    1  0.6145708E+003  0.2125543E+02  0.7546771E-02  0.1515649E+00
          2   -1    0    0  501    0  0.00000000000E+00  0.00000000000E+00  0.61904630636E+01  0.61904630636E+01  0.00000000000E+00 0. -1.
         -2   -1    0    0    0  501 -0.00000000000E+00 -0.00000000000E+00 -0.21071648112E+03  0.21071648112E+03  0.00000000000E+00 0. -1.
          2    1    1    2  502    0  0.37826906470E+01 -0.20916134818E+02 -0.14580034519E+02  0.25775392351E+02  0.00000000000E+00 0. -1.
         -2    1    1    2    0  502 -0.37826906470E+01  0.20916134818E+02 -0.18994598354E+03  0.19113155184E+03  0.00000000000E+00 0. -1.
</event>
<event>
 4    1  0.6145708E+003  0.2694812E+02  0.7546771E-02  0.1448130E+00
          2   -1    0    0  501    0  0.00000000000E+00  0.00000000000E+00  0.35092282769E+03  0.35092282769E+03  0.00000000000E+00 0. -1.
         -2   -1    0    0    0  501 -0.00000000000E+00 -0.00000000000E+00 -0.31819839880E+02  0.31819839880E+02  0.00000000000E+00 0.  1.
          2    1    1    2  502    0 -0.25778308335E+02  0.78536539417E+01  0.34459530150E+03  0.34564739675E+03  0.00000000000E+00 0. -1.
         -2    1    1    2    0  502  0.25778308335E+02 -0.78536539417E+01 -0.25492313686E+02  0.37095270829E+02  0.00000000000E+00 0.  1.
</event>
<event>
 4    1  0.6145708E+003  0.2248157E+02  0.7546771E-02  0.1499113E+00
          2   -1    0    0  501    0  0.00000000000E+00  0.00000000000E+00  0.26785729946E+03  0.26785729946E+03  0.00000000000E+00 0. -1.
         -2   -1    0    0    0  501 -0.00000000000E+00 -0.00000000000E+00 -0.10095826862E+02  0.10095826862E+02  0.00000000000E+00 0.  1.
          2    1    1    2  502    0  0.22281444955E+02  0.29930282105E+01  0.25419880928E+03  0.25519101796E+03  0.00000000000E+00 0. -1.
         -2    1    1    2    0  502 -0.22281444955E+02 -0.29930282105E+01  0.35626633146E+01  0.22762108361E+02  0.00000000000E+00 0.  1.
</event>
<event>
 4    1  0.6145708E+003  0.2031721E+02  0.7546771E-02  0.1529241E+00
          2   -1    0    0  501    0  0.00000000000E+00  0.00000000000E+00  0.16513771130E+02  0.16513771130E+02  0.00000000000E+00 0. -1.
         -2   -1    0    0    0  501 -0.00000000000E+00 -0.00000000000E+00 -0.13726662065E+03  0.13726662065E+03  0.00000000000E+00 0.  1.
          2    1    1    2  502    0  0.18978655767E+02 -0.72525684399E+01  0.91612687323E+01  0.22287170491E+02  0.00000000000E+00 0. -1.
         -2    1    1    2    0  502 -0.18978655767E+02  0.72525684399E+01 -0.12991411825E+03  0.13149322129E+03  0.00000000000E+00 0.  1.
</event>
<event>
 4    1  0.6145708E+003  0.2581821E+02  0.7546771E-02  0.1459855E+00
          2   -1    0    0  501    0  0.00000000000E+00  0.00000000000E+00  0.32057306190E+03  0.32057306190E+03  0.00000000000E+00 0.  1.
         -2   -1    0    0    0  501 -0.00000000000E+00 -0.00000000000E+00 -0.11984601554E+02  0.11984601554E+02  0.00000000000E+00 0. -1.
          2    1    1    2  502    0 -0.24386921426E+02  0.84769111715E+01  0.30546163868E+03  0.30655079949E+03  0.00000000000E+00 0.  1.
         -2    1    1    2    0  502  0.24386921426E+02 -0.84769111715E+01  0.31268216622E+01  0.26006863966E+02  0.00000000000E+00 0. -1.
</event>
<event>
 4    1  0.6145708E+003  0.3272271E+02  0.7546771E-02  0.1397321E+00
          2   -1    0    0  501    0  0.00000000000E+00  0.00000000000E+00  0.11980701012E+04  0.11980701012E+04  0.00000000000E+00 0. -1.
         -2   -1    0    0    0  501 -0.00000000000E+00 -0.00000000000E+00 -0.47835224335E+02  0.47835224335E+02  0.00000000000E+00 0.  1.
          2    1    1    2  502    0  0.74271157466E+01 -0.31868697166E+02  0.11922230548E+04  0.11926720372E+04  0.00000000000E+00 0. -1.
         -2    1    1    2    0  502 -0.74271157466E+01  0.31868697166E+02 -0.41988177904E+02  0.53233288373E+02  0.00000000000E+00 0.  1.
</event>
<event>
 4    1  0.6145708E+003  0.3423030E+02  0.7546771E-02  0.1386057E+00
          2   -1    0    0  501    0  0.00000000000E+00  0.00000000000E+00  0.69714336041E+03  0.69714336041E+03  0.00000000000E+00 0. -1.
         -2   -1    0    0    0  501 -0.00000000000E+00 -0.00000000000E+00 -0.23056270734E+01  0.23056270734E+01  0.00000000000E+00 0. -1.
          2    1    1    2  502    0  0.10684206624E+02 -0.32520169069E+02  0.52948694833E+03  0.53059225600E+03  0.00000000000E+00 0. -1.
         -2    1    1    2    0  502 -0.10684206624E+02  0.32520169069E+02  0.16535078500E+03  0.16885673149E+03  0.00000000000E+00 0. -1.
</event>
<event>
 4    1  0.6145708E+003  0.2418958E+02  0.7546771E-02  0.1478077E+00
          2   -1    0    0  501    0  0.00000000000E+00  0.00000000000E+00  0.12772933165E+04  0.12772933165E+04  0.00000000000E+00 0.  1.
         -2   -1    0    0    0  501 -0.00000000000E+00 -0.00000000000E+00 -0.56750761563E+01  0.56750761563E+01  0.00000000000E+00 0. -1.
          2    1    1    2  502    0 -0.17140980949E+01  0.24128768510E+02  0.12508575229E+04  0.12510913948E+04  0.00000000000E+00 0.  1.
         -2    1    1    2    0  502  0.17140980949E+01 -0.24128768510E+02  0.20760717442E+02  0.31876997832E+02  0.00000000000E+00 0. -1.
</event>
<event>
 4    1  0.6145708E+003  0.2728064E+02  0.7546771E-02  0.1444809E+00
          2   -1    0    0  501    0  0.00000000000E+00  0.00000000000E+00  0.39687059565E+01  0.39687059565E+01  0.00000000000E+00 0.  1.
         -2   -1    0    0    0  501 -0.00000000000E+00 -0.00000000000E+00 -0.29454338365E+03  0.29454338365E+03  0.00000000000E+00 0. -1.
          2    1    1    2  502    0  0.11009268625E+02  0.24960551221E+02 -0.55319827916E+02  0.61680762590E+02  0.00000000000E+00 0.  1.
         -2    1    1    2    0  502 -0.11009268625E+02 -0.24960551221E+02 -0.23525484978E+03  0.23683132702E+03  0.00000000000E+00 0. -1.
</event>
<event>
 4    1  0.6145708E+003  0.2126863E+02  0.7546771E-02  0.1515464E+00
          2   -1    0    0  501    0  0.00000000000E+00  0.00000000000E+00  0.41571524057E+02  0.41571524057E+02  0.00000000000E+00 0. -1.
         -2   -1    0    0    0  501 -0.00000000000E+00 -0.00000000000E+00 -0.25369953065E+02  0.25369953065E+02  0.00000000000E+00 0. -1.
          2    1    1    2  502    0 -0.13345693901E+02  0.16560409862E+02  0.33394847016E+02  0.39592556469E+02  0.00000000000E+00 0. -1.
         -2    1    1    2    0  502  0.13345693901E+02 -0.16560409862E+02 -0.17193276024E+02  0.27348920654E+02  0.00000000000E+00 0. -1.
</event>
<event>
 4    1  0.6145708E+003  0.3982867E+02  0.7546771E-02  0.1349493E+00
          2   -1    0    0  501    0  0.00000000000E+00  0.00000000000E+00  0.15318286837E+04  0.15318286837E+04  0.00000000000E+00 0.  1.
         -2   -1    0    0    0  501 -0.00000000000E+00 -0.00000000000E+00 -0.17616117928E+01  0.17616117928E+01  0.00000000000E+00 0.  1.
          2    1    1    2  502    0 -0.18322500438E+02 -0.35363951752E+02  0.12573038436E+04  0.12579345286E+04  0.00000000000E+00 0.  1.
         -2    1    1    2    0  502  0.18322500438E+02  0.35363951752E+02  0.27276322823E+03  0.27565576682E+03  0.00000000000E+00 0.  1.
</event>
<event>
 4    1  0.6145708E+003  0.2855042E+02  0.7546771E-02  0.1432626E+00
          2   -1    0    0  501    0  0.00000000000E+00  0.00000000000E+00  0.17311620135E+02  0.17311620135E+02  0.00000000000E+00 0. -1.
         -2   -1    0    0    0  501 -0.00000000000E+00 -0.00000000000E+00 -0.55116220755E+02  0.55116220755E+02  0.00000000000E+00 0. -1.
          2    1    1    2  502    0 -0.27031318757E+02 -0.91888010978E+01 -0.50789556085E+01  0.28998655994E+02  0.00000000000E+00 0. -1.
         -2    1    1    2    0  502  0.27031318757E+02  0.91888010978E+01 -0.32725645011E+02  0.43429184896E+02  0.00000000000E+00 0. -1.
</event>
<event>
 4    1  0.6145708E+003  0.3676403E+02  0.7546771E-02  0.1368568E+00
          2   -1    0    0  501    0  0.00000000000E+00  0.00000000000E+00  0.21437284270E+03  0.21437284270E+03  0.00000000000E+00 0. -1.
         -2   -1    0    0    0  501 -0.00000000000E+00 -0.00000000000E+00 -0.15696838227E+03  0.15696838227E+03  0.00000000000E+00 0.  1.
          2    1    1    2  502    0 -0.36687832135E+02  0.23657072346E+01  0.21060575641E+03  0.21379050080E+03  0.00000000000E+00 0. -1.
         -2    1    1    2    0  502  0.36687832135E+02 -0.23657072346E+01 -0.15320129598E+03  0.15755072417E+03  0.00000000000E+00 0.  1.
</event>
<event>
 4    1  0.6145708E+003  0.2162611E+02  0.7546771E-02  0.1510510E+00
          2   -1    0    0  501    0  0.00000000000E+00  0.00000000000E+00  0.48794742070E+03  0.48794742070E+03  0.00000000000E+00 0. -1.
         -2   -1    0    0    0  501 -0.00000000000E+00 -0.00000000000E+00 -0.16197335605E+01  0.16197335605E+01  0.00000000000E+00 0. -1.
          2    1    1    2  502    0 -0.18924075451E+02  0.10467472202E+02  0.39956644972E+03  0.40015126683E+03  0.00000000000E+00 0. -1.
         -2    1    1    2    0  502  0.18924075451E+02 -0.10467472202E+02  0.86761237422E+02  0.89415887430E+02  0.00000000000E+00 0. -1.
</event>
<event>
 4    1  0.6145708E+003  0.2128092E+02  0.7546771E-02  0.1515292E+00
          2   -1    0    0  501    0  0.00000000000E+00  0.00000000000E+00  0.13255818646E+04  0.13255818646E+04  0.00000000000E+00 0. -1.
         -2   -1    0    0    0  501 -0.00000000000E+00 -0.00000000000E+00 -0.11889908470E+01  0.11889908470E+01  0.00000000000E+00 0. -1.
          2    1    1    2  502    0 -0.14345348813E+01  0.21232514747E+02  0.12222211437E+04  0.12224063979E+04  0.00000000000E+00 0. -1.
         -2    1    1    2    0  502  0.14345348813E+01 -0.21232514747E+02  0.10217173012E+03  0.10436445759E+03  0.00000000000E+00 0. -1.
</event>
<event>
 4    1  0.6145708E+003  0.3386311E+02  0.7546771E-02  0.1388737E+00
          2   -1    0    0  501    0  0.00000000000E+00  0.00000000000E+00  0.81278550187E+03  0.81278550187E+03  0.00000000000E+00 0. -1.
         -2   -1    0    0    0  501 -0.00000000000E+00 -0.00000000000E+00 -0.39846829473E+01  0.39846829473E+01  0.00000000000E+00 0. -1.
          2    1    1    2  502    0 -0.33337645575E+02 -0.59423526398E+01  0.73261964517E+03  0.73340183710E+03  0.00000000000E+00 0. -1.
         -2    1    1    2    0  502  0.33337645575E+02  0.59423526398E+01  0.76181173752E+02  0.83368347720E+02  0.00000000000E+00 0. -1.
</event>
<event>
 4    1  0.6145708E+003  0.3653492E+02  0.7546771E-02  0.1370082E+00
          2   -1    0    0  501    0  0.00000000000E+00  0.00000000000E+00  0.63648396250E+03  0.63648396250E+03  0.00000000000E+00 0.  1.
         -2   -1    0    0    0  501 -0.00000000000E+00 -0.00000000000E+00 -0.30582435936E+02  0.30582435936E+02  0.00000000000E+00 0. -1.
          2    1    1    2  502    0 -0.27059699518E+02 -0.24547357013E+02  0.62484511091E+03  0.62591230432E+03  0.00000000000E+00 0.  1.
         -2    1    1    2    0  502  0.27059699518E+02  0.24547357013E+02 -0.18943584347E+02  0.41154094113E+02  0.00000000000E+00 0. -1.
</event>
<event>
 4    1  0.6145708E+003  0.7111658E+02  0.7546771E-02  0.1226123E+00
          2   -1    0    0  501    0  0.00000000000E+00  0.00000000000E+00  0.33676732599E+03  0.33676732599E+03  0.00000000000E+00 0.  1.
         -2   -1    0    0    0  501 -0.00000000000E+00 -0.00000000000E+00 -0.41397948398E+03  0.41397948398E+03  0.00000000000E+00 0.  1.
          2    1    1    2  502    0 -0.59351409920E+02 -0.39178795319E+02  0.32989569414E+03  0.33747405363E+03  0.00000000000E+00 0.  1.
         -2    1    1    2    0  502  0.59351409920E+02  0.39178795319E+02 -0.40710785214E+03  0.41327275634E+03  0.00000000000E+00 0.  1.
</event>
<event>
 4    1  0.6145708E+003  0.2754714E+02  0.7546771E-02  0.1442188E+00
          2   -1    0    0  501    0  0.00000000000E+00  0.00000000000E+00  0.19409647953E+03  0.19409647953E+03  0.00000000000E+00 0.  1.
         -2   -1    0    0    0  501 -0.00000000000E+00 -0.00000000000E+00 -0.72945214554E+01  0.72945214554E+01  0.00000000000E+00 0.  1.
          2    1    1    2  502    0 -0.50469827157E+00 -0.27542511730E+02  0.16199468727E+03  0.16432018554E+03  0.00000000000E+00 0.  1.
         -2    1    1    2    0  502  0.50469827157E+00  0.27542511730E+02  0.24807270798E+02  0.37070815437E+02  0.00000000000E+00 0.  1.
</event>
<event>
 4    1  0.6145708E+003  0.3455057E+02  0.7546771E-02  0.1383751E+00
          2   -1    0    0  501    0  0.00000000000E+00  0.00000000000E+00  0.26447546770E+04  0.26447546770E+04  0.00000000000E+00 0.  1.
         -2   -1    0    0    0  501 -0.00000000000E+00 -0.00000000000E+00 -0.88924313199E+00  0.88924313199E+00  0.00000000000E+00 0.  1.
          2    1    1    2  502    0 -0.34008093747E+02 -0.60984777786E+01  0.22501918511E+04  0.22504570888E+04  0.00000000000E+00 0.  1.
         -2    1    1    2    0  502  0.34008093747E+02  0.60984777786E+01  0.39367358276E+03  0.39518683130E+03  0.00000000000E+00 0.  1.
</event>
<event>
 4    1  0.6145708E+003  0.2371902E+02  0.7546771E-02  0.1483661E+00
          2   -1    0    0  501    0  0.00000000000E+00  0.00000000000E+00  0.64089520451E+03  0.64089520451E+03  0.00000000000E+00 0.  1.
         -2   -1    0    0    0  501 -0.00000000000E+00 -0.00000000000E+00 -0.16913432625E+01  0.16913432625E+01  0.00000000000E+00 0. -1.
          2    1    1    2  502    0  0.23682134073E+02  0.13223565028E+01  0.54243011916E+03  0.54294845637E+03  0.00000000000E+00 0.  1.
         -2    1    1    2    0  502 -0.23682134073E+02 -0.13223565028E+01  0.96773742082E+02  0.99638091399E+02  0.00000000000E+00 0. -1.
</event>
<event>
 4    1  0.6145708E+003  0.2295305E+02  0.7546771E-02  0.1493089E+00
          2   -1    0    0  501    0  0.00000000000E+00  0.00000000000E+00  0.33066144989E+02  0.33066144989E+02  0.00000000000E+00 0.  1.
         -2   -1    0    0    0  501 -0.00000000000E+00 -0.00000000000E+00 -0.18333696406E+02  0.18333696406E+02  0.00000000000E+00 0. -1.
          2    1    1    2  502    0  0.15566595528E+02  0.16867827974E+02  0.16666084105E+02  0.28365487415E+02  0.00000000000E+00 0.  1.
         -2    1    1    2    0  502 -0.15566595528E+02 -0.16867827974E+02 -0.19336355224E+01  0.23034353979E+02  0.00000000000E+00 0. -1.
</event>
<event>
 4    1  0.6145708E+003  0.4355452E+02  0.7546771E-02  0.1328827E+00
          2   -1    0    0  501    0  0.00000000000E+00  0.00000000000E+00  0.71064560925E+01  0.71064560925E+01  0.00000000000E+00 0. -1.
         -2   -1    0    0    0  501 -0.00000000000E+00 -0.00000000000E+00 -0.32535539732E+03  0.32535539732E+03  0.00000000000E+00 0.  1.
          2    1    1    2  502    0  0.41661745176E+02  0.12700200608E+02 -0.88688069713E+02  0.98805717526E+02  0.00000000000E+00 0. -1.
         -2    1    1    2    0  502 -0.41661745176E+02 -0.12700200608E+02 -0.22956087151E+03  0.23365613589E+03  0.00000000000E+00 0.  1.
</event>
<event>
 4    1  0.6145708E+003  0.5108060E+02  0.7546771E-02  0.1293554E+00
          2   -1    0    0  501    0  0.00000000000E+00  0.00000000000E+00  0.44192155212E+03  0.44192155212E+03  0.00000000000E+00 0.  1.
         -2   -1    0    0    0  501 -0.00000000000E+00 -0.00000000000E+00 -0.59085381854E+01  0.59085381854E+01  0.00000000000E+00 0. -1.
          2    1    1    2  502    0  0.50508224969E+02  0.76252166267E+01  0.21198921721E+03  0.21805653609E+03  0.00000000000E+00 0.  1.
         -2    1    1    2    0  502 -0.50508224969E+02 -0.76252166267E+01  0.22402379672E+03  0.22977355421E+03  0.00000000000E+00 0. -1.
</event>
<event>
 4    1  0.6145708E+003  0.2910006E+02  0.7546771E-02  0.1427581E+00
          2   -1    0    0  501    0  0.00000000000E+00  0.00000000000E+00  0.96003708033E+03  0.96003708033E+03  0.00000000000E+00 0.  1.
         -2   -1    0    0    0  501 -0.00000000000E+00 -0.00000000000E+00 -0.15590253245E+02  0.15590253245E+02  0.00000000000E+00 0. -1.
          2    1    1    2  502    0 -0.10999280795E+01 -0.29079261469E+02  0.94603643982E+03  0.94648389250E+03  0.00000000000E+00 0.  1.
         -2    1    1    2    0  502  0.10999280795E+01  0.29079261469E+02 -0.15896127320E+01  0.29143441081E+02  0.00000000000E+00 0. -1.
</event>
<event>
 4    1  0.6145708E+003  0.2609859E+02  0.7546771E-02  0.1456879E+00
          2   -1    0    0  501    0  0.00000000000E+00  0.00000000000E+00  0.70798775490E+03  0.70798775490E+03  0.00000000000E+00 0.  1.
         -2   -1    0    0    0  501 -0.00000000000E+00 -0.00000000000E+00 -0.43591303298E+01  0.43591303298E+01  0.00000000000E+00 0.  1.
          2    1    1    2  502    0 -0.20995448994E+02  0.15502502057E+02  0.66623636305E+03  0.66674734938E+03  0.00000000000E+00 0.  1.
         -2    1    1    2    0  502  0.20995448994E+02 -0.15502502057E+02  0.37392261512E+02  0.45599535847E+02  0.00000000000E+00 0.  1.
</event>
<event>
 4    1  0.6145708E+003  0.2193372E+02  0.7546771E-02  0.1506340E+00
          2   -1    0    0  501    0  0.00000000000E+00  0.00000000000E+00  0.11852501763E+03  0.11852501763E+03  0.00000000000E+00 0.  1.
         -2   -1    0    0    0  501 -0.00000000000E+00 -0.00000000000E+00 -0.10591931306E+02  0.10591931306E+02  0.00000000000E+00 0.  1.
          2    1    1    2  502    0 -0.21163870575E+02 -0.57600975872E+01  0.10466807757E+03  0.10694154760E+03  0.00000000000E+00 0.  1.
         -2    1    1    2    0  502  0.21163870575E+02  0.57600975872E+01  0.32650087521E+01  0.22175401328E+02  0.00000000000E+00 0.  1.
</event>
<event>
 4    1  0.6145708E+003  0.5161319E+02  0.7546771E-02  0.1291326E+00
          2   -1    0    0  501    0  0.00000000000E+00  0.00000000000E+00  0.12380290112E+03  0.12380290112E+03  0.00000000000E+00 0.  1.
         -2   -1    0    0    0  501 -0.00000000000E+00 -0.00000000000E+00 -0.24804778729E+02  0.24804778729E+02  0.00000000000E+00 0. -1.
          2    1    1    2  502    0  0.46769369396E+02  0.21829956633E+02  0.76548989305E+02  0.92323716801E+02  0.00000000000E+00 0.  1.
         -2    1    1    2    0  502 -0.46769369396E+02 -0.21829956633E+02  0.22449133090E+02  0.56283963052E+02  0.00000000000E+00 0. -1.
</event>
<event>
 4    1  0.6145708E+003  0.3569168E+02  0.7546771E-02  0.1375765E+00
          2   -1    0    0  501    0  0.00000000000E+00  0.00000000000E+00  0.52628581390E+03  0.52628581390E+03  0.00000000000E+00 0.  1.
         -2   -1    0    0    0  501 -0.00000000000E+00 -0.00000000000E+00 -0.88604303795E+01  0.88604303795E+01  0.00000000000E+00 0. -1.
          2    1    1    2  502    0 -0.34055346114E+02 -0.10683149671E+02  0.48682792497E+03  0.48813453557E+03  0.00000000000E+00 0.  1.
         -2    1    1    2    0  502  0.34055346114E+02  0.10683149671E+02  0.30597458546E+02  0.47011708705E+02  0.00000000000E+00 0. -1.
</event>
<event>
 4    1  0.6519792E+003  0.2781974E+02  0.7546771E-02  0.1439543E+00
          2   -1    0    0  501    0  0.00000000000E+00  0.00000000000E+00  0.59056386311E+03  0.59056386311E+03  0.00000000000E+00 0.  1.
         -2   -1    0    0    0  501 -0.00000000000E+00 -0.00000000000E+00 -0.63336384047E+03  0.63336384047E+03  0.00000000000E+00 0.  1.
          2    1    1    2  502    0  0.27698459434E+02 -0.25948252974E+01  0.58993042162E+03  0.59058601416E+03  0.00000000000E+00 0.  1.
         -2    1    1    2    0  502 -0.27698459434E+02  0.25948252974E+01 -0.63273039898E+03  0.63334168942E+03  0.00000000000E+00 0.  1.
</event>
<event>
 4    1  0.6145708E+003  0.2854237E+02  0.7546771E-02  0.1432701E+00
          2   -1    0    0  501    0  0.00000000000E+00  0.00000000000E+00  0.23029445526E+02  0.23029445526E+02  0.00000000000E+00 0. -1.
         -2   -1    0    0    0  501 -0.00000000000E+00 -0.00000000000E+00 -0.49025049832E+02  0.49025049832E+02  0.00000000000E+00 0. -1.
          2    1    1    2  502    0 -0.20214372876E+02  0.20150583983E+02  0.60124989267E+01  0.29168768383E+02  0.00000000000E+00 0. -1.
         -2    1    1    2    0  502  0.20214372876E+02 -0.20150583983E+02 -0.32008103232E+02  0.42885726975E+02  0.00000000000E+00 0. -1.
</event>
<event>
 4    1  0.6145708E+003  0.2286603E+02  0.7546771E-02  0.1494187E+00
          2   -1    0    0  501    0  0.00000000000E+00  0.00000000000E+00  0.12666052133E+03  0.12666052133E+03  0.00000000000E+00 0.  1.
         -2   -1    0    0    0  501 -0.00000000000E+00 -0.00000000000E+00 -0.47091294488E+01  0.47091294488E+01  0.00000000000E+00 0.  1.
          2    1    1    2  502    0 -0.65843337196E+01 -0.21897526359E+02  0.84050061231E+02  0.87104924683E+02  0.00000000000E+00 0.  1.
         -2    1    1    2    0  502  0.65843337196E+01  0.21897526359E+02  0.37901330646E+02  0.44264726091E+02  0.00000000000E+00 0.  1.
</event>
<event>
 4    1  0.6145708E+003  0.7187332E+02  0.7546771E-02  0.1224085E+00
          2   -1    0    0  501    0  0.00000000000E+00  0.00000000000E+00  0.13549628189E+04  0.13549628189E+04  0.00000000000E+00 0. -1.
         -2   -1    0    0    0  501 -0.00000000000E+00 -0.00000000000E+00 -0.66551036076E+01  0.66551036076E+01  0.00000000000E+00 0.  1.
          2    1    1    2  502    0  0.49619089493E+02 -0.51997310553E+02  0.11190997594E+04  0.11214053887E+04  0.00000000000E+00 0. -1.
         -2    1    1    2    0  502 -0.49619089493E+02  0.51997310553E+02  0.22920795587E+03  0.24021253377E+03  0.00000000000E+00 0.  1.
</event>
<event>
 4    1  0.6145708E+003  0.2352554E+02  0.7546771E-02  0.1486002E+00
          2   -1    0    0  501    0  0.00000000000E+00  0.00000000000E+00  0.55286788635E+03  0.55286788635E+03  0.00000000000E+00 0.  1.
         -2   -1    0    0    0  501 -0.00000000000E+00 -0.00000000000E+00 -0.25488539180E+01  0.25488539180E+01  0.00000000000E+00 0.  1.
          2    1    1    2  502    0  0.13548013382E+02 -0.19232851637E+02  0.49156773187E+03  0.49213035495E+03  0.00000000000E+00 0.  1.
         -2    1    1    2    0  502 -0.13548013382E+02  0.19232851637E+02  0.58751300559E+02  0.63286385314E+02  0.00000000000E+00 0.  1.
</event>
<event>
 4    1  0.6145708E+003  0.2183283E+02  0.7546771E-02  0.1507699E+00
          2   -1    0    0  501    0  0.00000000000E+00  0.00000000000E+00  0.21443457104E+03  0.21443457104E+03  0.00000000000E+00 0. -1.
         -2   -1    0    0    0  501 -0.00000000000E+00 -0.00000000000E+00 -0.37250193351E+01  0.37250193351E+01  0.00000000000E+00 0. -1.
          2    1    1    2  502    0 -0.21824150907E+02 -0.61545548558E+00  0.17462209772E+03  0.17598167336E+03  0.00000000000E+00 0. -1.
         -2    1    1    2    0  502  0.21824150907E+02  0.61545548558E+00  0.36087453989E+02  0.42177917015E+02  0.00000000000E+00 0. -1.
</event>
<event>
 4    1  0.6145708E+003  0.2357169E+02  0.7546771E-02  0.1485441E+00
          2   -1    0    0  501    0  0.00000000000E+00  0.00000000000E+00  0.24972390084E+03  0.24972390084E+03  0.00000000000E+00 0. -1.
         -2   -1    0    0    0  501 -0.00000000000E+00 -0.00000000000E+00 -0.10915058436E+03  0.10915058436E+03  0.00000000000E+00 0. -1.
          2    1    1    2  502    0  0.23542431755E+02 -0.11741421725E+01  0.24788563521E+03  0.24900384102E+03  0.00000000000E+00 0. -1.
         -2    1    1    2    0  502 -0.23542431755E+02  0.11741421725E+01 -0.10731231872E+03  0.10987064418E+03  0.00000000000E+00 0. -1.
</event>
<event>
 4    1  0.6145708E+003  0.2027822E+02  0.7546771E-02  0.1529824E+00
          2   -1    0    0  501    0  0.00000000000E+00  0.00000000000E+00  0.96171081427E+02  0.96171081427E+02  0.00000000000E+00 0.  1.
         -2   -1    0    0    0  501 -0.00000000000E+00 -0.00000000000E+00 -0.47853379534E+01  0.47853379534E+01  0.00000000000E+00 0.  1.
          2    1    1    2  502    0  0.90491180589E+01  0.18147154603E+02  0.29220838323E+02  0.35567726243E+02  0.00000000000E+00 0.  1.
         -2    1    1    2    0  502 -0.90491180589E+01 -0.18147154603E+02  0.62164905151E+02  0.65388693138E+02  0.00000000000E+00 0.  1.
</event>
<event>
 4    1  0.6145708E+003  0.2895536E+02  0.7546771E-02  0.1428897E+00
          2   -1    0    0  501    0  0.00000000000E+00  0.00000000000E+00  0.24009553789E+04  0.24009553789E+04  0.00000000000E+00 0. -1.
         -2   -1    0    0    0  501 -0.00000000000E+00 -0.00000000000E+00 -0.60956772397E+00  0.60956772397E+00  0.00000000000E+00 0. -1.
          2    1    1    2  502    0 -0.24777431930E+02  0.14983053908E+02  0.19849514728E+04  0.19851626539E+04  0.00000000000E+00 0. -1.
         -2    1    1    2    0  502  0.24777431930E+02 -0.14983053908E+02  0.41539433841E+03  0.41640229277E+03  0.00000000000E+00 0. -1.
</event>
<event>
 4    1  0.6145708E+003  0.2768960E+02  0.7546771E-02  0.1440801E+00
          2   -1    0    0  501    0  0.00000000000E+00  0.00000000000E+00  0.16227270987E+04  0.16227270987E+04  0.00000000000E+00 0.  1.
         -2   -1    0    0    0  501 -0.00000000000E+00 -0.00000000000E+00 -0.26190390269E+01  0.26190390269E+01  0.00000000000E+00 0.  1.
          2    1    1    2  502    0  0.24421695662E+02  0.13049702184E+02  0.15457795344E+04  0.15460275169E+04  0.00000000000E+00 0.  1.
         -2    1    1    2    0  502 -0.24421695662E+02 -0.13049702184E+02  0.74328525328E+02  0.79318620913E+02  0.00000000000E+00 0.  1.
</event>
<event>
 4    1  0.6145708E+003  0.2748776E+02  0.7546771E-02  0.1442769E+00
          2   -1    0    0  501    0  0.00000000000E+00  0.00000000000E+00  0.18896693223E+03  0.18896693223E+03  0.00000000000E+00 0. -1.
         -2   -1    0    0    0  501 -0.00000000000E+00 -0.00000000000E+00 -0.53450210683E+02  0.53450210683E+02  0.00000000000E+00 0. -1.
          2    1    1    2  502    0 -0.27368220503E+02  0.25607841052E+01  0.18434517857E+03  0.18638326633E+03  0.00000000000E+00 0. -1.
         -2    1    1    2    0  502  0.27368220503E+02 -0.25607841052E+01 -0.48828457023E+02  0.56033876575E+02  0.00000000000E+00 0. -1.
</event>
<event>
 4    1  0.6145708E+003  0.2374404E+02  0.7546771E-02  0.1483361E+00
          2   -1    0    0  501    0  0.00000000000E+00  0.00000000000E+00  0.79998436890E+03  0.79998436890E+03  0.00000000000E+00 0.  1.
         -2   -1    0    0    0  501 -0.00000000000E+00 -0.00000000000E+00 -0.50008470098E+01  0.50008470098E+01  0.00000000000E+00 0.  1.
          2    1    1    2  502    0 -0.23013210739E+02  0.58456614645E+01  0.77054752572E+03  0.77091326945E+03  0.00000000000E+00 0.  1.
         -2    1    1    2    0  502  0.23013210739E+02 -0.58456614645E+01  0.24435996170E+02  0.34071946456E+02  0.00000000000E+00 0.  1.
</event>
<event>
 4    1  0.6145708E+003  0.2022503E+02  0.7546771E-02  0.1530623E+00
          2   -1    0    0  501    0  0.00000000000E+00  0.00000000000E+00  0.31030703798E+03  0.31030703798E+03  0.00000000000E+00 0.  1.
         -2   -1    0    0    0  501 -0.00000000000E+00 -0.00000000000E+00 -0.97039830781E+02  0.97039830781E+02  0.00000000000E+00 0. -1.
          2    1    1    2  502    0  0.20162086097E+02  0.15943648323E+01  0.30891892947E+03  0.30958029120E+03  0.00000000000E+00 0.  1.
         -2    1    1    2    0  502 -0.20162086097E+02 -0.15943648323E+01 -0.95651722270E+02  0.97766577562E+02  0.00000000000E+00 0. -1.
</event>
<event>
 4    1  0.6145708E+003  0.2520547E+02  0.7546771E-02  0.1466518E+00
          2   -1    0    0  501    0  0.00000000000E+00  0.00000000000E+00  0.96674486059E+03  0.96674486059E+03  0.00000000000E+00 0. -1.
         -2   -1    0    0    0  501 -0.00000000000E+00 -0.00000000000E+00 -0.99998748923E+00  0.99998748923E+00  0.00000000000E+00 0. -1.
          2    1    1    2  502    0  0.82429639055E+01 -0.23819515768E+02  0.76618447647E+03  0.76659896149E+03  0.00000000000E+00 0. -1.
         -2    1    1    2    0  502 -0.82429639055E+01  0.23819515768E+02  0.19956039663E+03  0.20114588658E+03  0.00000000000E+00 0. -1.
</event>
<event>
 4    1  0.6145708E+003  0.3755019E+02  0.7546771E-02  0.1363472E+00
          2   -1    0    0  501    0  0.00000000000E+00  0.00000000000E+00  0.17330675203E+04  0.17330675203E+04  0.00000000000E+00 0. -1.
         -2   -1    0    0    0  501 -0.00000000000E+00 -0.00000000000E+00 -0.83501942902E+00  0.83501942902E+00  0.00000000000E+00 0. -1.
          2    1    1    2  502    0 -0.13510608570E+02 -0.35035392391E+02  0.72724898419E+03  0.72821775608E+03  0.00000000000E+00 0. -1.
         -2    1    1    2    0  502  0.13510608570E+02  0.35035392391E+02  0.10049835166E+04  0.10056847836E+04  0.00000000000E+00 0. -1.
</event>
<event>
 4    1  0.6145708E+003  0.2907500E+02  0.7546771E-02  0.1427809E+00
          2   -1    0    0  501    0  0.00000000000E+00  0.00000000000E+00  0.14361608957E+04  0.14361608957E+04  0.00000000000E+00 0. -1.
         -2   -1    0    0    0  501 -0.00000000000E+00 -0.00000000000E+00 -0.10543235796E+02  0.10543235796E+02  0.00000000000E+00 0. -1.
          2    1    1    2  502    0 -0.25204405695E+02 -0.14494600776E+02  0.14156787860E+04  0.14159773235E+04  0.00000000000E+00 0. -1.
         -2    1    1    2    0  502  0.25204405695E+02  0.14494600776E+02  0.99388739658E+01  0.30726808064E+02  0.00000000000E+00 0. -1.
</event>
<event>
 4    1  0.6145708E+003  0.2166718E+02  0.7546771E-02  0.1509949E+00
          2   -1    0    0  501    0  0.00000000000E+00  0.00000000000E+00  0.97060994742E+02  0.97060994742E+02  0.00000000000E+00 0.  1.
         -2   -1    0    0    0  501 -0.00000000000E+00 -0.00000000000E+00 -0.89691592092E+01  0.89691592092E+01  0.00000000000E+00 0. -1.
          2    1    1    2  502    0  0.20867709315E+02  0.58314127938E+01  0.80030913376E+02  0.82912084541E+02  0.00000000000E+00 0.  1.
         -2    1    1    2    0  502 -0.20867709315E+02 -0.58314127938E+01  0.80609221570E+01  0.23118069410E+02  0.00000000000E+00 0. -1.
</event>
<event>
 4    1  0.6145708E+003  0.2265579E+02  0.7546771E-02  0.1496866E+00
          2   -1    0    0  501    0  0.00000000000E+00  0.00000000000E+00  0.82914880805E+03  0.82914880805E+03  0.00000000000E+00 0. -1.
         -2   -1    0    0    0  501 -0.00000000000E+00 -0.00000000000E+00 -0.43426175455E+01  0.43426175455E+01  0.00000000000E+00 0. -1.
          2    1    1    2  502    0 -0.73689206770E+01 -0.21423907136E+02  0.79830324952E+03  0.79862466965E+03  0.00000000000E+00 0. -1.
         -2    1    1    2    0  502  0.73689206770E+01  0.21423907136E+02  0.26502940984E+02  0.34866755939E+02  0.00000000000E+00 0. -1.
</event>
<event>
 4    1  0.6145708E+003  0.3804496E+02  0.7546771E-02  0.1360339E+00
          2   -1    0    0  501    0  0.00000000000E+00  0.00000000000E+00  0.69558317782E+01  0.69558317782E+01  0.00000000000E+00 0. -1.
         -2   -1    0    0    0  501 -0.00000000000E+00 -0.00000000000E+00 -0.22764585433E+03  0.22764585433E+03  0.00000000000E+00 0. -1.
          2    1    1    2  502    0  0.27869428338E+02 -0.25898142837E+02 -0.75962159456E+02  0.84956862628E+02  0.00000000000E+00 0. -1.
         -2    1    1    2    0  502 -0.27869428338E+02  0.25898142837E+02 -0.14472786310E+03  0.14964482348E+03  0.00000000000E+00 0. -1.
</event>
<event>
 4    1  0.6145708E+003  0.5429384E+02  0.7546771E-02  0.1280557E+00
          2   -1    0    0  501    0  0.00000000000E+00  0.00000000000E+00  0.72604367758E+03  0.72604367758E+03  0.00000000000E+00 0.  1.
         -2   -1    0    0    0  501 -0.00000000000E+00 -0.00000000000E+00 -0.92291974958E+01  0.92291974958E+01  0.00000000000E+00 0. -1.
          2    1    1    2  502    0  0.36624089573E+02 -0.40081131066E+02  0.63354063089E+03  0.63586284055E+03  0.00000000000E+00 0.  1.
         -2    1    1    2    0  502 -0.36624089573E+02  0.40081131066E+02  0.83273849191E+02  0.99410034522E+02  0.00000000000E+00 0. -1.
</event>
<event>
 4    1  0.6145708E+003  0.2113204E+02  0.7546771E-02  0.1517388E+00
          2   -1    0    0  501    0  0.00000000000E+00  0.00000000000E+00  0.27012083498E+03  0.27012083498E+03  0.00000000000E+00 0.  1.
         -2   -1    0    0    0  501 -0.00000000000E+00 -0.00000000000E+00 -0.62832582867E+01  0.62832582867E+01  0.00000000000E+00 0. -1.
          2    1    1    2  502    0 -0.21131234482E+02  0.18489621939E+00  0.25055447148E+03  0.25144404235E+03  0.00000000000E+00 0.  1.
         -2    1    1    2    0  502  0.21131234482E+02 -0.18489621939E+00  0.13283105212E+02  0.24960050910E+02  0.00000000000E+00 0. -1.
</event>
<event>
 4    1  0.6145708E+003  0.2959531E+02  0.7546771E-02  0.1423146E+00
          2   -1    0    0  501    0  0.00000000000E+00  0.00000000000E+00  0.24231282943E+04  0.24231282943E+04  0.00000000000E+00 0.  1.
         -2   -1    0    0    0  501 -0.00000000000E+00 -0.00000000000E+00 -0.61485815584E+00  0.61485815584E+00  0.00000000000E+00 0.  1.
          2    1    1    2  502    0  0.13576831595E+02  0.26297378314E+02  0.19892293324E+04  0.19894494764E+04  0.00000000000E+00 0.  1.
         -2    1    1    2    0  502 -0.13576831595E+02 -0.26297378314E+02  0.43328410378E+03  0.43429367605E+03  0.00000000000E+00 0.  1.
</event>
<event>
 4    1  0.6145708E+003  0.2365198E+02  0.7546771E-02  0.1484470E+00
          2   -1    0    0  501    0  0.00000000000E+00  0.00000000000E+00  0.77912056268E+01  0.77912056268E+01  0.00000000000E+00 0.  1.
         -2   -1    0    0    0  501 -0.00000000000E+00 -0.00000000000E+00 -0.73713075536E+02  0.73713075536E+02  0.00000000000E+00 0.  1.
          2    1    1    2  502    0  0.14595626651E+02  0.18611393020E+02 -0.26397488279E+02  0.35443527688E+02  0.00000000000E+00 0.  1.
         -2    1    1    2    0  502 -0.14595626651E+02 -0.18611393020E+02 -0.39524381630E+02  0.46060753475E+02  0.00000000000E+00 0.  1.
</event>
<event>
 4    1  0.6145708E+003  0.2715907E+02  0.7546771E-02  0.1446017E+00
          2   -1    0    0  501    0  0.00000000000E+00  0.00000000000E+00  0.79927609034E+03  0.79927609034E+03  0.00000000000E+00 0.  1.
         -2   -1    0    0    0  501 -0.00000000000E+00 -0.00000000000E+00 -0.17556819932E+01  0.17556819932E+01  0.00000000000E+00 0.  1.
          2    1    1    2  502    0 -0.27088020730E+02 -0.19631683824E+01  0.67461119911E+03  0.67515767407E+03  0.00000000000E+00 0.  1.
         -2    1    1    2    0  502  0.27088020730E+02  0.19631683824E+01  0.12290920924E+03  0.12587409826E+03  0.00000000000E+00 0.  1.
</event>
<event>
 4    1  0.6145708E+003  0.2440705E+02  0.7546771E-02  0.1475547E+00
          2   -1    0    0  501    0  0.00000000000E+00  0.00000000000E+00  0.15761554740E+02  0.15761554740E+02  0.00000000000E+00 0. -1.
         -2   -1    0    0    0  501 -0.00000000000E+00 -0.00000000000E+00 -0.44913345198E+02  0.44913345198E+02  0.00000000000E+00 0. -1.
          2    1    1    2  502    0  0.22599314607E+02 -0.92181544599E+01 -0.26653748157E+02  0.36140360861E+02  0.00000000000E+00 0. -1.
         -2    1    1    2    0  502 -0.22599314607E+02  0.92181544599E+01 -0.24980423012E+01  0.24534539077E+02  0.00000000000E+00 0. -1.
</event>
<event>
 4    1  0.6145708E+003  0.2416152E+02  0.7546771E-02  0.1478406E+00
          2   -1    0    0  501    0  0.00000000000E+00  0.00000000000E+00  0.27928441053E+02  0.27928441053E+02  0.00000000000E+00 0. -1.
         -2   -1    0    0    0  501 -0.00000000000E+00 -0.00000000000E+00 -0.42741148593E+02  0.42741148593E+02  0.00000000000E+00 0.  1.
          2    1    1    2  502    0  0.17153491902E+02  0.17015778346E+02  0.17851163899E+02  0.30040689901E+02  0.00000000000E+00 0. -1.
         -2    1    1    2    0  502 -0.17153491902E+02 -0.17015778346E+02 -0.32663871439E+02  0.40628899746E+02  0.00000000000E+00 0.  1.
</event>
<event>
 4    1  0.6145708E+003  0.2666369E+02  0.7546771E-02  0.1451016E+00
          2   -1    0    0  501    0  0.00000000000E+00  0.00000000000E+00  0.17108769763E+01  0.17108769763E+01  0.00000000000E+00 0.  1.
         -2   -1    0    0    0  501 -0.00000000000E+00 -0.00000000000E+00 -0.43488401839E+03  0.43488401839E+03  0.00000000000E+00 0.  1.
          2    1    1    2  502    0 -0.26663683259E+02 -0.10627231397E-01 -0.17055652128E+03  0.17262815259E+03  0.00000000000E+00 0.  1.
         -2    1    1    2    0  502  0.26663683259E+02  0.10627231397E-01 -0.26261662014E+03  0.26396674278E+03  0.00000000000E+00 0.  1.
</event>
<event>
 4    1  0.6145708E+003  0.2154608E+02  0.7546771E-02  0.1511609E+00
          2   -1    0    0  501    0  0.00000000000E+00  0.00000000000E+00  0.74437094518E+03  0.74437094518E+03  0.00000000000E+00 0. -1.
         -2   -1    0    0    0  501 -0.00000000000E+00 -0.00000000000E+00 -0.73024695154E+01  0.73024695154E+01  0.00000000000E+00 0.  1.
          2    1    1    2  502    0  0.21308752357E+02  0.31890675267E+01  0.91045845539E+01  0.23390736170E+02  0.00000000000E+00 0.  1.
         -2    1    1    2    0  502 -0.21308752357E+02 -0.31890675267E+01  0.72796389112E+03  0.72828267853E+03  0.00000000000E+00 0. -1.
</event>
<event>
 4    1  0.6145708E+003  0.2670778E+02  0.7546771E-02  0.1450566E+00
          2   -1    0    0  501    0  0.00000000000E+00  0.00000000000E+00  0.48031864945E+02  0.48031864945E+02  0.00000000000E+00 0. -1.
         -2   -1    0    0    0  501 -0.00000000000E+00 -0.00000000000E+00 -0.18886484631E+02  0.18886484631E+02  0.00000000000E+00 0. -1.
          2    1    1    2  502    0  0.24534155919E+02 -0.10553665231E+02 -0.89430935711E+00  0.26722732751E+02  0.00000000000E+00 0. -1.
         -2    1    1    2    0  502 -0.24534155919E+02  0.10553665231E+02  0.30039689671E+02  0.40195616826E+02  0.00000000000E+00 0. -1.
</event>
<event>
 4    1  0.6145708E+003  0.2139095E+02  0.7546771E-02  0.1513756E+00
          2   -1    0    0  501    0  0.00000000000E+00  0.00000000000E+00  0.72768306624E+02  0.72768306624E+02  0.00000000000E+00 0. -1.
         -2   -1    0    0    0  501 -0.00000000000E+00 -0.00000000000E+00 -0.85184021634E+01  0.85184021634E+01  0.00000000000E+00 0. -1.
          2    1    1    2  502    0  0.14550019485E+02  0.15680228753E+02  0.52921663675E+02  0.57081302778E+02  0.00000000000E+00 0. -1.
         -2    1    1    2    0  502 -0.14550019485E+02 -0.15680228753E+02  0.11328240786E+02  0.24205406010E+02  0.00000000000E+00 0. -1.
</event>
<event>
 4    1  0.6145708E+003  0.2235604E+02  0.7546771E-02  0.1500747E+00
          2   -1    0    0  501    0  0.00000000000E+00  0.00000000000E+00  0.32272998411E+01  0.32272998411E+01  0.00000000000E+00 0.  1.
         -2   -1    0    0    0  501 -0.00000000000E+00 -0.00000000000E+00 -0.81761387604E+03  0.81761387604E+03  0.00000000000E+00 0.  1.
          2    1    1    2  502    0  0.22355283127E+02 -0.18388958339E+00 -0.37680183114E+02  0.43813111035E+02  0.00000000000E+00 0.  1.
         -2    1    1    2    0  502 -0.22355283127E+02  0.18388958339E+00 -0.77670639309E+03  0.77702806485E+03  0.00000000000E+00 0.  1.
</event>
<event>
 4    1  0.6145708E+003  0.2567533E+02  0.7546771E-02  0.1461388E+00
          2   -1    0    0  501    0  0.00000000000E+00  0.00000000000E+00  0.20818756883E+03  0.20818756883E+03  0.00000000000E+00 0.  1.
         -2   -1    0    0    0  501 -0.00000000000E+00 -0.00000000000E+00 -0.80757038205E+02  0.80757038205E+02  0.00000000000E+00 0. -1.
          2    1    1    2  502    0  0.21529435316E+02 -0.13989502417E+02  0.20532686570E+03  0.20692593975E+03  0.00000000000E+00 0.  1.
         -2    1    1    2    0  502 -0.21529435316E+02  0.13989502417E+02 -0.77896335083E+02  0.82018667279E+02  0.00000000000E+00 0. -1.
</event>
<event>
 4    1  0.6145708E+003  0.3398211E+02  0.7546771E-02  0.1387864E+00
          2   -1    0    0  501    0  0.00000000000E+00  0.00000000000E+00  0.20053438889E+02  0.20053438889E+02  0.00000000000E+00 0.  1.
         -2   -1    0    0    0  501 -0.00000000000E+00 -0.00000000000E+00 -0.26052085359E+03  0.26052085359E+03  0.00000000000E+00 0.  1.
          2    1    1    2  502    0 -0.31910281611E+02 -0.11684087905E+02  0.35819786188E+01  0.34170375378E+02  0.00000000000E+00 0.  1.
         -2    1    1    2    0  502  0.31910281611E+02  0.11684087905E+02 -0.24404939332E+03  0.24640391710E+03  0.00000000000E+00 0.  1.
</event>
<event>
 4    1  0.6145708E+003  0.2209262E+02  0.7546771E-02  0.1504218E+00
          2   -1    0    0  501    0  0.00000000000E+00  0.00000000000E+00  0.63162389000E+03  0.63162389000E+03  0.00000000000E+00 0. -1.
         -2   -1    0    0    0  501 -0.00000000000E+00 -0.00000000000E+00 -0.78942586860E+00  0.78942586860E+00  0.00000000000E+00 0. -1.
          2    1    1    2  502    0 -0.16064390152E+02 -0.15166386636E+02  0.36138258573E+03  0.36205725677E+03  0.00000000000E+00 0. -1.
         -2    1    1    2    0  502  0.16064390152E+02  0.15166386636E+02  0.26945187840E+03  0.27035605909E+03  0.00000000000E+00 0. -1.
</event>
<event>
 4    1  0.6145708E+003  0.2829050E+02  0.7546771E-02  0.1435058E+00
          2   -1    0    0  501    0  0.00000000000E+00  0.00000000000E+00  0.93062223437E+03  0.93062223437E+03  0.00000000000E+00 0.  1.
         -2   -1    0    0    0  501 -0.00000000000E+00 -0.00000000000E+00 -0.11553131951E+01  0.11553131951E+01  0.00000000000E+00 0.  1.
          2    1    1    2  502    0  0.22647763571E+02  0.16953773235E+02  0.22919557750E+03  0.23093497866E+03  0.00000000000E+00 0.  1.
         -2    1    1    2    0  502 -0.22647763571E+02 -0.16953773235E+02  0.70027134368E+03  0.70084256891E+03  0.00000000000E+00 0.  1.
</event>
<event>
 4    1  0.6145708E+003  0.3984116E+02  0.7546771E-02  0.1349419E+00
          2   -1    0    0  501    0  0.00000000000E+00  0.00000000000E+00  0.23207604429E+04  0.23207604429E+04  0.00000000000E+00 0. -1.
         -2   -1    0    0    0  501 -0.00000000000E+00 -0.00000000000E+00 -0.68984695317E+00  0.68984695317E+00  0.00000000000E+00 0. -1.
          2    1    1    2  502    0  0.37446185935E+02 -0.13605176654E+02  0.12672201908E+04  0.12678463352E+04  0.00000000000E+00 0. -1.
         -2    1    1    2    0  502 -0.37446185935E+02  0.13605176654E+02  0.10528504052E+04  0.10536039547E+04  0.00000000000E+00 0. -1.
</event>
<event>
 4    1  0.6145708E+003  0.7148547E+02  0.7546771E-02  0.1225126E+00
          2   -1    0    0  501    0  0.00000000000E+00  0.00000000000E+00  0.21676532059E+04  0.21676532059E+04  0.00000000000E+00 0.  1.
         -2   -1    0    0    0  501 -0.00000000000E+00 -0.00000000000E+00 -0.87391314032E+01  0.87391314032E+01  0.00000000000E+00 0.  1.
          2    1    1    2  502    0  0.70378020487E+01 -0.71138184090E+02  0.20093651211E+04  0.20106363077E+04  0.00000000000E+00 0.  1.
         -2    1    1    2    0  502 -0.70378020487E+01  0.71138184090E+02  0.14954895343E+03  0.16575602965E+03  0.00000000000E+00 0.  1.
</event>
<event>
 4    1  0.6145708E+003  0.2011734E+02  0.7546771E-02  0.1532250E+00
          2   -1    0    0  501    0  0.00000000000E+00  0.00000000000E+00  0.12304905145E+03  0.12304905145E+03  0.00000000000E+00 0. -1.
         -2   -1    0    0    0  501 -0.00000000000E+00 -0.00000000000E+00 -0.33367665818E+01  0.33367665818E+01  0.00000000000E+00 0. -1.
          2    1    1    2  502    0 -0.15246320686E+02  0.13124669194E+02  0.67417642169E+02  0.70355139909E+02  0.00000000000E+00 0. -1.
         -2    1    1    2    0  502  0.15246320686E+02 -0.13124669194E+02  0.52294642697E+02  0.56030678121E+02  0.00000000000E+00 0. -1.
</event>
<event>
 4    1  0.6145708E+003  0.3685265E+02  0.7546771E-02  0.1367986E+00
          2   -1    0    0  501    0  0.00000000000E+00  0.00000000000E+00  0.32094212133E+02  0.32094212133E+02  0.00000000000E+00 0. -1.
         -2   -1    0    0    0  501 -0.00000000000E+00 -0.00000000000E+00 -0.25900738103E+03  0.25900738103E+03  0.00000000000E+00 0. -1.
          2    1    1    2  502    0 -0.18302961369E+02 -0.31986240546E+02  0.19674274033E+02  0.41775531569E+02  0.00000000000E+00 0. -1.
         -2    1    1    2    0  502  0.18302961369E+02  0.31986240546E+02 -0.24658744293E+03  0.24932606159E+03  0.00000000000E+00 0. -1.
</event>
<event>
 4    1  0.6145708E+003  0.2015169E+02  0.7546771E-02  0.1531729E+00
          2   -1    0    0  501    0  0.00000000000E+00  0.00000000000E+00  0.88285060965E+03  0.88285060965E+03  0.00000000000E+00 0. -1.
         -2   -1    0    0    0  501 -0.00000000000E+00 -0.00000000000E+00 -0.48742192624E+00  0.48742192624E+00  0.00000000000E+00 0.  1.
          2    1    1    2  502    0  0.17206184981E+00  0.20150956776E+02  0.54598568119E+03  0.54635744227E+03  0.00000000000E+00 0. -1.
         -2    1    1    2    0  502 -0.17206184981E+00 -0.20150956776E+02  0.33637750653E+03  0.33698058930E+03  0.00000000000E+00 0.  1.
</event>
<event>
 4    1  0.6145708E+003  0.4842585E+02  0.7546771E-02  0.1305146E+00
          2   -1    0    0  501    0  0.00000000000E+00  0.00000000000E+00  0.31373965838E+04  0.31373965838E+04  0.00000000000E+00 0.  1.
         -2   -1    0    0    0  501 -0.00000000000E+00 -0.00000000000E+00 -0.81962517296E+00  0.81962517296E+00  0.00000000000E+00 0.  1.
          2    1    1    2  502    0  0.27367637245E+02 -0.39950917086E+02  0.20338998068E+04  0.20344762194E+04  0.00000000000E+00 0.  1.
         -2    1    1    2    0  502 -0.27367637245E+02  0.39950917086E+02  0.11026771518E+04  0.11037399895E+04  0.00000000000E+00 0.  1.
</event>
<event>
 4    1  0.6145708E+003  0.6344004E+02  0.7546771E-02  0.1248572E+00
          2   -1    0    0  501    0  0.00000000000E+00  0.00000000000E+00  0.26289867893E+02  0.26289867893E+02  0.00000000000E+00 0. -1.
         -2   -1    0    0    0  501 -0.00000000000E+00 -0.00000000000E+00 -0.23641287407E+03  0.23641287407E+03  0.00000000000E+00 0.  1.
          2    1    1    2  502    0  0.46117174214E+02  0.43564265339E+02 -0.27080504394E+02  0.68978204458E+02  0.00000000000E+00 0. -1.
         -2    1    1    2    0  502 -0.46117174214E+02 -0.43564265339E+02 -0.18304250178E+03  0.19372453750E+03  0.00000000000E+00 0.  1.
</event>
<event>
 4    1  0.6145708E+003  0.6674540E+02  0.7546771E-02  0.1238489E+00
          2   -1    0    0  501    0  0.00000000000E+00  0.00000000000E+00  0.83387209856E+03  0.83387209856E+03  0.00000000000E+00 0.  1.
         -2   -1    0    0    0  501 -0.00000000000E+00 -0.00000000000E+00 -0.80839496912E+01  0.80839496912E+01  0.00000000000E+00 0.  1.
          2    1    1    2  502    0  0.57265588358E+02  0.34287033410E+02  0.65804810566E+03  0.66142441566E+03  0.00000000000E+00 0.  1.
         -2    1    1    2    0  502 -0.57265588358E+02 -0.34287033410E+02  0.16774004321E+03  0.18053163259E+03  0.00000000000E+00 0.  1.
</event>
<event>
 4    1  0.6145708E+003  0.2253347E+02  0.7546771E-02  0.1498441E+00
          2   -1    0    0  501    0  0.00000000000E+00  0.00000000000E+00  0.57258393817E+02  0.57258393817E+02  0.00000000000E+00 0. -1.
         -2   -1    0    0    0  501 -0.00000000000E+00 -0.00000000000E+00 -0.13475714867E+02  0.13475714867E+02  0.00000000000E+00 0.  1.
          2    1    1    2  502    0 -0.14576499502E+02 -0.17183805021E+02  0.42572455227E+02  0.48168157913E+02  0.00000000000E+00 0. -1.
         -2    1    1    2    0  502  0.14576499502E+02  0.17183805021E+02  0.12102237239E+01  0.22565950771E+02  0.00000000000E+00 0.  1.
</event>
<event>
 4    1  0.6145708E+003  0.2813113E+02  0.7546771E-02  0.1436565E+00
          2   -1    0    0  501    0  0.00000000000E+00  0.00000000000E+00  0.16098289471E+03  0.16098289471E+03  0.00000000000E+00 0. -1.
         -2   -1    0    0    0  501 -0.00000000000E+00 -0.00000000000E+00 -0.71722422916E+02  0.71722422916E+02  0.00000000000E+00 0. -1.
          2    1    1    2  502    0 -0.83848161851E+01  0.26852475770E+02  0.15692475955E+03  0.15942628628E+03  0.00000000000E+00 0. -1.
         -2    1    1    2    0  502  0.83848161851E+01 -0.26852475770E+02 -0.67664287756E+02  0.73279031346E+02  0.00000000000E+00 0. -1.
</event>
<event>
 4    1  0.6145708E+003  0.2052819E+02  0.7546771E-02  0.1526109E+00
          2   -1    0    0  501    0  0.00000000000E+00  0.00000000000E+00  0.62250845282E+03  0.62250845282E+03  0.00000000000E+00 0. -1.
         -2   -1    0    0    0  501 -0.00000000000E+00 -0.00000000000E+00 -0.12562693174E+01  0.12562693174E+01  0.00000000000E+00 0. -1.
          2    1    1    2  502    0 -0.40683752173E+01 -0.20121006022E+02  0.52241770836E+03  0.52282087618E+03  0.00000000000E+00 0. -1.
         -2    1    1    2    0  502  0.40683752173E+01  0.20121006022E+02  0.98834475146E+02  0.10094384596E+03  0.00000000000E+00 0. -1.
</event>
<event>
 4    1  0.6145708E+003  0.2680690E+02  0.7546771E-02  0.1449558E+00
          2   -1    0    0  501    0  0.00000000000E+00  0.00000000000E+00  0.61663258937E+02  0.61663258937E+02  0.00000000000E+00 0.  1.
         -2   -1    0    0    0  501 -0.00000000000E+00 -0.00000000000E+00 -0.11747065967E+02  0.11747065967E+02  0.00000000000E+00 0.  1.
          2    1    1    2  502    0  0.21497970982E+02  0.16013943865E+02  0.21686915675E+02  0.34480885516E+02  0.00000000000E+00 0.  1.
         -2    1    1    2    0  502 -0.21497970982E+02 -0.16013943865E+02  0.28229277295E+02  0.38929439388E+02  0.00000000000E+00 0.  1.
</event>
<event>
 4    1  0.6145708E+003  0.2633153E+02  0.7546771E-02  0.1454441E+00
          2   -1    0    0  501    0  0.00000000000E+00  0.00000000000E+00  0.20239563870E+03  0.20239563870E+03  0.00000000000E+00 0.  1.
         -2   -1    0    0    0  501 -0.00000000000E+00 -0.00000000000E+00 -0.35982050964E+01  0.35982050964E+01  0.00000000000E+00 0.  1.
          2    1    1    2  502    0  0.18832333038E+02  0.18403604136E+02  0.12194970753E+03  0.12476009210E+03  0.00000000000E+00 0.  1.
         -2    1    1    2    0  502 -0.18832333038E+02 -0.18403604136E+02  0.76847726072E+02  0.81233751700E+02  0.00000000000E+00 0.  1.
</event>
<event>
 4    1  0.6145708E+003  0.2138298E+02  0.7546771E-02  0.1513867E+00
          2   -1    0    0  501    0  0.00000000000E+00  0.00000000000E+00  0.10876546319E+04  0.10876546319E+04  0.00000000000E+00 0.  1.
         -2   -1    0    0    0  501 -0.00000000000E+00 -0.00000000000E+00 -0.51228757123E+00  0.51228757123E+00  0.00000000000E+00 0.  1.
          2    1    1    2  502    0  0.20993822579E+02 -0.40609477258E+01  0.77402099351E+03  0.77431629860E+03  0.00000000000E+00 0.  1.
         -2    1    1    2    0  502 -0.20993822579E+02  0.40609477258E+01  0.31312135086E+03  0.31385062091E+03  0.00000000000E+00 0.  1.
</event>
<event>
 4    1  0.6145708E+003  0.3339377E+02  0.7546771E-02  0.1392221E+00
          2   -1    0    0  501    0  0.00000000000E+00  0.00000000000E+00  0.64979927434E+03  0.64979927434E+03  0.00000000000E+00 0. -1.
         -2   -1    0    0    0  501 -0.00000000000E+00 -0.00000000000E+00 -0.16165432012E+02  0.16165432012E+02  0.00000000000E+00 0.  1.
          2    1    1    2  502    0 -0.33384841686E+02 -0.77232198719E+00  0.63162864665E+03  0.63251078363E+03  0.00000000000E+00 0. -1.
         -2    1    1    2    0  502  0.33384841686E+02  0.77232198719E+00  0.20051956722E+01  0.33453922720E+02  0.00000000000E+00 0.  1.
</event>
<event>
 4    1  0.6145708E+003  0.3787817E+02  0.7546771E-02  0.1361389E+00
          2   -1    0    0  501    0  0.00000000000E+00  0.00000000000E+00  0.14232414178E+04  0.14232414178E+04  0.00000000000E+00 0. -1.
         -2   -1    0    0    0  501 -0.00000000000E+00 -0.00000000000E+00 -0.22028321579E+01  0.22028321579E+01  0.00000000000E+00 0. -1.
          2    1    1    2  502    0 -0.29343859207E+02 -0.23951908314E+02  0.12354071932E+04  0.12359877382E+04  0.00000000000E+00 0. -1.
         -2    1    1    2    0  502  0.29343859207E+02  0.23951908314E+02  0.18563139241E+03  0.18945651172E+03  0.00000000000E+00 0. -1.
</event>
<event>
 4    1  0.6145708E+003  0.2311850E+02  0.7546771E-02  0.1491015E+00
          2   -1    0    0  501    0  0.00000000000E+00  0.00000000000E+00  0.14245865860E+03  0.14245865860E+03  0.00000000000E+00 0.  1.
         -2   -1    0    0    0  501 -0.00000000000E+00 -0.00000000000E+00 -0.65805373981E+01  0.65805373981E+01  0.00000000000E+00 0.  1.
          2    1    1    2  502    0  0.21346059848E+02  0.88775437892E+01  0.11679779909E+03  0.11906381032E+03  0.00000000000E+00 0.  1.
         -2    1    1    2    0  502 -0.21346059848E+02 -0.88775437892E+01  0.19080322107E+02  0.29975385677E+02  0.00000000000E+00 0.  1.
</event>
<event>
 4    1  0.6145708E+003  0.2175046E+02  0.7546771E-02  0.1508814E+00
          2   -1    0    0  501    0  0.00000000000E+00  0.00000000000E+00  0.33287426783E+03  0.33287426783E+03  0.00000000000E+00 0.  1.
         -2   -1    0    0    0  501 -0.00000000000E+00 -0.00000000000E+00 -0.13487708125E+03  0.13487708125E+03  0.00000000000E+00 0.  1.
          2    1    1    2  502    0  0.35560527807E+01 -0.21457798755E+02  0.33163882607E+03  0.33235131051E+03  0.00000000000E+00 0.  1.
         -2    1    1    2    0  502 -0.35560527807E+01  0.21457798755E+02 -0.13364163949E+03  0.13540003857E+03  0.00000000000E+00 0.  1.
</event>
<event>
 4    1  0.6145708E+003  0.2273452E+02  0.7546771E-02  0.1495859E+00
          2   -1    0    0  501    0  0.00000000000E+00  0.00000000000E+00  0.13738731860E+04  0.13738731860E+04  0.00000000000E+00 0.  1.
         -2   -1    0    0    0  501 -0.00000000000E+00 -0.00000000000E+00 -0.32978055798E+01  0.32978055798E+01  0.00000000000E+00 0. -1.
          2    1    1    2  502    0  0.18106286321E+02 -0.13748486481E+02  0.13334081614E+04  0.13336019583E+04  0.00000000000E+00 0.  1.
         -2    1    1    2    0  502 -0.18106286321E+02  0.13748486481E+02  0.37167219011E+02  0.43569033199E+02  0.00000000000E+00 0. -1.
</event>
<event>
 4    1  0.6145708E+003  0.4695794E+02  0.7546771E-02  0.1311929E+00
          2   -1    0    0  501    0  0.00000000000E+00  0.00000000000E+00  0.30845977761E+04  0.30845977761E+04  0.00000000000E+00 0.  1.
         -2   -1    0    0    0  501 -0.00000000000E+00 -0.00000000000E+00 -0.15455626685E+03  0.15455626685E+03  0.00000000000E+00 0.  1.
          2    1    1    2  502    0 -0.51090220098E+01 -0.46679186899E+02  0.30808479799E+04  0.30812058231E+04  0.00000000000E+00 0.  1.
         -2    1    1    2    0  502  0.51090220098E+01  0.46679186899E+02 -0.15080647064E+03  0.15794821994E+03  0.00000000000E+00 0.  1.
</event>
<event>
 4    1  0.6145708E+003  0.2159270E+02  0.7546771E-02  0.1510968E+00
          2   -1    0    0  501    0  0.00000000000E+00  0.00000000000E+00  0.11375319514E+02  0.11375319514E+02  0.00000000000E+00 0.  1.
         -2   -1    0    0    0  501 -0.00000000000E+00 -0.00000000000E+00 -0.12781633238E+03  0.12781633238E+03  0.00000000000E+00 0. -1.
          2    1    1    2  502    0 -0.81188472754E+01  0.20008222055E+02 -0.85877141911E+00  0.21609769069E+02  0.00000000000E+00 0.  1.
         -2    1    1    2    0  502  0.81188472754E+01 -0.20008222055E+02 -0.11558224144E+03  0.11758188282E+03  0.00000000000E+00 0. -1.
</event>
<event>
 4    1  0.6145708E+003  0.2264282E+02  0.7546771E-02  0.1497033E+00
          2   -1    0    0  501    0  0.00000000000E+00  0.00000000000E+00  0.32959807057E+03  0.32959807057E+03  0.00000000000E+00 0. -1.
         -2   -1    0    0    0  501 -0.00000000000E+00 -0.00000000000E+00 -0.59701225198E+01  0.59701225198E+01  0.00000000000E+00 0. -1.
          2    1    1    2  502    0  0.43377187693E+01  0.22223448986E+02  0.30609353473E+03  0.30692987716E+03  0.00000000000E+00 0. -1.
         -2    1    1    2    0  502 -0.43377187693E+01 -0.22223448986E+02  0.17534413323E+02  0.28638315934E+02  0.00000000000E+00 0. -1.
</event>
<event>
 4    1  0.6145708E+003  0.2394313E+02  0.7546771E-02  0.1480983E+00
          2   -1    0    0  501    0  0.00000000000E+00  0.00000000000E+00  0.78023581506E+01  0.78023581506E+01  0.00000000000E+00 0. -1.
         -2   -1    0    0    0  501 -0.00000000000E+00 -0.00000000000E+00 -0.81605065659E+02  0.81605065659E+02  0.00000000000E+00 0. -1.
          2    1    1    2  502    0  0.20412049509E+02 -0.12514852816E+02 -0.22790638513E+02  0.33055809020E+02  0.00000000000E+00 0. -1.
         -2    1    1    2    0  502 -0.20412049509E+02  0.12514852816E+02 -0.51012068996E+02  0.56351614790E+02  0.00000000000E+00 0. -1.
</event>
<event>
 4    1  0.6145708E+003  0.2062057E+02  0.7546771E-02  0.1524752E+00
          2   -1    0    0  501    0  0.00000000000E+00  0.00000000000E+00  0.15807382210E+03  0.15807382210E+03  0.00000000000E+00 0. -1.
         -2   -1    0    0    0  501 -0.00000000000E+00 -0.00000000000E+00 -0.55215767900E+02  0.55215767900E+02  0.00000000000E+00 0.  1.
          2    1    1    2  502    0  0.96453283403E+01 -0.18225686171E+02  0.15544369519E+03  0.15680545389E+03  0.00000000000E+00 0. -1.
         -2    1    1    2    0  502 -0.96453283403E+01  0.18225686171E+02 -0.52585640983E+02  0.56484136117E+02  0.00000000000E+00 0.  1.
</event>
<event>
 4    1  0.6145708E+003  0.2204589E+02  0.7546771E-02  0.1504839E+00
          2   -1    0    0  501    0  0.00000000000E+00  0.00000000000E+00  0.15946654540E+03  0.15946654540E+03  0.00000000000E+00 0.  1.
         -2   -1    0    0    0  501 -0.00000000000E+00 -0.00000000000E+00 -0.30763404407E+02  0.30763404407E+02  0.00000000000E+00 0.  1.
          2    1    1    2  502    0  0.26341324557E+01  0.21887960146E+02  0.15463206119E+03  0.15619569712E+03  0.00000000000E+00 0.  1.
         -2    1    1    2    0  502 -0.26341324557E+01 -0.21887960146E+02 -0.25928920196E+02  0.34034252682E+02  0.00000000000E+00 0.  1.
</event>
<event>
 4    1  0.6145708E+003  0.2357216E+02  0.7546771E-02  0.1485436E+00
          2   -1    0    0  501    0  0.00000000000E+00  0.00000000000E+00  0.64418122448E+02  0.64418122448E+02  0.00000000000E+00 0.  1.
         -2   -1    0    0    0  501 -0.00000000000E+00 -0.00000000000E+00 -0.86677150920E+01  0.86677150920E+01  0.00000000000E+00 0.  1.
          2    1    1    2  502    0 -0.18577036777E+02 -0.14509999654E+02  0.25328634734E+02  0.34600377496E+02  0.00000000000E+00 0.  1.
         -2    1    1    2    0  502  0.18577036777E+02  0.14509999654E+02  0.30421772622E+02  0.38485460044E+02  0.00000000000E+00 0.  1.
</event>
<event>
 4    1  0.6145708E+003  0.3385975E+02  0.7546771E-02  0.1388762E+00
          2   -1    0    0  501    0  0.00000000000E+00  0.00000000000E+00  0.91658058754E+02  0.91658058754E+02  0.00000000000E+00 0. -1.
         -2   -1    0    0    0  501 -0.00000000000E+00 -0.00000000000E+00 -0.16945762442E+02  0.16945762442E+02  0.00000000000E+00 0.  1.
          2    1    1    2  502    0  0.18587986740E+02 -0.28301406923E+02  0.65143926548E+02  0.73418077140E+02  0.00000000000E+00 0. -1.
         -2    1    1    2    0  502 -0.18587986740E+02  0.28301406923E+02  0.95683697646E+01  0.35185744056E+02  0.00000000000E+00 0.  1.
</event>
<event>
 4    1  0.6145708E+003  0.2257485E+02  0.7546771E-02  0.1497907E+00
          2   -1    0    0  501    0  0.00000000000E+00  0.00000000000E+00  0.16822850567E+04  0.16822850567E+04  0.00000000000E+00 0.  1.
         -2   -1    0    0    0  501 -0.00000000000E+00 -0.00000000000E+00 -0.23533381804E+01  0.23533381804E+01  0.00000000000E+00 0. -1.
          2    1    1    2  502    0 -0.12701517507E+02 -0.18662665759E+02  0.16262040277E+04  0.16263607113E+04  0.00000000000E+00 0.  1.
         -2    1    1    2    0  502  0.12701517507E+02  0.18662665759E+02  0.53727690892E+02  0.58277683626E+02  0.00000000000E+00 0. -1.
</event>
<event>
 4    1  0.6145708E+003  0.2124793E+02  0.7546771E-02  0.1515754E+00
          2   -1    0    0  501    0  0.00000000000E+00  0.00000000000E+00  0.50659697822E+03  0.50659697822E+03  0.00000000000E+00 0.  1.
         -2   -1    0    0    0  501 -0.00000000000E+00 -0.00000000000E+00 -0.98698646217E+02  0.98698646217E+02  0.00000000000E+00 0.  1.
          2    1    1    2  502    0 -0.10732699228E+02  0.18338041510E+02  0.50522751376E+03  0.50567411962E+03  0.00000000000E+00 0.  1.
         -2    1    1    2    0  502  0.10732699228E+02 -0.18338041510E+02 -0.97329181757E+02  0.99621504810E+02  0.00000000000E+00 0.  1.
</event>
<event>
 4    1  0.6145708E+003  0.2735869E+02  0.7546771E-02  0.1444038E+00
          2   -1    0    0  501    0  0.00000000000E+00  0.00000000000E+00  0.10170396539E+04  0.10170396539E+04  0.00000000000E+00 0. -1.
         -2   -1    0    0    0  501 -0.00000000000E+00 -0.00000000000E+00 -0.12740501009E+02  0.12740501009E+02  0.00000000000E+00 0.  1.
          2    1    1    2  502    0  0.18774333799E+02 -0.19900308157E+02  0.10019470952E+04  0.10023205473E+04  0.00000000000E+00 0. -1.
         -2    1    1    2    0  502 -0.18774333799E+02  0.19900308157E+02  0.23520576375E+01  0.27459607598E+02  0.00000000000E+00 0.  1.
</event>
<event>
 4    1  0.6145708E+003  0.2011017E+02  0.7546771E-02  0.1532358E+00
          2   -1    0    0  501    0  0.00000000000E+00  0.00000000000E+00  0.16677596689E+02  0.16677596689E+02  0.00000000000E+00 0.  1.
         -2   -1    0    0    0  501 -0.00000000000E+00 -0.00000000000E+00 -0.61815321359E+02  0.61815321359E+02  0.00000000000E+00 0.  1.
          2    1    1    2  502    0 -0.79364503781E+01  0.18477868526E+02  0.80261351151E+01  0.21652660686E+02  0.00000000000E+00 0.  1.
         -2    1    1    2    0  502  0.79364503781E+01 -0.18477868526E+02 -0.53163859784E+02  0.56840257363E+02  0.00000000000E+00 0.  1.
</event>
<event>
 4    1  0.6145708E+003  0.2080705E+02  0.7546771E-02  0.1522038E+00
          2   -1    0    0  501    0  0.00000000000E+00  0.00000000000E+00  0.16561610478E+03  0.16561610478E+03  0.00000000000E+00 0. -1.
         -2   -1    0    0    0  501 -0.00000000000E+00 -0.00000000000E+00 -0.64588897628E+02  0.64588897628E+02  0.00000000000E+00 0. -1.
          2    1    1    2  502    0  0.89537486316E+01  0.18782002482E+02  0.16326280240E+03  0.16458334022E+03  0.00000000000E+00 0. -1.
         -2    1    1    2    0  502 -0.89537486316E+01 -0.18782002482E+02 -0.62235595248E+02  0.65621662184E+02  0.00000000000E+00 0. -1.
</event>
<event>
 4    1  0.6145708E+003  0.2696209E+02  0.7546771E-02  0.1447989E+00
          2   -1    0    0  501    0  0.00000000000E+00  0.00000000000E+00  0.13806762776E+02  0.13806762776E+02  0.00000000000E+00 0. -1.
         -2   -1    0    0    0  501 -0.00000000000E+00 -0.00000000000E+00 -0.10036640100E+03  0.10036640100E+03  0.00000000000E+00 0. -1.
          2    1    1    2  502    0 -0.26959635547E+02  0.36413716784E+00 -0.39189829914E+01  0.27245421127E+02  0.00000000000E+00 0. -1.
         -2    1    1    2    0  502  0.26959635547E+02 -0.36413716784E+00 -0.82640655234E+02  0.86927742650E+02  0.00000000000E+00 0. -1.
</event>
<event>
 4    1  0.6145708E+003  0.2422798E+02  0.7546771E-02  0.1477628E+00
          2   -1    0    0  501    0  0.00000000000E+00  0.00000000000E+00  0.33777966456E+02  0.33777966456E+02  0.00000000000E+00 0. -1.
         -2   -1    0    0    0  501 -0.00000000000E+00 -0.00000000000E+00 -0.18891577266E+02  0.18891577266E+02  0.00000000000E+00 0. -1.
          2    1    1    2  502    0 -0.12838753248E+02 -0.20546570860E+02  0.14897217223E+02  0.28441558327E+02  0.00000000000E+00 0. -1.
         -2    1    1    2    0  502  0.12838753248E+02  0.20546570860E+02 -0.10828032378E-01  0.24227985395E+02  0.00000000000E+00 0. -1.
</event>
<event>
 4    1  0.6145708E+003  0.2645475E+02  0.7546771E-02  0.1453163E+00
          2   -1    0    0  501    0  0.00000000000E+00  0.00000000000E+00  0.22388883933E+03  0.22388883933E+03  0.00000000000E+00 0. -1.
         -2   -1    0    0    0  501 -0.00000000000E+00 -0.00000000000E+00 -0.45889224493E+02  0.45889224493E+02  0.00000000000E+00 0.  1.
          2    1    1    2  502    0 -0.39912561242E+01  0.26151935681E+02  0.21921360794E+03  0.22080412082E+03  0.00000000000E+00 0. -1.
         -2    1    1    2    0  502  0.39912561242E+01 -0.26151935681E+02 -0.41213993105E+02  0.48973943001E+02  0.00000000000E+00 0.  1.
</event>
<event>
 4    1  0.6145708E+003  0.4324660E+02  0.7546771E-02  0.1330444E+00
          2   -1    0    0  501    0  0.00000000000E+00  0.00000000000E+00  0.12312955933E+03  0.12312955933E+03  0.00000000000E+00 0. -1.
         -2   -1    0    0    0  501 -0.00000000000E+00 -0.00000000000E+00 -0.52910659165E+02  0.52910659165E+02  0.00000000000E+00 0.  1.
          2    1    1    2  502    0  0.33625497813E+02  0.27195475740E+02  0.10942902667E+03  0.11766469259E+03  0.00000000000E+00 0. -1.
         -2    1    1    2    0  502 -0.33625497813E+02 -0.27195475740E+02 -0.39210126507E+02  0.58375525904E+02  0.00000000000E+00 0.  1.
</event>
<event>
 4    1  0.6145708E+003  0.3177559E+02  0.7546771E-02  0.1404769E+00
          2   -1    0    0  501    0  0.00000000000E+00  0.00000000000E+00  0.20339771816E+04  0.20339771816E+04  0.00000000000E+00 0.  1.
         -2   -1    0    0    0  501 -0.00000000000E+00 -0.00000000000E+00 -0.55774015567E+00  0.55774015567E+00  0.00000000000E+00 0. -1.
          2    1    1    2  502    0  0.17069874158E+02 -0.26801255286E+02  0.13540389769E+04  0.13544117685E+04  0.00000000000E+00 0.  1.
         -2    1    1    2    0  502 -0.17069874158E+02  0.26801255286E+02  0.67938046460E+03  0.68012315324E+03  0.00000000000E+00 0. -1.
</event>
<event>
 4    1  0.6145708E+003  0.2626567E+02  0.7546771E-02  0.1455127E+00
          2   -1    0    0  501    0  0.00000000000E+00  0.00000000000E+00  0.13833580384E+02  0.13833580384E+02  0.00000000000E+00 0.  1.
         -2   -1    0    0    0  501 -0.00000000000E+00 -0.00000000000E+00 -0.70974486047E+03  0.70974486047E+03  0.00000000000E+00 0. -1.
          2    1    1    2  502    0 -0.35760336026E+01  0.26021092690E+02  0.89150750282E+00  0.26280792734E+02  0.00000000000E+00 0.  1.
         -2    1    1    2    0  502  0.35760336026E+01 -0.26021092690E+02 -0.69680278759E+03  0.69729764812E+03  0.00000000000E+00 0. -1.
</event>
<event>
 4    1  0.6145708E+003  0.2097172E+02  0.7546771E-02  0.1519669E+00
          2   -1    0    0  501    0  0.00000000000E+00  0.00000000000E+00  0.90377051923E+02  0.90377051923E+02  0.00000000000E+00 0.  1.
         -2   -1    0    0    0  501 -0.00000000000E+00 -0.00000000000E+00 -0.39361308271E+02  0.39361308271E+02  0.00000000000E+00 0.  1.
          2    1    1    2  502    0  0.16656923872E+02  0.12742049345E+02  0.86234756320E+02  0.88748217627E+02  0.00000000000E+00 0.  1.
         -2    1    1    2    0  502 -0.16656923872E+02 -0.12742049345E+02 -0.35219012668E+02  0.40990142567E+02  0.00000000000E+00 0.  1.
</event>
<event>
 4    1  0.6145708E+003  0.3566833E+02  0.7546771E-02  0.1375925E+00
          2   -1    0    0  501    0  0.00000000000E+00  0.00000000000E+00  0.52161848229E+03  0.52161848229E+03  0.00000000000E+00 0. -1.
         -2   -1    0    0    0  501 -0.00000000000E+00 -0.00000000000E+00 -0.15218269505E+02  0.15218269505E+02  0.00000000000E+00 0. -1.
          2    1    1    2  502    0 -0.61638241991E+01 -0.35131709194E+02  0.49917033819E+03  0.50044305994E+03  0.00000000000E+00 0. -1.
         -2    1    1    2    0  502  0.61638241991E+01  0.35131709194E+02  0.72298745954E+01  0.36393691848E+02  0.00000000000E+00 0. -1.
</event>
<event>
 4    1  0.6145708E+003  0.2669597E+02  0.7546771E-02  0.1450686E+00
          2   -1    0    0  501    0  0.00000000000E+00  0.00000000000E+00  0.23988075464E+04  0.23988075464E+04  0.00000000000E+00 0.  1.
         -2   -1    0    0    0  501 -0.00000000000E+00 -0.00000000000E+00 -0.37039698188E+00  0.37039698188E+00  0.00000000000E+00 0.  1.
          2    1    1    2  502    0  0.25032212211E+02  0.92770229839E+01  0.17328670526E+04  0.17330726750E+04  0.00000000000E+00 0.  1.
         -2    1    1    2    0  502 -0.25032212211E+02 -0.92770229839E+01  0.66557009687E+03  0.66610526845E+03  0.00000000000E+00 0.  1.
</event>
<event>
 4    1  0.6145708E+003  0.3757375E+02  0.7546771E-02  0.1363322E+00
          2   -1    0    0  501    0  0.00000000000E+00  0.00000000000E+00  0.38242562348E+02  0.38242562348E+02  0.00000000000E+00 0.  1.
         -2   -1    0    0    0  501 -0.00000000000E+00 -0.00000000000E+00 -0.66726613546E+02  0.66726613546E+02  0.00000000000E+00 0.  1.
          2    1    1    2  502    0 -0.14416493625E+02  0.34698008027E+02  0.20838251716E+02  0.42965332351E+02  0.00000000000E+00 0.  1.
         -2    1    1    2    0  502  0.14416493625E+02 -0.34698008027E+02 -0.49322302913E+02  0.62003843543E+02  0.00000000000E+00 0.  1.
</event>
<event>
 4    1  0.6145708E+003  0.2336244E+02  0.7546771E-02  0.1487996E+00
          2   -1    0    0  501    0  0.00000000000E+00  0.00000000000E+00  0.20428648322E+04  0.20428648322E+04  0.00000000000E+00 0. -1.
         -2   -1    0    0    0  501 -0.00000000000E+00 -0.00000000000E+00 -0.29695976064E+00  0.29695976064E+00  0.00000000000E+00 0.  1.
          2    1    1    2  502    0  0.22558702781E+02  0.60752376555E+01  0.13448156323E+04  0.13450185457E+04  0.00000000000E+00 0. -1.
         -2    1    1    2    0  502 -0.22558702781E+02 -0.60752376555E+01  0.69775224020E+03  0.69814324625E+03  0.00000000000E+00 0.  1.
</event>
<event>
 4    1  0.6145708E+003  0.2122913E+02  0.7546771E-02  0.1516018E+00
          2   -1    0    0  501    0  0.00000000000E+00  0.00000000000E+00  0.90494553920E+02  0.90494553920E+02  0.00000000000E+00 0. -1.
         -2   -1    0    0    0  501 -0.00000000000E+00 -0.00000000000E+00 -0.80527560646E+01  0.80527560646E+01  0.00000000000E+00 0.  1.
          2    1    1    2  502    0  0.17891693496E+02  0.11426429862E+02  0.71657510733E+02  0.74736034414E+02  0.00000000000E+00 0. -1.
         -2    1    1    2    0  502 -0.17891693496E+02 -0.11426429862E+02  0.10784287123E+02  0.23811275570E+02  0.00000000000E+00 0.  1.
</event>
<event>
 4    1  0.6145708E+003  0.4747790E+02  0.7546771E-02  0.1309494E+00
          2   -1    0    0  501    0  0.00000000000E+00  0.00000000000E+00  0.38461396659E+03  0.38461396659E+03  0.00000000000E+00 0.  1.
         -2   -1    0    0    0  501 -0.00000000000E+00 -0.00000000000E+00 -0.76230587740E+01  0.76230587740E+01  0.00000000000E+00 0.  1.
          2    1    1    2  502    0 -0.34958555557E+02  0.32125538299E+02  0.28279011530E+03  0.28674797319E+03  0.00000000000E+00 0.  1.
         -2    1    1    2    0  502  0.34958555557E+02 -0.32125538299E+02  0.94200792511E+02  0.10548905217E+03  0.00000000000E+00 0.  1.
</event>
<event>
 4    1  0.6145708E+003  0.2270412E+02  0.7546771E-02  0.1496247E+00
          2   -1    0    0  501    0  0.00000000000E+00  0.00000000000E+00  0.53557057170E+02  0.53557057170E+02  0.00000000000E+00 0.  1.
         -2   -1    0    0    0  501 -0.00000000000E+00 -0.00000000000E+00 -0.25513846340E+02  0.25513846340E+02  0.00000000000E+00 0.  1.
          2    1    1    2  502    0 -0.20191467035E+02 -0.10381796254E+02  0.45221087194E+02  0.50600630050E+02  0.00000000000E+00 0.  1.
         -2    1    1    2    0  502  0.20191467035E+02  0.10381796254E+02 -0.17177876365E+02  0.28470273460E+02  0.00000000000E+00 0.  1.
</event>
<event>
 4    1  0.6145708E+003  0.2548555E+02  0.7546771E-02  0.1463444E+00
          2   -1    0    0  501    0  0.00000000000E+00  0.00000000000E+00  0.17908373654E+04  0.17908373654E+04  0.00000000000E+00 0. -1.
         -2   -1    0    0    0  501 -0.00000000000E+00 -0.00000000000E+00 -0.22946456131E+01  0.22946456131E+01  0.00000000000E+00 0.  1.
          2    1    1    2  502    0  0.21312866956E+02 -0.13974090241E+02  0.17169370065E+04  0.17171261450E+04  0.00000000000E+00 0. -1.
         -2    1    1    2    0  502 -0.21312866956E+02  0.13974090241E+02  0.71605713324E+02  0.76005866067E+02  0.00000000000E+00 0.  1.
</event>
<event>
 4    1  0.6145708E+003  0.1281283E+03  0.7546771E-02  0.1122412E+00
          2   -1    0    0  501    0  0.00000000000E+00  0.00000000000E+00  0.55298643909E+03  0.55298643909E+03  0.00000000000E+00 0. -1.
         -2   -1    0    0    0  501 -0.00000000000E+00 -0.00000000000E+00 -0.20275826918E+03  0.20275826918E+03  0.00000000000E+00 0.  1.
          2    1    1    2  502    0  0.31617828729E+02  0.12416587817E+03  0.52422830633E+03  0.53965930878E+03  0.00000000000E+00 0. -1.
         -2    1    1    2    0  502 -0.31617828729E+02 -0.12416587817E+03 -0.17400013642E+03  0.21608539949E+03  0.00000000000E+00 0.  1.
</event>
<event>
 4    1  0.6145708E+003  0.2155139E+02  0.7546771E-02  0.1511536E+00
          2   -1    0    0  501    0  0.00000000000E+00  0.00000000000E+00  0.90528842963E+03  0.90528842963E+03  0.00000000000E+00 0. -1.
         -2   -1    0    0    0  501 -0.00000000000E+00 -0.00000000000E+00 -0.50130227738E+01  0.50130227738E+01  0.00000000000E+00 0.  1.
          2    1    1    2  502    0  0.82843548107E+01  0.19895527721E+02  0.88136884244E+03  0.88163229239E+03  0.00000000000E+00 0. -1.
         -2    1    1    2    0  502 -0.82843548107E+01 -0.19895527721E+02  0.18906564414E+02  0.28669160013E+02  0.00000000000E+00 0.  1.
</event>
<event>
 4    1  0.6145708E+003  0.2541264E+02  0.7546771E-02  0.1464240E+00
          2   -1    0    0  501    0  0.00000000000E+00  0.00000000000E+00  0.13481415871E+04  0.13481415871E+04  0.00000000000E+00 0. -1.
         -2   -1    0    0    0  501 -0.00000000000E+00 -0.00000000000E+00 -0.26265638317E+01  0.26265638317E+01  0.00000000000E+00 0.  1.
          2    1    1    2  502    0  0.19483954384E+02  0.16314961006E+02  0.12834557698E+04  0.12837073324E+04  0.00000000000E+00 0. -1.
         -2    1    1    2    0  502 -0.19483954384E+02 -0.16314961006E+02  0.62059253542E+02  0.67060818525E+02  0.00000000000E+00 0.  1.
</event>
<event>
 4    1  0.6145708E+003  0.2009839E+02  0.7546771E-02  0.1532537E+00
          2   -1    0    0  501    0  0.00000000000E+00  0.00000000000E+00  0.66831549927E+03  0.66831549927E+03  0.00000000000E+00 0.  1.
         -2   -1    0    0    0  501 -0.00000000000E+00 -0.00000000000E+00 -0.45880478943E+01  0.45880478943E+01  0.00000000000E+00 0.  1.
          2    1    1    2  502    0 -0.16805665572E+02 -0.11023371077E+02  0.64537133188E+03  0.64568421161E+03  0.00000000000E+00 0.  1.
         -2    1    1    2    0  502  0.16805665572E+02  0.11023371077E+02  0.18356119491E+02  0.27219335553E+02  0.00000000000E+00 0.  1.
</event>
<event>
 4    1  0.6145708E+003  0.2431800E+02  0.7546771E-02  0.1476580E+00
          2   -1    0    0  501    0  0.00000000000E+00  0.00000000000E+00  0.16454413778E+03  0.16454413778E+03  0.00000000000E+00 0.  1.
         -2   -1    0    0    0  501 -0.00000000000E+00 -0.00000000000E+00 -0.22095034838E+03  0.22095034838E+03  0.00000000000E+00 0.  1.
          2    1    1    2  502    0 -0.22730710450E+02 -0.86417438376E+01  0.16297010576E+03  0.16477445283E+03  0.00000000000E+00 0.  1.
         -2    1    1    2    0  502  0.22730710450E+02  0.86417438376E+01 -0.21937631636E+03  0.22072003333E+03  0.00000000000E+00 0.  1.
</event>
<event>
 4    1  0.6145708E+003  0.2442127E+02  0.7546771E-02  0.1475383E+00
          2   -1    0    0  501    0  0.00000000000E+00  0.00000000000E+00  0.14958185644E+04  0.14958185644E+04  0.00000000000E+00 0. -1.
         -2   -1    0    0    0  501 -0.00000000000E+00 -0.00000000000E+00 -0.24338068162E+02  0.24338068162E+02  0.00000000000E+00 0. -1.
          2    1    1    2  502    0  0.47148418925E+01 -0.23961812691E+02  0.14895669908E+04  0.14897671691E+04  0.00000000000E+00 0. -1.
         -2    1    1    2    0  502 -0.47148418925E+01  0.23961812691E+02 -0.18086494555E+02  0.30389463417E+02  0.00000000000E+00 0. -1.
</event>
<event>
 4    1  0.6145708E+003  0.2044942E+02  0.7546771E-02  0.1527273E+00
          2   -1    0    0  501    0  0.00000000000E+00  0.00000000000E+00  0.29723075224E+03  0.29723075224E+03  0.00000000000E+00 0.  1.
         -2   -1    0    0    0  501 -0.00000000000E+00 -0.00000000000E+00 -0.18066707585E+03  0.18066707585E+03  0.00000000000E+00 0. -1.
          2    1    1    2  502    0  0.14015900562E+02  0.14890718148E+02  0.29629854502E+03  0.29700337833E+03  0.00000000000E+00 0.  1.
         -2    1    1    2    0  502 -0.14015900562E+02 -0.14890718148E+02 -0.17973486863E+03  0.18089444977E+03  0.00000000000E+00 0. -1.
</event>
<event>
 4    1  0.6145708E+003  0.2723039E+02  0.7546771E-02  0.1445307E+00
          2   -1    0    0  501    0  0.00000000000E+00  0.00000000000E+00  0.21418995332E+02  0.21418995332E+02  0.00000000000E+00 0.  1.
         -2   -1    0    0    0  501 -0.00000000000E+00 -0.00000000000E+00 -0.44483037846E+03  0.44483037846E+03  0.00000000000E+00 0.  1.
          2    1    1    2  502    0  0.25414642714E+02  0.97770235458E+01  0.12163918980E+02  0.29823735155E+02  0.00000000000E+00 0.  1.
         -2    1    1    2    0  502 -0.25414642714E+02 -0.97770235458E+01 -0.43557530211E+03  0.43642563863E+03  0.00000000000E+00 0.  1.
</event>
<event>
 4    1  0.6145708E+003  0.4368641E+02  0.7546771E-02  0.1328140E+00
          2   -1    0    0  501    0  0.00000000000E+00  0.00000000000E+00  0.38544978549E+04  0.38544978549E+04  0.00000000000E+00 0. -1.
         -2   -1    0    0    0  501 -0.00000000000E+00 -0.00000000000E+00 -0.81376387398E+00  0.81376387398E+00  0.00000000000E+00 0. -1.
          2    1    1    2  502    0  0.37596068406E+02  0.22249405119E+02  0.72063400888E+03  0.72195697596E+03  0.00000000000E+00 0. -1.
         -2    1    1    2    0  502 -0.37596068406E+02 -0.22249405119E+02  0.31330500822E+04  0.31333546429E+04  0.00000000000E+00 0. -1.
</event>
<event>
 4    1  0.6145708E+003  0.2670372E+02  0.7546771E-02  0.1450607E+00
          2   -1    0    0  501    0  0.00000000000E+00  0.00000000000E+00  0.29124111760E+03  0.29124111760E+03  0.00000000000E+00 0.  1.
         -2   -1    0    0    0  501 -0.00000000000E+00 -0.00000000000E+00 -0.70470538688E+01  0.70470538688E+01  0.00000000000E+00 0.  1.
          2    1    1    2  502    0  0.21605299459E+02 -0.15693937209E+02  0.26257714085E+03  0.26393151295E+03  0.00000000000E+00 0.  1.
         -2    1    1    2    0  502 -0.21605299459E+02  0.15693937209E+02  0.21616922879E+02  0.34356658519E+02  0.00000000000E+00 0.  1.
</event>
<event>
 4    1  0.6145708E+003  0.2104008E+02  0.7546771E-02  0.1518693E+00
          2   -1    0    0  501    0  0.00000000000E+00  0.00000000000E+00  0.97062510797E+03  0.97062510797E+03  0.00000000000E+00 0. -1.
         -2   -1    0    0    0  501 -0.00000000000E+00 -0.00000000000E+00 -0.20803074872E+02  0.20803074872E+02  0.00000000000E+00 0.  1.
          2    1    1    2  502    0  0.21008988423E+02  0.11434536886E+01  0.96516102533E+03  0.96539033033E+03  0.00000000000E+00 0. -1.
         -2    1    1    2    0  502 -0.21008988423E+02 -0.11434536886E+01 -0.15338992229E+02  0.26037852513E+02  0.00000000000E+00 0.  1.
</event>
<event>
 4    1  0.6145708E+003  0.2941742E+02  0.7546771E-02  0.1424728E+00
          2   -1    0    0  501    0  0.00000000000E+00  0.00000000000E+00  0.35183175695E+04  0.35183175695E+04  0.00000000000E+00 0. -1.
         -2   -1    0    0    0  501 -0.00000000000E+00 -0.00000000000E+00 -0.25029820318E+00  0.25029820318E+00  0.00000000000E+00 0. -1.
          2    1    1    2  502    0  0.29169183142E+02  0.38134758511E+01  0.15275611816E+04  0.15278444120E+04  0.00000000000E+00 0. -1.
         -2    1    1    2    0  502 -0.29169183142E+02 -0.38134758511E+01  0.19905060898E+04  0.19907234558E+04  0.00000000000E+00 0. -1.
</event>
<event>
 4    1  0.6145708E+003  0.3114212E+02  0.7546771E-02  0.1409924E+00
          2   -1    0    0  501    0  0.00000000000E+00  0.00000000000E+00  0.19110132003E+03  0.19110132003E+03  0.00000000000E+00 0. -1.
         -2   -1    0    0    0  501 -0.00000000000E+00 -0.00000000000E+00 -0.74450908431E+01  0.74450908431E+01  0.00000000000E+00 0. -1.
          2    1    1    2  502    0  0.26668157615E+02  0.16082319050E+02  0.14784038489E+03  0.15108478090E+03  0.00000000000E+00 0. -1.
         -2    1    1    2    0  502 -0.26668157615E+02 -0.16082319050E+02  0.35815844297E+02  0.47461629969E+02  0.00000000000E+00 0. -1.
</event>
<event>
 4    1  0.6145708E+003  0.2612025E+02  0.7546771E-02  0.1456651E+00
          2   -1    0    0  501    0  0.00000000000E+00  0.00000000000E+00  0.83023550405E+02  0.83023550405E+02  0.00000000000E+00 0. -1.
         -2   -1    0    0    0  501 -0.00000000000E+00 -0.00000000000E+00 -0.69017341808E+03  0.69017341808E+03  0.00000000000E+00 0. -1.
          2    1    1    2  502    0 -0.20471767775E+02  0.16222637220E+02  0.80715083191E+02  0.84836265174E+02  0.00000000000E+00 0. -1.
         -2    1    1    2    0  502  0.20471767775E+02 -0.16222637220E+02 -0.68786495086E+03  0.68836070331E+03  0.00000000000E+00 0. -1.
</event>
<event>
 4    1  0.6145708E+003  0.2870897E+02  0.7546771E-02  0.1431157E+00
          2   -1    0    0  501    0  0.00000000000E+00  0.00000000000E+00  0.37185643993E+03  0.37185643993E+03  0.00000000000E+00 0.  1.
         -2   -1    0    0    0  501 -0.00000000000E+00 -0.00000000000E+00 -0.54926600108E+01  0.54926600108E+01  0.00000000000E+00 0. -1.
          2    1    1    2  502    0 -0.10668969549E+02  0.26652919850E+02  0.32889785800E+03  0.33014846061E+03  0.00000000000E+00 0.  1.
         -2    1    1    2    0  502  0.10668969549E+02 -0.26652919850E+02  0.37465921921E+02  0.47200639330E+02  0.00000000000E+00 0. -1.
</event>
<event>
 4    1  0.6145708E+003  0.2337699E+02  0.7546771E-02  0.1487818E+00
          2   -1    0    0  501    0  0.00000000000E+00  0.00000000000E+00  0.20992629600E+01  0.20992629600E+01  0.00000000000E+00 0. -1.
         -2   -1    0    0    0  501 -0.00000000000E+00 -0.00000000000E+00 -0.34604880669E+03  0.34604880669E+03  0.00000000000E+00 0. -1.
          2    1    1    2  502    0  0.10774421745E+02  0.20745977199E+02 -0.85333590918E+02  0.88477711729E+02  0.00000000000E+00 0. -1.
         -2    1    1    2    0  502 -0.10774421745E+02 -0.20745977199E+02 -0.25861595281E+03  0.25967035792E+03  0.00000000000E+00 0. -1.
</event>
<event>
 4    1  0.6145708E+003  0.2730163E+02  0.7546771E-02  0.1444601E+00
          2   -1    0    0  501    0  0.00000000000E+00  0.00000000000E+00  0.12615566384E+04  0.12615566384E+04  0.00000000000E+00 0.  1.
         -2   -1    0    0    0  501 -0.00000000000E+00 -0.00000000000E+00 -0.85686336906E+00  0.85686336906E+00  0.00000000000E+00 0.  1.
          2    1    1    2  502    0  0.25989771351E+02 -0.83612638020E+01  0.98205218763E+03  0.98243161501E+03  0.00000000000E+00 0.  1.
         -2    1    1    2    0  502 -0.25989771351E+02  0.83612638020E+01  0.27864758735E+03  0.27998188671E+03  0.00000000000E+00 0.  1.
</event>
<event>
 4    1  0.6145708E+003  0.3684385E+02  0.7546771E-02  0.1368044E+00
          2   -1    0    0  501    0  0.00000000000E+00  0.00000000000E+00  0.15969382283E+03  0.15969382283E+03  0.00000000000E+00 0. -1.
         -2   -1    0    0    0  501 -0.00000000000E+00 -0.00000000000E+00 -0.79950313827E+02  0.79950313827E+02  0.00000000000E+00 0. -1.
          2    1    1    2  502    0  0.18689409288E+02  0.31751775917E+02  0.15314502227E+03  0.15751465691E+03  0.00000000000E+00 0. -1.
         -2    1    1    2    0  502 -0.18689409288E+02 -0.31751775917E+02 -0.73401513271E+02  0.82129479750E+02  0.00000000000E+00 0. -1.
</event>
<event>
 4    1  0.6145708E+003  0.2867292E+02  0.7546771E-02  0.1431490E+00
          2   -1    0    0  501    0  0.00000000000E+00  0.00000000000E+00  0.19743875499E+04  0.19743875499E+04  0.00000000000E+00 0.  1.
         -2   -1    0    0    0  501 -0.00000000000E+00 -0.00000000000E+00 -0.50759967627E+00  0.50759967627E+00  0.00000000000E+00 0. -1.
          2    1    1    2  502    0 -0.12521056139E+02 -0.25794566798E+02  0.14054907608E+04  0.14057832035E+04  0.00000000000E+00 0.  1.
         -2    1    1    2    0  502  0.12521056139E+02  0.25794566798E+02  0.56838918936E+03  0.56911194603E+03  0.00000000000E+00 0. -1.
</event>
<event>
 4    1  0.6145708E+003  0.2405978E+02  0.7546771E-02  0.1479603E+00
          2   -1    0    0  501    0  0.00000000000E+00  0.00000000000E+00  0.45923656050E+03  0.45923656050E+03  0.00000000000E+00 0.  1.
         -2   -1    0    0    0  501 -0.00000000000E+00 -0.00000000000E+00 -0.71247122836E+01  0.71247122836E+01  0.00000000000E+00 0.  1.
          2    1    1    2  502    0  0.18935503722E+02  0.14843164411E+02  0.43760602872E+03  0.43826693830E+03  0.00000000000E+00 0.  1.
         -2    1    1    2    0  502 -0.18935503722E+02 -0.14843164411E+02  0.14505819491E+02  0.28094334483E+02  0.00000000000E+00 0.  1.
</event>
<event>
 4    1  0.6145708E+003  0.2379752E+02  0.7546771E-02  0.1482719E+00
          2   -1    0    0  501    0  0.00000000000E+00  0.00000000000E+00  0.28616823890E+03  0.28616823890E+03  0.00000000000E+00 0. -1.
         -2   -1    0    0    0  501 -0.00000000000E+00 -0.00000000000E+00 -0.25219672390E+01  0.25219672390E+01  0.00000000000E+00 0.  1.
          2    1    1    2  502    0  0.23576424155E+02 -0.32363520800E+01  0.20880024619E+03  0.21015200346E+03  0.00000000000E+00 0. -1.
         -2    1    1    2    0  502 -0.23576424155E+02  0.32363520800E+01  0.74846025476E+02  0.78538202680E+02  0.00000000000E+00 0.  1.
</event>
<event>
 4    1  0.6145708E+003  0.2577577E+02  0.7546771E-02  0.1460309E+00
          2   -1    0    0  501    0  0.00000000000E+00  0.00000000000E+00  0.17003675008E+04  0.17003675008E+04  0.00000000000E+00 0.  1.
         -2   -1    0    0    0  501 -0.00000000000E+00 -0.00000000000E+00 -0.10417069769E+01  0.10417069769E+01  0.00000000000E+00 0. -1.
          2    1    1    2  502    0 -0.52820468553E+01  0.25228759434E+02  0.15221557722E+04  0.15223739965E+04  0.00000000000E+00 0.  1.
         -2    1    1    2    0  502  0.52820468553E+01 -0.25228759434E+02  0.17717002160E+03  0.17903521127E+03  0.00000000000E+00 0. -1.
</event>
<event>
 4    1  0.6145708E+003  0.2020626E+02  0.7546771E-02  0.1530906E+00
          2   -1    0    0  501    0  0.00000000000E+00  0.00000000000E+00  0.10451711303E+03  0.10451711303E+03  0.00000000000E+00 0. -1.
         -2   -1    0    0    0  501 -0.00000000000E+00 -0.00000000000E+00 -0.30491596089E+02  0.30491596089E+02  0.00000000000E+00 0. -1.
          2    1    1    2  502    0 -0.16767439374E+02  0.11275902340E+02  0.10004475592E+03  0.10206491162E+03  0.00000000000E+00 0. -1.
         -2    1    1    2    0  502  0.16767439374E+02 -0.11275902340E+02 -0.26019238979E+02  0.32943797501E+02  0.00000000000E+00 0. -1.
</event>
<event>
 4    1  0.6145708E+003  0.2380684E+02  0.7546771E-02  0.1482608E+00
          2   -1    0    0  501    0  0.00000000000E+00  0.00000000000E+00  0.60363425772E+02  0.60363425772E+02  0.00000000000E+00 0. -1.
         -2   -1    0    0    0  501 -0.00000000000E+00 -0.00000000000E+00 -0.94184085199E+01  0.94184085199E+01  0.00000000000E+00 0. -1.
          2    1    1    2  502    0 -0.34718920980E+00 -0.23804291376E+02  0.23529787205E+02  0.33472611403E+02  0.00000000000E+00 0. -1.
         -2    1    1    2    0  502  0.34718920980E+00  0.23804291376E+02  0.27415230047E+02  0.36309222889E+02  0.00000000000E+00 0. -1.
</event>
<event>
 4    1  0.6145708E+003  0.2101111E+02  0.7546771E-02  0.1519106E+00
          2   -1    0    0  501    0  0.00000000000E+00  0.00000000000E+00  0.31869360424E+03  0.31869360424E+03  0.00000000000E+00 0. -1.
         -2   -1    0    0    0  501 -0.00000000000E+00 -0.00000000000E+00 -0.46120284952E+02  0.46120284952E+02  0.00000000000E+00 0.  1.
          2    1    1    2  502    0 -0.18971863529E+02 -0.90296717372E+01  0.31593339330E+03  0.31663129280E+03  0.00000000000E+00 0. -1.
         -2    1    1    2    0  502  0.18971863529E+02  0.90296717372E+01 -0.43360074009E+02  0.48182596397E+02  0.00000000000E+00 0.  1.
</event>
<event>
 4    1  0.6145708E+003  0.2055581E+02  0.7546771E-02  0.1525702E+00
          2   -1    0    0  501    0  0.00000000000E+00  0.00000000000E+00  0.96829025449E+03  0.96829025449E+03  0.00000000000E+00 0.  1.
         -2   -1    0    0    0  501 -0.00000000000E+00 -0.00000000000E+00 -0.79399504180E+01  0.79399504180E+01  0.00000000000E+00 0.  1.
          2    1    1    2  502    0 -0.15881322008E+02  0.13050864046E+02  0.95468733014E+03  0.95490860284E+03  0.00000000000E+00 0.  1.
         -2    1    1    2    0  502  0.15881322008E+02 -0.13050864046E+02  0.56629739305E+01  0.21321602070E+02  0.00000000000E+00 0.  1.
</event>
<event>
 4    1  0.6145708E+003  0.2805375E+02  0.7546771E-02  0.1437301E+00
          2   -1    0    0  501    0  0.00000000000E+00  0.00000000000E+00  0.10614168012E+04  0.10614168012E+04  0.00000000000E+00 0.  1.
         -2   -1    0    0    0  501 -0.00000000000E+00 -0.00000000000E+00 -0.67150929335E+01  0.67150929335E+01  0.00000000000E+00 0. -1.
          2    1    1    2  502    0 -0.60557861644E+01 -0.27392341792E+02  0.10310690417E+04  0.10314506201E+04  0.00000000000E+00 0.  1.
         -2    1    1    2    0  502  0.60557861644E+01  0.27392341792E+02  0.23632666513E+02  0.36681273989E+02  0.00000000000E+00 0. -1.
</event>
<event>
 4    1  0.6145708E+003  0.3831227E+02  0.7546771E-02  0.1358670E+00
          2   -1    0    0  501    0  0.00000000000E+00  0.00000000000E+00  0.11430237980E+04  0.11430237980E+04  0.00000000000E+00 0. -1.
         -2   -1    0    0    0  501 -0.00000000000E+00 -0.00000000000E+00 -0.31394023152E+01  0.31394023152E+01  0.00000000000E+00 0. -1.
          2    1    1    2  502    0 -0.29057674697E+02 -0.24969606199E+02  0.10104898215E+04  0.10112158568E+04  0.00000000000E+00 0. -1.
         -2    1    1    2    0  502  0.29057674697E+02  0.24969606199E+02  0.12939457415E+03  0.13494734348E+03  0.00000000000E+00 0. -1.
</event>
<event>
 4    1  0.6145708E+003  0.2219177E+02  0.7546771E-02  0.1502904E+00
          2   -1    0    0  501    0  0.00000000000E+00  0.00000000000E+00  0.35361013547E+02  0.35361013547E+02  0.00000000000E+00 0. -1.
         -2   -1    0    0    0  501 -0.00000000000E+00 -0.00000000000E+00 -0.18967365287E+02  0.18967365287E+02  0.00000000000E+00 0. -1.
          2    1    1    2  502    0 -0.16006524503E+02 -0.15370946149E+02  0.22199848477E+02  0.31389617465E+02  0.00000000000E+00 0. -1.
         -2    1    1    2    0  502  0.16006524503E+02  0.15370946149E+02 -0.58062002162E+01  0.22938761369E+02  0.00000000000E+00 0. -1.
</event>
<event>
 4    1  0.6145708E+003  0.2116953E+02  0.7546771E-02  0.1516858E+00
          2   -1    0    0  501    0  0.00000000000E+00  0.00000000000E+00  0.42838628371E+03  0.42838628371E+03  0.00000000000E+00 0. -1.
         -2   -1    0    0    0  501 -0.00000000000E+00 -0.00000000000E+00 -0.31091074379E+03  0.31091074379E+03  0.00000000000E+00 0.  1.
          2    1    1    2  502    0 -0.21106600572E+02 -0.16311009851E+01  0.42776387456E+03  0.42828738185E+03  0.00000000000E+00 0. -1.
         -2    1    1    2    0  502  0.21106600572E+02  0.16311009851E+01 -0.31028833464E+03  0.31100964565E+03  0.00000000000E+00 0.  1.
</event>
<event>
 4    1  0.6145708E+003  0.2098325E+02  0.7546771E-02  0.1519504E+00
          2   -1    0    0  501    0  0.00000000000E+00  0.00000000000E+00  0.46760830575E+02  0.46760830575E+02  0.00000000000E+00 0. -1.
         -2   -1    0    0    0  501 -0.00000000000E+00 -0.00000000000E+00 -0.10251387288E+02  0.10251387288E+02  0.00000000000E+00 0. -1.
          2    1    1    2  502    0 -0.48362814781E+01  0.20418309392E+02  0.26392526057E+02  0.33717390300E+02  0.00000000000E+00 0. -1.
         -2    1    1    2    0  502  0.48362814781E+01 -0.20418309392E+02  0.10116917229E+02  0.23294827563E+02  0.00000000000E+00 0. -1.
</event>
<event>
 4    1  0.6145708E+003  0.2366365E+02  0.7546771E-02  0.1484329E+00
          2   -1    0    0  501    0  0.00000000000E+00  0.00000000000E+00  0.81191577245E+03  0.81191577245E+03  0.00000000000E+00 0. -1.
         -2   -1    0    0    0  501 -0.00000000000E+00 -0.00000000000E+00 -0.17901723720E+01  0.17901723720E+01  0.00000000000E+00 0. -1.
          2    1    1    2  502    0  0.96622593022E+01  0.21601141404E+02  0.72405642802E+03  0.72444301331E+03  0.00000000000E+00 0. -1.
         -2    1    1    2    0  502 -0.96622593022E+01 -0.21601141404E+02  0.86069172051E+02  0.89262931513E+02  0.00000000000E+00 0. -1.
</event>
<event>
 4    1  0.6145708E+003  0.2214930E+02  0.7546771E-02  0.1503466E+00
          2   -1    0    0  501    0  0.00000000000E+00  0.00000000000E+00  0.22747289398E+02  0.22747289398E+02  0.00000000000E+00 0.  1.
         -2   -1    0    0    0  501 -0.00000000000E+00 -0.00000000000E+00 -0.28345153400E+03  0.28345153400E+03  0.00000000000E+00 0. -1.
          2    1    1    2  502    0 -0.17863580775E+02 -0.13095188231E+02  0.16807619370E+02  0.27804451834E+02  0.00000000000E+00 0.  1.
         -2    1    1    2    0  502  0.17863580775E+02  0.13095188231E+02 -0.27751186397E+03  0.27839437156E+03  0.00000000000E+00 0. -1.
</event>
<event>
 4    1  0.6145708E+003  0.2297508E+02  0.7546771E-02  0.1492811E+00
          2   -1    0    0  501    0  0.00000000000E+00  0.00000000000E+00  0.11703944734E+03  0.11703944734E+03  0.00000000000E+00 0.  1.
         -2   -1    0    0    0  501 -0.00000000000E+00 -0.00000000000E+00 -0.73189547410E+01  0.73189547410E+01  0.00000000000E+00 0.  1.
          2    1    1    2  502    0  0.13783375189E+02 -0.18381320288E+02  0.93380462039E+02  0.96165300695E+02  0.00000000000E+00 0.  1.
         -2    1    1    2    0  502 -0.13783375189E+02  0.18381320288E+02  0.16340030563E+02  0.28193101389E+02  0.00000000000E+00 0.  1.
</event>
<event>
 4    1  0.6145708E+003  0.3252198E+02  0.7546771E-02  0.1398875E+00
          2   -1    0    0  501    0  0.00000000000E+00  0.00000000000E+00  0.13852230962E+02  0.13852230962E+02  0.00000000000E+00 0.  1.
         -2   -1    0    0    0  501 -0.00000000000E+00 -0.00000000000E+00 -0.17941715810E+03  0.17941715810E+03  0.00000000000E+00 0.  1.
          2    1    1    2  502    0 -0.18308014703E+02  0.26879280838E+02 -0.95418595158E+01  0.33892863906E+02  0.00000000000E+00 0.  1.
         -2    1    1    2    0  502  0.18308014703E+02 -0.26879280838E+02 -0.15602306762E+03  0.15937652515E+03  0.00000000000E+00 0.  1.
</event>
<event>
 4    1  0.6145708E+003  0.5031001E+02  0.7546771E-02  0.1296834E+00
          2   -1    0    0  501    0  0.00000000000E+00  0.00000000000E+00  0.10065360122E+03  0.10065360122E+03  0.00000000000E+00 0.  1.
         -2   -1    0    0    0  501 -0.00000000000E+00 -0.00000000000E+00 -0.25599393128E+02  0.25599393128E+02  0.00000000000E+00 0.  1.
          2    1    1    2  502    0 -0.12930298650E+02 -0.48620000383E+02  0.45922496373E+02  0.68117345321E+02  0.00000000000E+00 0.  1.
         -2    1    1    2    0  502  0.12930298650E+02  0.48620000383E+02  0.29131711722E+02  0.58135649031E+02  0.00000000000E+00 0.  1.
</event>
<event>
 4    1  0.6145708E+003  0.4791279E+02  0.7546771E-02  0.1307485E+00
          2   -1    0    0  501    0  0.00000000000E+00  0.00000000000E+00  0.13174087707E+04  0.13174087707E+04  0.00000000000E+00 0. -1.
         -2   -1    0    0    0  501 -0.00000000000E+00 -0.00000000000E+00 -0.17185701647E+02  0.17185701647E+02  0.00000000000E+00 0.  1.
          2    1    1    2  502    0 -0.37019652531E+02  0.30416789845E+02  0.12826745832E+04  0.12835691342E+04  0.00000000000E+00 0. -1.
         -2    1    1    2    0  502  0.37019652531E+02 -0.30416789845E+02  0.17548485800E+02  0.51025338136E+02  0.00000000000E+00 0.  1.
</event>
<event>
 4    1  0.6145708E+003  0.2807448E+02  0.7546771E-02  0.1437103E+00
          2   -1    0    0  501    0  0.00000000000E+00  0.00000000000E+00  0.24883620318E+03  0.24883620318E+03  0.00000000000E+00 0.  1.
         -2   -1    0    0    0  501 -0.00000000000E+00 -0.00000000000E+00 -0.38371343578E+03  0.38371343578E+03  0.00000000000E+00 0.  1.
          2    1    1    2  502    0  0.22829786967E+02  0.16339439346E+02  0.24752811646E+03  0.24911512377E+03  0.00000000000E+00 0.  1.
         -2    1    1    2    0  502 -0.22829786967E+02 -0.16339439346E+02 -0.38240534906E+03  0.38343451519E+03  0.00000000000E+00 0.  1.
</event>
<event>
 4    1  0.6145708E+003  0.2063314E+02  0.7546771E-02  0.1524568E+00
          2   -1    0    0  501    0  0.00000000000E+00  0.00000000000E+00  0.19017377285E+02  0.19017377285E+02  0.00000000000E+00 0. -1.
         -2   -1    0    0    0  501 -0.00000000000E+00 -0.00000000000E+00 -0.98620520902E+02  0.98620520902E+02  0.00000000000E+00 0. -1.
          2    1    1    2  502    0  0.19074101331E+02 -0.78679810929E+01  0.11912523814E+02  0.23825085345E+02  0.00000000000E+00 0. -1.
         -2    1    1    2    0  502 -0.19074101331E+02  0.78679810929E+01 -0.91515667431E+02  0.93812812842E+02  0.00000000000E+00 0. -1.
</event>
<event>
 4    1  0.6145708E+003  0.2774535E+02  0.7546771E-02  0.1440261E+00
          2   -1    0    0  501    0  0.00000000000E+00  0.00000000000E+00  0.47700367056E+02  0.47700367056E+02  0.00000000000E+00 0.  1.
         -2   -1    0    0    0  501 -0.00000000000E+00 -0.00000000000E+00 -0.22625419883E+02  0.22625419883E+02  0.00000000000E+00 0.  1.
          2    1    1    2  502    0 -0.25144704859E+02  0.11728096580E+02  0.31365774106E+02  0.41876201083E+02  0.00000000000E+00 0.  1.
         -2    1    1    2    0  502  0.25144704859E+02 -0.11728096580E+02 -0.62908269335E+01  0.28449585856E+02  0.00000000000E+00 0.  1.
</event>
<event>
 4    1  0.6145708E+003  0.2212336E+02  0.7546771E-02  0.1503810E+00
          2   -1    0    0  501    0  0.00000000000E+00  0.00000000000E+00  0.55815659691E+02  0.55815659691E+02  0.00000000000E+00 0.  1.
         -2   -1    0    0    0  501 -0.00000000000E+00 -0.00000000000E+00 -0.36670270602E+02  0.36670270602E+02  0.00000000000E+00 0. -1.
          2    1    1    2  502    0  0.49367459592E+01  0.21565515256E+02  0.49909476716E+02  0.54593028630E+02  0.00000000000E+00 0.  1.
         -2    1    1    2    0  502 -0.49367459592E+01 -0.21565515256E+02 -0.30764087627E+02  0.37892901663E+02  0.00000000000E+00 0. -1.
</event>
<event>
 4    1  0.6145708E+003  0.2074895E+02  0.7546771E-02  0.1522880E+00
          2   -1    0    0  501    0  0.00000000000E+00  0.00000000000E+00  0.48985478264E+02  0.48985478264E+02  0.00000000000E+00 0.  1.
         -2   -1    0    0    0  501 -0.00000000000E+00 -0.00000000000E+00 -0.30668035403E+02  0.30668035403E+02  0.00000000000E+00 0.  1.
          2    1    1    2  502    0  0.15569052504E+02  0.13715813184E+02  0.42798178353E+02  0.47562621853E+02  0.00000000000E+00 0.  1.
         -2    1    1    2    0  502 -0.15569052504E+02 -0.13715813184E+02 -0.24480735492E+02  0.32090891814E+02  0.00000000000E+00 0.  1.
</event>
<event>
 4    1  0.6145708E+003  0.4322813E+02  0.7546771E-02  0.1330541E+00
          2   -1    0    0  501    0  0.00000000000E+00  0.00000000000E+00  0.10206753248E+03  0.10206753248E+03  0.00000000000E+00 0. -1.
         -2   -1    0    0    0  501 -0.00000000000E+00 -0.00000000000E+00 -0.39276593429E+03  0.39276593429E+03  0.00000000000E+00 0.  1.
          2    1    1    2  502    0 -0.39806182361E+02  0.16856427965E+02  0.96232243241E+02  0.10549557316E+03  0.00000000000E+00 0. -1.
         -2    1    1    2    0  502  0.39806182361E+02 -0.16856427965E+02 -0.38693064505E+03  0.38933789361E+03  0.00000000000E+00 0.  1.
</event>
<event>
 4    1  0.6145708E+003  0.2584863E+02  0.7546771E-02  0.1459530E+00
          2   -1    0    0  501    0  0.00000000000E+00  0.00000000000E+00  0.17504780569E+04  0.17504780569E+04  0.00000000000E+00 0.  1.
         -2   -1    0    0    0  501 -0.00000000000E+00 -0.00000000000E+00 -0.10330433420E+02  0.10330433420E+02  0.00000000000E+00 0. -1.
          2    1    1    2  502    0  0.14576362434E+02 -0.21346689619E+02  0.17340600559E+04  0.17342527004E+04  0.00000000000E+00 0.  1.
         -2    1    1    2    0  502 -0.14576362434E+02  0.21346689619E+02  0.60875676319E+01  0.26555789937E+02  0.00000000000E+00 0. -1.
</event>
<event>
 4    1  0.6145708E+003  0.2048952E+02  0.7546771E-02  0.1526680E+00
          2   -1    0    0  501    0  0.00000000000E+00  0.00000000000E+00  0.10823201204E+03  0.10823201204E+03  0.00000000000E+00 0. -1.
         -2   -1    0    0    0  501 -0.00000000000E+00 -0.00000000000E+00 -0.38789086201E+01  0.38789086201E+01  0.00000000000E+00 0.  1.
          2    1    1    2  502    0 -0.13879694181E+02  0.15072292619E+02  0.52049135215E+02  0.55936860763E+02  0.00000000000E+00 0. -1.
         -2    1    1    2    0  502  0.13879694181E+02 -0.15072292619E+02  0.52303968203E+02  0.56174059896E+02  0.00000000000E+00 0.  1.
</event>
<event>
 4    1  0.6145708E+003  0.3587604E+02  0.7546771E-02  0.1374507E+00
          2   -1    0    0  501    0  0.00000000000E+00  0.00000000000E+00  0.17135525625E+03  0.17135525625E+03  0.00000000000E+00 0.  1.
         -2   -1    0    0    0  501 -0.00000000000E+00 -0.00000000000E+00 -0.45328876859E+02  0.45328876859E+02  0.00000000000E+00 0. -1.
          2    1    1    2  502    0 -0.21591532558E+02 -0.28651288119E+02  0.16197253767E+03  0.16589814209E+03  0.00000000000E+00 0.  1.
         -2    1    1    2    0  502  0.21591532558E+02  0.28651288119E+02 -0.35946158278E+02  0.50785991022E+02  0.00000000000E+00 0. -1.
</event>
<event>
 4    1  0.6145708E+003  0.2728426E+02  0.7546771E-02  0.1444773E+00
          2   -1    0    0  501    0  0.00000000000E+00  0.00000000000E+00  0.47283611978E+03  0.47283611978E+03  0.00000000000E+00 0.  1.
         -2   -1    0    0    0  501 -0.00000000000E+00 -0.00000000000E+00 -0.27341974582E+01  0.27341974582E+01  0.00000000000E+00 0.  1.
          2    1    1    2  502    0 -0.20133094109E+02 -0.18414378894E+02  0.38991900659E+03  0.39087243766E+03  0.00000000000E+00 0.  1.
         -2    1    1    2    0  502  0.20133094109E+02  0.18414378894E+02  0.80182915731E+02  0.84697879570E+02  0.00000000000E+00 0.  1.
</event>
<event>
 4    1  0.6145708E+003  0.2475717E+02  0.7546771E-02  0.1471538E+00
          2   -1    0    0  501    0  0.00000000000E+00  0.00000000000E+00  0.82280406033E+03  0.82280406033E+03  0.00000000000E+00 0.  1.
         -2   -1    0    0    0  501 -0.00000000000E+00 -0.00000000000E+00 -0.10946126355E+01  0.10946126355E+01  0.00000000000E+00 0.  1.
          2    1    1    2  502    0  0.23371074220E+02 -0.81676028281E+01  0.17801256467E+03  0.17972587467E+03  0.00000000000E+00 0.  1.
         -2    1    1    2    0  502 -0.23371074220E+02  0.81676028281E+01  0.64369688303E+03  0.64417279830E+03  0.00000000000E+00 0.  1.
</event>
<event>
 4    1  0.6467928E+003  0.2395952E+02  0.7546771E-02  0.1480788E+00
          2   -1    0    0  501    0  0.00000000000E+00  0.00000000000E+00  0.11774271688E+04  0.11774271688E+04  0.00000000000E+00 0.  1.
         -2   -1    0    0    0  501 -0.00000000000E+00 -0.00000000000E+00 -0.59309343221E+02  0.59309343221E+02  0.00000000000E+00 0. -1.
          2    1    1    2  502    0 -0.47322379819E+01  0.23487544024E+02  0.11748802700E+04  0.11751245498E+04  0.00000000000E+00 0.  1.
         -2    1    1    2    0  502  0.47322379819E+01 -0.23487544024E+02 -0.56762444365E+02  0.61611962238E+02  0.00000000000E+00 0. -1.
</event>
<event>
 4    1  0.6145708E+003  0.2934983E+02  0.7546771E-02  0.1425332E+00
          2   -1    0    0  501    0  0.00000000000E+00  0.00000000000E+00  0.15892172399E+03  0.15892172399E+03  0.00000000000E+00 0.  1.
         -2   -1    0    0    0  501 -0.00000000000E+00 -0.00000000000E+00 -0.10370293040E+02  0.10370293040E+02  0.00000000000E+00 0.  1.
          2    1    1    2  502    0 -0.11092196476E+02  0.27173071949E+02  0.13275616639E+03  0.13596180485E+03  0.00000000000E+00 0.  1.
         -2    1    1    2    0  502  0.11092196476E+02 -0.27173071949E+02  0.15795264560E+02  0.33330212185E+02  0.00000000000E+00 0.  1.
</event>
<event>
 4    1  0.6145708E+003  0.2378646E+02  0.7546771E-02  0.1482852E+00
          2   -1    0    0  501    0  0.00000000000E+00  0.00000000000E+00  0.73459396148E+03  0.73459396148E+03  0.00000000000E+00 0.  1.
         -2   -1    0    0    0  501 -0.00000000000E+00 -0.00000000000E+00 -0.38911369992E+01  0.38911369992E+01  0.00000000000E+00 0. -1.
          2    1    1    2  502    0 -0.46133102835E+01  0.23334800528E+02  0.69603672969E+03  0.69644305196E+03  0.00000000000E+00 0.  1.
         -2    1    1    2    0  502  0.46133102835E+01 -0.23334800528E+02  0.34666094796E+02  0.42042046523E+02  0.00000000000E+00 0. -1.
</event>
<event>
 4    1  0.6145708E+003  0.2532841E+02  0.7546771E-02  0.1465163E+00
          2   -1    0    0  501    0  0.00000000000E+00  0.00000000000E+00  0.83503459153E+03  0.83503459153E+03  0.00000000000E+00 0. -1.
         -2   -1    0    0    0  501 -0.00000000000E+00 -0.00000000000E+00 -0.12537802175E+01  0.12537802175E+01  0.00000000000E+00 0. -1.
          2    1    1    2  502    0 -0.24961934437E+02  0.42930164010E+01  0.67709599012E+03  0.67756955953E+03  0.00000000000E+00 0. -1.
         -2    1    1    2    0  502  0.24961934437E+02 -0.42930164010E+01  0.15668482119E+03  0.15871881221E+03  0.00000000000E+00 0. -1.
</event>
<event>
 4    1  0.6145708E+003  0.2238948E+02  0.7546771E-02  0.1500310E+00
          2   -1    0    0  501    0  0.00000000000E+00  0.00000000000E+00  0.16957691653E+03  0.16957691653E+03  0.00000000000E+00 0.  1.
         -2   -1    0    0    0  501 -0.00000000000E+00 -0.00000000000E+00 -0.98307733767E+02  0.98307733767E+02  0.00000000000E+00 0. -1.
          2    1    1    2  502    0  0.20496491859E+02  0.90101348655E+01  0.16754772242E+03  0.16903706101E+03  0.00000000000E+00 0.  1.
         -2    1    1    2    0  502 -0.20496491859E+02 -0.90101348655E+01 -0.96278539655E+02  0.98847589282E+02  0.00000000000E+00 0. -1.
</event>
<event>
 4    1  0.6145708E+003  0.2118537E+02  0.7546771E-02  0.1516635E+00
          2   -1    0    0  501    0  0.00000000000E+00  0.00000000000E+00  0.20760226806E+03  0.20760226806E+03  0.00000000000E+00 0. -1.
         -2   -1    0    0    0  501 -0.00000000000E+00 -0.00000000000E+00 -0.65028709647E+02  0.65028709647E+02  0.00000000000E+00 0.  1.
          2    1    1    2  502    0 -0.55180569642E+01  0.20454117126E+02  0.20531716655E+03  0.20640726427E+03  0.00000000000E+00 0. -1.
         -2    1    1    2    0  502  0.55180569642E+01 -0.20454117126E+02 -0.62743608138E+02  0.66223713444E+02  0.00000000000E+00 0.  1.
</event>
<event>
 4    1  0.6145708E+003  0.2482365E+02  0.7546771E-02  0.1470786E+00
          2   -1    0    0  501    0  0.00000000000E+00  0.00000000000E+00  0.87964892006E+03  0.87964892006E+03  0.00000000000E+00 0.  1.
         -2   -1    0    0    0  501 -0.00000000000E+00 -0.00000000000E+00 -0.18560102263E+01  0.18560102263E+01  0.00000000000E+00 0. -1.
          2    1    1    2  502    0 -0.15717058305E+02  0.19214262708E+02  0.78666255580E+03  0.78705412172E+03  0.00000000000E+00 0.  1.
         -2    1    1    2    0  502  0.15717058305E+02 -0.19214262708E+02  0.91130354035E+02  0.94450808571E+02  0.00000000000E+00 0. -1.
</event>
<event>
 4    1  0.6145708E+003  0.3942728E+02  0.7546771E-02  0.1351875E+00
          2   -1    0    0  501    0  0.00000000000E+00  0.00000000000E+00  0.23445702713E+03  0.23445702713E+03  0.00000000000E+00 0. -1.
         -2   -1    0    0    0  501 -0.00000000000E+00 -0.00000000000E+00 -0.42206900270E+02  0.42206900270E+02  0.00000000000E+00 0. -1.
          2    1    1    2  502    0 -0.21488213482E+02 -0.33057027267E+02  0.22312786372E+03  0.22658454038E+03  0.00000000000E+00 0. -1.
         -2    1    1    2    0  502  0.21488213482E+02  0.33057027267E+02 -0.30877736864E+02  0.50079387019E+02  0.00000000000E+00 0. -1.
</event>
<event>
 4    1  0.6145708E+003  0.2783541E+02  0.7546771E-02  0.1439392E+00
          2   -1    0    0  501    0  0.00000000000E+00  0.00000000000E+00  0.33953248044E+03  0.33953248044E+03  0.00000000000E+00 0. -1.
         -2   -1    0    0    0  501 -0.00000000000E+00 -0.00000000000E+00 -0.42505104774E+01  0.42505104774E+01  0.00000000000E+00 0. -1.
          2    1    1    2  502    0  0.71219212243E+00 -0.27826299858E+02  0.28461884297E+03  0.28597674023E+03  0.00000000000E+00 0. -1.
         -2    1    1    2    0  502 -0.71219212243E+00  0.27826299858E+02  0.50663126993E+02  0.57806250684E+02  0.00000000000E+00 0. -1.
</event>
<event>
 4    1  0.6145708E+003  0.2267761E+02  0.7546771E-02  0.1496587E+00
          2   -1    0    0  501    0  0.00000000000E+00  0.00000000000E+00  0.84226720455E+02  0.84226720455E+02  0.00000000000E+00 0.  1.
         -2   -1    0    0    0  501 -0.00000000000E+00 -0.00000000000E+00 -0.96348341348E+01  0.96348341348E+01  0.00000000000E+00 0. -1.
          2    1    1    2  502    0  0.18069565970E+02 -0.13702727818E+02  0.65698782852E+02  0.69502546948E+02  0.00000000000E+00 0.  1.
         -2    1    1    2    0  502 -0.18069565970E+02  0.13702727818E+02  0.88931034679E+01  0.24359007642E+02  0.00000000000E+00 0. -1.
</event>
<event>
 4    1  0.6145708E+003  0.2629804E+02  0.7546771E-02  0.1454790E+00
          2   -1    0    0  501    0  0.00000000000E+00  0.00000000000E+00  0.57180505364E+03  0.57180505364E+03  0.00000000000E+00 0. -1.
         -2   -1    0    0    0  501 -0.00000000000E+00 -0.00000000000E+00 -0.31352466833E+02  0.31352466833E+02  0.00000000000E+00 0. -1.
          2    1    1    2  502    0  0.22472422072E+02 -0.13659319034E+02  0.56593086259E+03  0.56654155009E+03  0.00000000000E+00 0. -1.
         -2    1    1    2    0  502 -0.22472422072E+02  0.13659319034E+02 -0.25478275780E+02  0.36615970382E+02  0.00000000000E+00 0. -1.
</event>
<event>
 4    1  0.6145708E+003  0.2039813E+02  0.7546771E-02  0.1528034E+00
          2   -1    0    0  501    0  0.00000000000E+00  0.00000000000E+00  0.53787475990E+03  0.53787475990E+03  0.00000000000E+00 0. -1.
         -2   -1    0    0    0  501 -0.00000000000E+00 -0.00000000000E+00 -0.52297618662E+01  0.52297618662E+01  0.00000000000E+00 0. -1.
          2    1    1    2  502    0  0.98922259923E+01  0.17838939846E+02  0.51698790106E+03  0.51739015622E+03  0.00000000000E+00 0. -1.
         -2    1    1    2    0  502 -0.98922259923E+01 -0.17838939846E+02  0.15657096977E+02  0.25714365551E+02  0.00000000000E+00 0. -1.
</event>
<event>
 4    1  0.6145708E+003  0.2300925E+02  0.7546771E-02  0.1492382E+00
          2   -1    0    0  501    0  0.00000000000E+00  0.00000000000E+00  0.60733066167E+01  0.60733066167E+01  0.00000000000E+00 0. -1.
         -2   -1    0    0    0  501 -0.00000000000E+00 -0.00000000000E+00 -0.30090867816E+03  0.30090867816E+03  0.00000000000E+00 0. -1.
          2    1    1    2  502    0 -0.13407959672E+02 -0.18698987095E+02 -0.18056339340E+02  0.29248194668E+02  0.00000000000E+00 0. -1.
         -2    1    1    2    0  502  0.13407959672E+02  0.18698987095E+02 -0.27677903221E+03  0.27773379011E+03  0.00000000000E+00 0. -1.
</event>
<event>
 4    1  0.6145708E+003  0.2094227E+02  0.7546771E-02  0.1520091E+00
          2   -1    0    0  501    0  0.00000000000E+00  0.00000000000E+00  0.22164238897E+03  0.22164238897E+03  0.00000000000E+00 0.  1.
         -2   -1    0    0    0  501 -0.00000000000E+00 -0.00000000000E+00 -0.10493674574E+03  0.10493674574E+03  0.00000000000E+00 0. -1.
          2    1    1    2  502    0 -0.13957268428E+02  0.15613248418E+02  0.22009550511E+03  0.22108959776E+03  0.00000000000E+00 0.  1.
         -2    1    1    2    0  502  0.13957268428E+02 -0.15613248418E+02 -0.10338986187E+03  0.10548953695E+03  0.00000000000E+00 0. -1.
</event>
<event>
 4    1  0.6145708E+003  0.2808503E+02  0.7546771E-02  0.1437003E+00
          2   -1    0    0  501    0  0.00000000000E+00  0.00000000000E+00  0.13592212420E+03  0.13592212420E+03  0.00000000000E+00 0. -1.
         -2   -1    0    0    0  501 -0.00000000000E+00 -0.00000000000E+00 -0.21484168204E+02  0.21484168204E+02  0.00000000000E+00 0. -1.
          2    1    1    2  502    0 -0.26625022095E+02  0.89373954921E+01  0.12445789803E+03  0.12758737093E+03  0.00000000000E+00 0. -1.
         -2    1    1    2    0  502  0.26625022095E+02 -0.89373954921E+01 -0.10019942028E+02  0.29818921476E+02  0.00000000000E+00 0. -1.
</event>
<event>
 4    1  0.6145708E+003  0.2128855E+02  0.7546771E-02  0.1515185E+00
          2   -1    0    0  501    0  0.00000000000E+00  0.00000000000E+00  0.29449866186E+03  0.29449866186E+03  0.00000000000E+00 0. -1.
         -2   -1    0    0    0  501 -0.00000000000E+00 -0.00000000000E+00 -0.25331542075E+01  0.25331542075E+01  0.00000000000E+00 0. -1.
          2    1    1    2  502    0 -0.20669177577E+02  0.50977802477E+01  0.23902756504E+03  0.23997370505E+03  0.00000000000E+00 0. -1.
         -2    1    1    2    0  502  0.20669177577E+02 -0.50977802477E+01  0.52937942611E+02  0.57058111019E+02  0.00000000000E+00 0. -1.
</event>
<event>
 4    1  0.6145708E+003  0.2400925E+02  0.7546771E-02  0.1480199E+00
          2   -1    0    0  501    0  0.00000000000E+00  0.00000000000E+00  0.89341127635E+02  0.89341127635E+02  0.00000000000E+00 0.  1.
         -2   -1    0    0    0  501 -0.00000000000E+00 -0.00000000000E+00 -0.67481677746E+01  0.67481677746E+01  0.00000000000E+00 0.  1.
          2    1    1    2  502    0 -0.96536542510E+01 -0.21982962102E+02  0.31234110817E+02  0.39395600537E+02  0.00000000000E+00 0.  1.
         -2    1    1    2    0  502  0.96536542510E+01  0.21982962102E+02  0.51358849044E+02  0.56693694872E+02  0.00000000000E+00 0.  1.
</event>
<event>
 4    1  0.6145708E+003  0.2322585E+02  0.7546771E-02  0.1489681E+00
          2   -1    0    0  501    0  0.00000000000E+00  0.00000000000E+00  0.15368585527E+04  0.15368585527E+04  0.00000000000E+00 0. -1.
         -2   -1    0    0    0  501 -0.00000000000E+00 -0.00000000000E+00 -0.74292710372E+01  0.74292710372E+01  0.00000000000E+00 0.  1.
          2    1    1    2  502    0 -0.23650774914E+01  0.23105115263E+02  0.15183975942E+04  0.15185752184E+04  0.00000000000E+00 0. -1.
         -2    1    1    2    0  502  0.23650774914E+01 -0.23105115263E+02  0.11031687435E+02  0.25712605285E+02  0.00000000000E+00 0.  1.
</event>
<event>
 4    1  0.6145708E+003  0.2297554E+02  0.7546771E-02  0.1492806E+00
          2   -1    0    0  501    0  0.00000000000E+00  0.00000000000E+00  0.40885295638E+02  0.40885295638E+02  0.00000000000E+00 0.  1.
         -2   -1    0    0    0  501 -0.00000000000E+00 -0.00000000000E+00 -0.58720077726E+02  0.58720077726E+02  0.00000000000E+00 0.  1.
          2    1    1    2  502    0 -0.23344075392E+01  0.22856637885E+02  0.35070649896E+02  0.41926433643E+02  0.00000000000E+00 0.  1.
         -2    1    1    2    0  502  0.23344075392E+01 -0.22856637885E+02 -0.52905431984E+02  0.57678939721E+02  0.00000000000E+00 0.  1.
</event>
<event>
 4    1  0.6145708E+003  0.3298716E+02  0.7546771E-02  0.1395294E+00
          2   -1    0    0  501    0  0.00000000000E+00  0.00000000000E+00  0.22385883035E+02  0.22385883035E+02  0.00000000000E+00 0.  1.
         -2   -1    0    0    0  501 -0.00000000000E+00 -0.00000000000E+00 -0.12433115194E+03  0.12433115194E+03  0.00000000000E+00 0.  1.
          2    1    1    2  502    0  0.32987030937E+02 -0.93273017899E-01  0.62769526305E+01  0.33579056631E+02  0.00000000000E+00 0.  1.
         -2    1    1    2    0  502 -0.32987030937E+02  0.93273017899E-01 -0.10822222154E+03  0.11313797835E+03  0.00000000000E+00 0.  1.
</event>
<event>
 4    1  0.6145708E+003  0.3911803E+02  0.7546771E-02  0.1353733E+00
          2   -1    0    0  501    0  0.00000000000E+00  0.00000000000E+00  0.11581093025E+04  0.11581093025E+04  0.00000000000E+00 0. -1.
         -2   -1    0    0    0  501 -0.00000000000E+00 -0.00000000000E+00 -0.43426454349E+01  0.43426454349E+01  0.00000000000E+00 0. -1.
          2    1    1    2  502    0  0.21330305450E+02  0.32790823464E+02  0.10616886576E+04  0.10624090670E+04  0.00000000000E+00 0. -1.
         -2    1    1    2    0  502 -0.21330305450E+02 -0.32790823464E+02  0.92077999469E+02  0.10004288091E+03  0.00000000000E+00 0. -1.
</event>
<event>
 4    1  0.6145708E+003  0.1235153E+03  0.7546771E-02  0.1128343E+00
          2   -1    0    0  501    0  0.00000000000E+00  0.00000000000E+00  0.39934420108E+03  0.39934420108E+03  0.00000000000E+00 0. -1.
         -2   -1    0    0    0  501 -0.00000000000E+00 -0.00000000000E+00 -0.59941500468E+02  0.59941500468E+02  0.00000000000E+00 0.  1.
          2    1    1    2  502    0  0.12347839235E+03  0.30188804045E+01  0.30799648607E+03  0.33184011579E+03  0.00000000000E+00 0. -1.
         -2    1    1    2    0  502 -0.12347839235E+03 -0.30188804045E+01  0.31406214540E+02  0.12744558575E+03  0.00000000000E+00 0.  1.
</event>
<event>
 4    1  0.6145708E+003  0.2426271E+02  0.7546771E-02  0.1477223E+00
          2   -1    0    0  501    0  0.00000000000E+00  0.00000000000E+00  0.25414876426E+02  0.25414876426E+02  0.00000000000E+00 0.  1.
         -2   -1    0    0    0  501 -0.00000000000E+00 -0.00000000000E+00 -0.10048585649E+03  0.10048585649E+03  0.00000000000E+00 0. -1.
          2    1    1    2  502    0 -0.23167200471E+02  0.72083364486E+01  0.17685011258E+02  0.30023972343E+02  0.00000000000E+00 0.  1.
         -2    1    1    2    0  502  0.23167200471E+02 -0.72083364486E+01 -0.92755991324E+02  0.95876760576E+02  0.00000000000E+00 0. -1.
</event>
<event>
 4    1  0.6145708E+003  0.2594937E+02  0.7546771E-02  0.1458457E+00
          2   -1    0    0  501    0  0.00000000000E+00  0.00000000000E+00  0.53083669222E+02  0.53083669222E+02  0.00000000000E+00 0.  1.
         -2   -1    0    0    0  501 -0.00000000000E+00 -0.00000000000E+00 -0.12425570974E+03  0.12425570974E+03  0.00000000000E+00 0.  1.
          2    1    1    2  502    0  0.20709183925E+02 -0.15636478532E+02  0.48435780102E+02  0.54949017769E+02  0.00000000000E+00 0.  1.
         -2    1    1    2    0  502 -0.20709183925E+02  0.15636478532E+02 -0.11960782062E+03  0.12239036119E+03  0.00000000000E+00 0.  1.
</event>
<event>
 4    1  0.6145708E+003  0.2752562E+02  0.7546771E-02  0.1442398E+00
          2   -1    0    0  501    0  0.00000000000E+00  0.00000000000E+00  0.13855337651E+03  0.13855337651E+03  0.00000000000E+00 0. -1.
         -2   -1    0    0    0  501 -0.00000000000E+00 -0.00000000000E+00 -0.10368284480E+02  0.10368284480E+02  0.00000000000E+00 0. -1.
          2    1    1    2  502    0 -0.30107840591E+00  0.27523972598E+02  0.11528065961E+03  0.11852126474E+03  0.00000000000E+00 0. -1.
         -2    1    1    2    0  502  0.30107840591E+00 -0.27523972598E+02  0.12904432415E+02  0.30400396243E+02  0.00000000000E+00 0. -1.
</event>
<event>
 4    1  0.6145708E+003  0.2034205E+02  0.7546771E-02  0.1528870E+00
          2   -1    0    0  501    0  0.00000000000E+00  0.00000000000E+00  0.42759346319E+01  0.42759346319E+01  0.00000000000E+00 0.  1.
         -2   -1    0    0    0  501 -0.00000000000E+00 -0.00000000000E+00 -0.11951012715E+03  0.11951012715E+03  0.00000000000E+00 0.  1.
          2    1    1    2  502    0 -0.10523600923E+02 -0.17408407637E+02 -0.30621142216E+02  0.36762116145E+02  0.00000000000E+00 0.  1.
         -2    1    1    2    0  502  0.10523600923E+02  0.17408407637E+02 -0.84613050298E+02  0.87023945633E+02  0.00000000000E+00 0.  1.
</event>
<event>
 4    1  0.6145708E+003  0.2373801E+02  0.7546771E-02  0.1483433E+00
          2   -1    0    0  501    0  0.00000000000E+00  0.00000000000E+00  0.12720133755E+04  0.12720133755E+04  0.00000000000E+00 0. -1.
         -2   -1    0    0    0  501 -0.00000000000E+00 -0.00000000000E+00 -0.64181342792E+01  0.64181342792E+01  0.00000000000E+00 0.  1.
          2    1    1    2  502    0 -0.23720662772E+02 -0.90723730334E+00  0.12495589886E+04  0.12497844450E+04  0.00000000000E+00 0. -1.
         -2    1    1    2    0  502  0.23720662772E+02  0.90723730334E+00  0.16036252556E+02  0.28647064735E+02  0.00000000000E+00 0.  1.
</event>
<event>
 4    1  0.6145708E+003  0.2045460E+02  0.7546771E-02  0.1527196E+00
          2   -1    0    0  501    0  0.00000000000E+00  0.00000000000E+00  0.11057772316E+04  0.11057772316E+04  0.00000000000E+00 0.  1.
         -2   -1    0    0    0  501 -0.00000000000E+00 -0.00000000000E+00 -0.40563893888E+00  0.40563893888E+00  0.00000000000E+00 0.  1.
          2    1    1    2  502    0 -0.17779650163E+01  0.20377177710E+02  0.69609549296E+03  0.69639595480E+03  0.00000000000E+00 0.  1.
         -2    1    1    2    0  502  0.17779650163E+01 -0.20377177710E+02  0.40927609974E+03  0.40978691579E+03  0.00000000000E+00 0.  1.
</event>
<event>
 4    1  0.6145708E+003  0.3585397E+02  0.7546771E-02  0.1374657E+00
          2   -1    0    0  501    0  0.00000000000E+00  0.00000000000E+00  0.35105688050E+03  0.35105688050E+03  0.00000000000E+00 0.  1.
         -2   -1    0    0    0  501 -0.00000000000E+00 -0.00000000000E+00 -0.11271113198E+02  0.11271113198E+02  0.00000000000E+00 0.  1.
          2    1    1    2  502    0 -0.47408620999E+01  0.35539156582E+02  0.31874692193E+03  0.32075708514E+03  0.00000000000E+00 0.  1.
         -2    1    1    2    0  502  0.47408620999E+01 -0.35539156582E+02  0.21038845367E+02  0.41570908559E+02  0.00000000000E+00 0.  1.
</event>
<event>
 4    1  0.6145708E+003  0.4071072E+02  0.7546771E-02  0.1344371E+00
          2   -1    0    0  501    0  0.00000000000E+00  0.00000000000E+00  0.84169737960E+03  0.84169737960E+03  0.00000000000E+00 0. -1.
         -2   -1    0    0    0  501 -0.00000000000E+00 -0.00000000000E+00 -0.22710851813E+02  0.22710851813E+02  0.00000000000E+00 0. -1.
          2    1    1    2  502    0  0.20363625079E+02 -0.35251745865E+02  0.82253619632E+03  0.82354305113E+03  0.00000000000E+00 0. -1.
         -2    1    1    2    0  502 -0.20363625079E+02  0.35251745865E+02 -0.35496685303E+01  0.40865180283E+02  0.00000000000E+00 0. -1.
</event>
<event>
 4    1  0.6145708E+003  0.3182341E+02  0.7546771E-02  0.1404386E+00
          2   -1    0    0  501    0  0.00000000000E+00  0.00000000000E+00  0.19618781269E+04  0.19618781269E+04  0.00000000000E+00 0. -1.
         -2   -1    0    0    0  501 -0.00000000000E+00 -0.00000000000E+00 -0.30608141854E+02  0.30608141854E+02  0.00000000000E+00 0.  1.
          2    1    1    2  502    0 -0.13679651168E+02  0.28733195730E+02  0.19534416223E+04  0.19537008218E+04  0.00000000000E+00 0. -1.
         -2    1    1    2    0  502  0.13679651168E+02 -0.28733195730E+02 -0.22171637282E+02  0.38785446919E+02  0.00000000000E+00 0.  1.
</event>
<event>
 4    1  0.6145708E+003  0.2821316E+02  0.7546771E-02  0.1435788E+00
          2   -1    0    0  501    0  0.00000000000E+00  0.00000000000E+00  0.14670779941E+04  0.14670779941E+04  0.00000000000E+00 0. -1.
         -2   -1    0    0    0  501 -0.00000000000E+00 -0.00000000000E+00 -0.22329598420E+02  0.22329598420E+02  0.00000000000E+00 0.  1.
          2    1    1    2  502    0  0.10456690910E+02  0.26203822021E+02  0.14579749729E+04  0.14582479228E+04  0.00000000000E+00 0. -1.
         -2    1    1    2    0  502 -0.10456690910E+02 -0.26203822021E+02 -0.13226577225E+02  0.31159669742E+02  0.00000000000E+00 0.  1.
</event>
<event>
 4    1  0.6145708E+003  0.2558294E+02  0.7546771E-02  0.1462387E+00
          2   -1    0    0  501    0  0.00000000000E+00  0.00000000000E+00  0.68866878267E+01  0.68866878267E+01  0.00000000000E+00 0.  1.
         -2   -1    0    0    0  501 -0.00000000000E+00 -0.00000000000E+00 -0.30673855525E+03  0.30673855525E+03  0.00000000000E+00 0.  1.
          2    1    1    2  502    0 -0.11516167317E+02 -0.22844352993E+02 -0.19651441646E+02  0.32259351080E+02  0.00000000000E+00 0.  1.
         -2    1    1    2    0  502  0.11516167317E+02  0.22844352993E+02 -0.28020042578E+03  0.28136589200E+03  0.00000000000E+00 0.  1.
</event>
<event>
 4    1  0.6145708E+003  0.2127052E+02  0.7546771E-02  0.1515437E+00
          2   -1    0    0  501    0  0.00000000000E+00  0.00000000000E+00  0.40699790482E+03  0.40699790482E+03  0.00000000000E+00 0.  1.
         -2   -1    0    0    0  501 -0.00000000000E+00 -0.00000000000E+00 -0.14678890795E+03  0.14678890795E+03  0.00000000000E+00 0. -1.
          2    1    1    2  502    0  0.20317007763E+02  0.62971489505E+01  0.40594744881E+03  0.40650432480E+03  0.00000000000E+00 0.  1.
         -2    1    1    2    0  502 -0.20317007763E+02 -0.62971489505E+01 -0.14573845194E+03  0.14728248797E+03  0.00000000000E+00 0. -1.
</event>
<event>
 4    1  0.6145708E+003  0.4585420E+02  0.7546771E-02  0.1317223E+00
          2   -1    0    0  501    0  0.00000000000E+00  0.00000000000E+00  0.83062788728E+03  0.83062788728E+03  0.00000000000E+00 0.  1.
         -2   -1    0    0    0  501 -0.00000000000E+00 -0.00000000000E+00 -0.66342730493E+03  0.66342730493E+03  0.00000000000E+00 0. -1.
          2    1    1    2  502    0  0.41794305062E+02  0.18863811590E+02  0.82920136081E+03  0.83046824388E+03  0.00000000000E+00 0.  1.
         -2    1    1    2    0  502 -0.41794305062E+02 -0.18863811590E+02 -0.66200077846E+03  0.66358694834E+03  0.00000000000E+00 0. -1.
</event>
<event>
 4    1  0.6145708E+003  0.2481484E+02  0.7546771E-02  0.1470885E+00
          2   -1    0    0  501    0  0.00000000000E+00  0.00000000000E+00  0.17414280993E+02  0.17414280993E+02  0.00000000000E+00 0.  1.
         -2   -1    0    0    0  501 -0.00000000000E+00 -0.00000000000E+00 -0.31151839387E+03  0.31151839387E+03  0.00000000000E+00 0. -1.
          2    1    1    2  502    0 -0.24766611916E+02 -0.15463479019E+01  0.77989273498E+01  0.26011526780E+02  0.00000000000E+00 0.  1.
         -2    1    1    2    0  502  0.24766611916E+02  0.15463479019E+01 -0.30190304023E+03  0.30292114809E+03  0.00000000000E+00 0. -1.
</event>
<event>
 4    1  0.6145708E+003  0.2705253E+02  0.7546771E-02  0.1447081E+00
          2   -1    0    0  501    0  0.00000000000E+00  0.00000000000E+00  0.78020648208E+03  0.78020648208E+03  0.00000000000E+00 0.  1.
         -2   -1    0    0    0  501 -0.00000000000E+00 -0.00000000000E+00 -0.17371381081E+01  0.17371381081E+01  0.00000000000E+00 0. -1.
          2    1    1    2  502    0  0.24465997479E+02 -0.11543592457E+02  0.65441246030E+03  0.65497137934E+03  0.00000000000E+00 0.  1.
         -2    1    1    2    0  502 -0.24465997479E+02  0.11543592457E+02  0.12405688368E+03  0.12697224085E+03  0.00000000000E+00 0. -1.
</event>
<event>
 4    1  0.6145708E+003  0.2099480E+02  0.7546771E-02  0.1519339E+00
          2   -1    0    0  501    0  0.00000000000E+00  0.00000000000E+00  0.78225500169E+03  0.78225500169E+03  0.00000000000E+00 0.  1.
         -2   -1    0    0    0  501 -0.00000000000E+00 -0.00000000000E+00 -0.14132054598E+01  0.14132054598E+01  0.00000000000E+00 0. -1.
          2    1    1    2  502    0 -0.93861168000E+01 -0.18779836688E+02  0.69425748487E+03  0.69457486044E+03  0.00000000000E+00 0.  1.
         -2    1    1    2    0  502  0.93861168000E+01  0.18779836688E+02  0.86584311362E+02  0.89093346713E+02  0.00000000000E+00 0. -1.
</event>
<event>
 4    1  0.6145708E+003  0.3732730E+02  0.7546771E-02  0.1364902E+00
          2   -1    0    0  501    0  0.00000000000E+00  0.00000000000E+00  0.63474465286E+03  0.63474465286E+03  0.00000000000E+00 0. -1.
         -2   -1    0    0    0  501 -0.00000000000E+00 -0.00000000000E+00 -0.17033011896E+02  0.17033011896E+02  0.00000000000E+00 0. -1.
          2    1    1    2  502    0  0.25574286260E+02 -0.27189758475E+02  0.61302147147E+03  0.61415686235E+03  0.00000000000E+00 0. -1.
         -2    1    1    2    0  502 -0.25574286260E+02  0.27189758475E+02  0.46901694880E+01  0.37620802403E+02  0.00000000000E+00 0. -1.
</event>
<event>
 4    1  0.6145708E+003  0.3239278E+02  0.7546771E-02  0.1399882E+00
          2   -1    0    0  501    0  0.00000000000E+00  0.00000000000E+00  0.28062528440E+03  0.28062528440E+03  0.00000000000E+00 0. -1.
         -2   -1    0    0    0  501 -0.00000000000E+00 -0.00000000000E+00 -0.43505810088E+01  0.43505810088E+01  0.00000000000E+00 0.  1.
          2    1    1    2  502    0  0.31489742324E+02 -0.75952116686E+01  0.84719124053E+02  0.90700722667E+02  0.00000000000E+00 0. -1.
         -2    1    1    2    0  502 -0.31489742324E+02  0.75952116686E+01  0.19155557934E+03  0.19427514274E+03  0.00000000000E+00 0.  1.
</event>
<event>
 4    1  0.6145708E+003  0.2939930E+02  0.7546771E-02  0.1424889E+00
          2   -1    0    0  501    0  0.00000000000E+00  0.00000000000E+00  0.11972705776E+03  0.11972705776E+03  0.00000000000E+00 0. -1.
         -2   -1    0    0    0  501 -0.00000000000E+00 -0.00000000000E+00 -0.13223311819E+02  0.13223311819E+02  0.00000000000E+00 0. -1.
          2    1    1    2  502    0 -0.20348474624E+02  0.21219296276E+02  0.98045706977E+02  0.10235858347E+03  0.00000000000E+00 0. -1.
         -2    1    1    2    0  502  0.20348474624E+02 -0.21219296276E+02  0.84580389619E+01  0.30591786104E+02  0.00000000000E+00 0. -1.
</event>
<event>
 4    1  0.6145708E+003  0.2531855E+02  0.7546771E-02  0.1465271E+00
          2   -1    0    0  501    0  0.00000000000E+00  0.00000000000E+00  0.10818674379E+04  0.10818674379E+04  0.00000000000E+00 0. -1.
         -2   -1    0    0    0  501 -0.00000000000E+00 -0.00000000000E+00 -0.11389973979E+01  0.11389973979E+01  0.00000000000E+00 0. -1.
          2    1    1    2  502    0  0.20637418500E+01 -0.25234301333E+02  0.91544555029E+03  0.91579560194E+03  0.00000000000E+00 0. -1.
         -2    1    1    2    0  502 -0.20637418500E+01  0.25234301333E+02  0.16528289025E+03  0.16721083339E+03  0.00000000000E+00 0. -1.
</event>
<event>
 4    1  0.6145708E+003  0.2144387E+02  0.7546771E-02  0.1513021E+00
          2   -1    0    0  501    0  0.00000000000E+00  0.00000000000E+00  0.16426000650E+04  0.16426000650E+04  0.00000000000E+00 0.  1.
         -2   -1    0    0    0  501 -0.00000000000E+00 -0.00000000000E+00 -0.57884529399E+00  0.57884529399E+00  0.00000000000E+00 0.  1.
          2    1    1    2  502    0  0.20828117637E+02  0.51018824047E+01  0.14113963835E+04  0.14115592765E+04  0.00000000000E+00 0.  1.
         -2    1    1    2    0  502 -0.20828117637E+02 -0.51018824047E+01  0.23062483619E+03  0.23161963379E+03  0.00000000000E+00 0.  1.
</event>
<event>
 4    1  0.6145708E+003  0.2039690E+02  0.7546771E-02  0.1528052E+00
          2   -1    0    0  501    0  0.00000000000E+00  0.00000000000E+00  0.80224008841E+02  0.80224008841E+02  0.00000000000E+00 0. -1.
         -2   -1    0    0    0  501 -0.00000000000E+00 -0.00000000000E+00 -0.10696374820E+02  0.10696374820E+02  0.00000000000E+00 0. -1.
          2    1    1    2  502    0  0.20293396338E+02 -0.20521783154E+01  0.67393107038E+02  0.70412102987E+02  0.00000000000E+00 0. -1.
         -2    1    1    2    0  502 -0.20293396338E+02  0.20521783154E+01  0.21345269832E+01  0.20508280675E+02  0.00000000000E+00 0. -1.
</event>
<event>
 4    1  0.6145708E+003  0.2998150E+02  0.7546771E-02  0.1419757E+00
          2   -1    0    0  501    0  0.00000000000E+00  0.00000000000E+00  0.50156878371E+02  0.50156878371E+02  0.00000000000E+00 0.  1.
         -2   -1    0    0    0  501 -0.00000000000E+00 -0.00000000000E+00 -0.32797145963E+02  0.32797145963E+02  0.00000000000E+00 0.  1.
          2    1    1    2  502    0  0.28391003862E+02 -0.96354077044E+01  0.36613425802E+02  0.47322649238E+02  0.00000000000E+00 0.  1.
         -2    1    1    2    0  502 -0.28391003862E+02  0.96354077044E+01 -0.19253693394E+02  0.35631375096E+02  0.00000000000E+00 0.  1.
</event>
<event>
 4    1  0.6145708E+003  0.3410942E+02  0.7546771E-02  0.1386935E+00
          2   -1    0    0  501    0  0.00000000000E+00  0.00000000000E+00  0.13305580325E+03  0.13305580325E+03  0.00000000000E+00 0.  1.
         -2   -1    0    0    0  501 -0.00000000000E+00 -0.00000000000E+00 -0.88702166871E+01  0.88702166871E+01  0.00000000000E+00 0. -1.
          2    1    1    2  502    0  0.14047038485E+02  0.31082687733E+02  0.70554489523E+02  0.78367013206E+02  0.00000000000E+00 0. -1.
         -2    1    1    2    0  502 -0.14047038485E+02 -0.31082687733E+02  0.53631097035E+02  0.63559006727E+02  0.00000000000E+00 0.  1.
</event>
<event>
 4    1  0.6145708E+003  0.3041157E+02  0.7546771E-02  0.1416053E+00
          2   -1    0    0  501    0  0.00000000000E+00  0.00000000000E+00  0.22529524211E+04  0.22529524211E+04  0.00000000000E+00 0. -1.
         -2   -1    0    0    0  501 -0.00000000000E+00 -0.00000000000E+00 -0.43280101457E+00  0.43280101457E+00  0.00000000000E+00 0. -1.
          2    1    1    2  502    0 -0.12060802057E+02  0.27917745838E+02  0.13819470275E+04  0.13822816104E+04  0.00000000000E+00 0. -1.
         -2    1    1    2    0  502  0.12060802057E+02 -0.27917745838E+02  0.87057259256E+03  0.87110361174E+03  0.00000000000E+00 0. -1.
</event>
<event>
 4    1  0.6145708E+003  0.3181876E+02  0.7546771E-02  0.1404423E+00
          2   -1    0    0  501    0  0.00000000000E+00  0.00000000000E+00  0.40806455137E+03  0.40806455137E+03  0.00000000000E+00 0. -1.
         -2   -1    0    0    0  501 -0.00000000000E+00 -0.00000000000E+00 -0.33166870879E+03  0.33166870879E+03  0.00000000000E+00 0. -1.
          2    1    1    2  502    0 -0.26899741673E+02  0.16995217264E+02  0.40667855282E+03  0.40792141258E+03  0.00000000000E+00 0. -1.
         -2    1    1    2    0  502  0.26899741673E+02 -0.16995217264E+02 -0.33028271024E+03  0.33181184758E+03  0.00000000000E+00 0. -1.
</event>
<event>
 4    1  0.6145708E+003  0.2803980E+02  0.7546771E-02  0.1437434E+00
          2   -1    0    0  501    0  0.00000000000E+00  0.00000000000E+00  0.75408021319E+02  0.75408021319E+02  0.00000000000E+00 0. -1.
         -2   -1    0    0    0  501 -0.00000000000E+00 -0.00000000000E+00 -0.78736818678E+02  0.78736818678E+02  0.00000000000E+00 0. -1.
          2    1    1    2  502    0 -0.26793865304E+02  0.82655545328E+01  0.70123904553E+02  0.75522133176E+02  0.00000000000E+00 0. -1.
         -2    1    1    2    0  502  0.26793865304E+02 -0.82655545328E+01 -0.73452701912E+02  0.78622706821E+02  0.00000000000E+00 0. -1.
</event>
<event>
 4    1  0.6900229E+003  0.2531507E+02  0.7546771E-02  0.1465309E+00
          2   -1    0    0  501    0  0.00000000000E+00  0.00000000000E+00  0.15614631542E+04  0.15614631542E+04  0.00000000000E+00 0. -1.
         -2   -1    0    0    0  501 -0.00000000000E+00 -0.00000000000E+00 -0.71362718512E+02  0.71362718512E+02  0.00000000000E+00 0.  1.
          2    1    1    2  502    0  0.21760649060E+02  0.12935483422E+02  0.15591121107E+04  0.15593176156E+04  0.00000000000E+00 0. -1.
         -2    1    1    2    0  502 -0.21760649060E+02 -0.12935483422E+02 -0.69011675003E+02  0.73508257125E+02  0.00000000000E+00 0.  1.
</event>
<event>
 4    1  0.6145708E+003  0.2080748E+02  0.7546771E-02  0.1522031E+00
          2   -1    0    0  501    0  0.00000000000E+00  0.00000000000E+00  0.42118858267E+01  0.42118858267E+01  0.00000000000E+00 0. -1.
         -2   -1    0    0    0  501 -0.00000000000E+00 -0.00000000000E+00 -0.35546208888E+03  0.35546208888E+03  0.00000000000E+00 0.  1.
          2    1    1    2  502    0 -0.17698267117E+02  0.10941779633E+02 -0.24004340539E+02  0.31767271919E+02  0.00000000000E+00 0. -1.
         -2    1    1    2    0  502  0.17698267117E+02 -0.10941779633E+02 -0.32724586252E+03  0.32790670279E+03  0.00000000000E+00 0.  1.
</event>
<event>
 4    1  0.6145708E+003  0.2106127E+02  0.7546771E-02  0.1518392E+00
          2   -1    0    0  501    0  0.00000000000E+00  0.00000000000E+00  0.44809688019E+02  0.44809688019E+02  0.00000000000E+00 0.  1.
         -2   -1    0    0    0  501 -0.00000000000E+00 -0.00000000000E+00 -0.10764774879E+02  0.10764774879E+02  0.00000000000E+00 0. -1.
          2    1    1    2  502    0  0.10339251630E+02 -0.18348754552E+02  0.24902211952E+02  0.32614369195E+02  0.00000000000E+00 0.  1.
         -2    1    1    2    0  502 -0.10339251630E+02  0.18348754552E+02  0.91427011876E+01  0.22960093703E+02  0.00000000000E+00 0. -1.
</event>
<event>
 4    1  0.6145708E+003  0.2589699E+02  0.7546771E-02  0.1459014E+00
          2   -1    0    0  501    0  0.00000000000E+00  0.00000000000E+00  0.26892610394E+03  0.26892610394E+03  0.00000000000E+00 0. -1.
         -2   -1    0    0    0  501 -0.00000000000E+00 -0.00000000000E+00 -0.18235848894E+03  0.18235848894E+03  0.00000000000E+00 0.  1.
          2    1    1    2  502    0  0.12608066767E+02  0.22620582252E+02  0.26737791982E+03  0.26862912370E+03  0.00000000000E+00 0. -1.
         -2    1    1    2    0  502 -0.12608066767E+02 -0.22620582252E+02 -0.18081030483E+03  0.18265546918E+03  0.00000000000E+00 0.  1.
</event>
<event>
 4    1  0.6145708E+003  0.2326617E+02  0.7546771E-02  0.1489183E+00
          2   -1    0    0  501    0  0.00000000000E+00  0.00000000000E+00  0.28967573396E+03  0.28967573396E+03  0.00000000000E+00 0.  1.
         -2   -1    0    0    0  501 -0.00000000000E+00 -0.00000000000E+00 -0.32884523914E+03  0.32884523914E+03  0.00000000000E+00 0. -1.
          2    1    1    2  502    0  0.11708833575E+02  0.20105164837E+02  0.28879578259E+03  0.28973145925E+03  0.00000000000E+00 0.  1.
         -2    1    1    2    0  502 -0.11708833575E+02 -0.20105164837E+02 -0.32796528777E+03  0.32878951385E+03  0.00000000000E+00 0. -1.
</event>
<event>
 4    1  0.6145708E+003  0.2213491E+02  0.7546771E-02  0.1503657E+00
          2   -1    0    0  501    0  0.00000000000E+00  0.00000000000E+00  0.26587677648E+03  0.26587677648E+03  0.00000000000E+00 0. -1.
         -2   -1    0    0    0  501 -0.00000000000E+00 -0.00000000000E+00 -0.81664393706E+01  0.81664393706E+01  0.00000000000E+00 0.  1.
          2    1    1    2  502    0 -0.24948771625E+01  0.21993854752E+02  0.24943001269E+03  0.25041023400E+03  0.00000000000E+00 0. -1.
         -2    1    1    2    0  502  0.24948771625E+01 -0.21993854752E+02  0.82803244193E+01  0.23632981856E+02  0.00000000000E+00 0.  1.
</event>
<event>
 4    1  0.6145708E+003  0.2918947E+02  0.7546771E-02  0.1426773E+00
          2   -1    0    0  501    0  0.00000000000E+00  0.00000000000E+00  0.12393842346E+04  0.12393842346E+04  0.00000000000E+00 0. -1.
         -2   -1    0    0    0  501 -0.00000000000E+00 -0.00000000000E+00 -0.72071976829E+01  0.72071976829E+01  0.00000000000E+00 0.  1.
          2    1    1    2  502    0 -0.23906928778E+02 -0.16747654655E+02  0.12089128733E+04  0.12092652151E+04  0.00000000000E+00 0. -1.
         -2    1    1    2    0  502  0.23906928778E+02  0.16747654655E+02  0.23264163561E+02  0.37326217143E+02  0.00000000000E+00 0.  1.
</event>
<event>
 4    1  0.6145708E+003  0.2565657E+02  0.7546771E-02  0.1461591E+00
          2   -1    0    0  501    0  0.00000000000E+00  0.00000000000E+00  0.22811784438E+03  0.22811784438E+03  0.00000000000E+00 0.  1.
         -2   -1    0    0    0  501 -0.00000000000E+00 -0.00000000000E+00 -0.14258677695E+02  0.14258677695E+02  0.00000000000E+00 0. -1.
          2    1    1    2  502    0 -0.22369795407E+02  0.12563915463E+02  0.21516258192E+03  0.21668686249E+03  0.00000000000E+00 0.  1.
         -2    1    1    2    0  502  0.22369795407E+02 -0.12563915463E+02 -0.13034152331E+01  0.25689659585E+02  0.00000000000E+00 0. -1.
</event>
<event>
 4    1  0.6145708E+003  0.2421032E+02  0.7546771E-02  0.1477835E+00
          2   -1    0    0  501    0  0.00000000000E+00  0.00000000000E+00  0.12439795312E+04  0.12439795312E+04  0.00000000000E+00 0. -1.
         -2   -1    0    0    0  501 -0.00000000000E+00 -0.00000000000E+00 -0.97286073260E+01  0.97286073260E+01  0.00000000000E+00 0. -1.
          2    1    1    2  502    0 -0.42833232576E+01  0.23828404107E+02  0.12286110716E+04  0.12288495860E+04  0.00000000000E+00 0. -1.
         -2    1    1    2    0  502  0.42833232576E+01 -0.23828404107E+02  0.56398522565E+01  0.24858552530E+02  0.00000000000E+00 0. -1.
</event>
<event>
 4    1  0.6145708E+003  0.3412530E+02  0.7546771E-02  0.1386819E+00
          2   -1    0    0  501    0  0.00000000000E+00  0.00000000000E+00  0.14538741856E+03  0.14538741856E+03  0.00000000000E+00 0. -1.
         -2   -1    0    0    0  501 -0.00000000000E+00 -0.00000000000E+00 -0.13319315616E+02  0.13319315616E+02  0.00000000000E+00 0. -1.
          2    1    1    2  502    0 -0.73740131220E+01  0.33319066359E+02  0.11613528857E+03  0.12104520438E+03  0.00000000000E+00 0. -1.
         -2    1    1    2    0  502  0.73740131220E+01 -0.33319066359E+02  0.15932814374E+02  0.37661529794E+02  0.00000000000E+00 0. -1.
</event>
<event>
 4    1  0.6145708E+003  0.2227354E+02  0.7546771E-02  0.1501828E+00
          2   -1    0    0  501    0  0.00000000000E+00  0.00000000000E+00  0.22982054401E+03  0.22982054401E+03  0.00000000000E+00 0.  1.
         -2   -1    0    0    0  501 -0.00000000000E+00 -0.00000000000E+00 -0.22130686292E+01  0.22130686292E+01  0.00000000000E+00 0. -1.
          2    1    1    2  502    0  0.62976538299E+01  0.21364693014E+02  0.13199030681E+03  0.13385645910E+03  0.00000000000E+00 0.  1.
         -2    1    1    2    0  502 -0.62976538299E+01 -0.21364693014E+02  0.95617168572E+02  0.98177153539E+02  0.00000000000E+00 0. -1.
</event>
<event>
 4    1  0.6145708E+003  0.2124808E+02  0.7546771E-02  0.1515752E+00
          2   -1    0    0  501    0  0.00000000000E+00  0.00000000000E+00  0.69379263427E+03  0.69379263427E+03  0.00000000000E+00 0.  1.
         -2   -1    0    0    0  501 -0.00000000000E+00 -0.00000000000E+00 -0.21735266075E+02  0.21735266075E+02  0.00000000000E+00 0.  1.
          2    1    1    2  502    0 -0.21143961772E+02 -0.21008882168E+01  0.68839629773E+03  0.68872414186E+03  0.00000000000E+00 0.  1.
         -2    1    1    2    0  502  0.21143961772E+02  0.21008882168E+01 -0.16338929534E+02  0.26803758487E+02  0.00000000000E+00 0.  1.
</event>
<event>
 4    1  0.6145708E+003  0.2369629E+02  0.7546771E-02  0.1483935E+00
          2   -1    0    0  501    0  0.00000000000E+00  0.00000000000E+00  0.25511629335E+02  0.25511629335E+02  0.00000000000E+00 0. -1.
         -2   -1    0    0    0  501 -0.00000000000E+00 -0.00000000000E+00 -0.21683832430E+03  0.21683832430E+03  0.00000000000E+00 0.  1.
          2    1    1    2  502    0  0.10151407446E+02 -0.21411746887E+02  0.19197188867E+02  0.30496656182E+02  0.00000000000E+00 0. -1.
         -2    1    1    2    0  502 -0.10151407446E+02  0.21411746887E+02 -0.21052388383E+03  0.21185329745E+03  0.00000000000E+00 0.  1.
</event>
<event>
 4    1  0.6145708E+003  0.2652936E+02  0.7546771E-02  0.1452394E+00
          2   -1    0    0  501    0  0.00000000000E+00  0.00000000000E+00  0.46578103911E+03  0.46578103911E+03  0.00000000000E+00 0. -1.
         -2   -1    0    0    0  501 -0.00000000000E+00 -0.00000000000E+00 -0.17425051771E+02  0.17425051771E+02  0.00000000000E+00 0.  1.
          2    1    1    2  502    0 -0.25233930357E+02  0.81887406762E+01  0.45506814600E+03  0.45584078824E+03  0.00000000000E+00 0. -1.
         -2    1    1    2    0  502  0.25233930357E+02 -0.81887406762E+01 -0.67121586594E+01  0.27365302647E+02  0.00000000000E+00 0.  1.
</event>
<event>
 4    1  0.6145708E+003  0.2510945E+02  0.7546771E-02  0.1467583E+00
          2   -1    0    0  501    0  0.00000000000E+00  0.00000000000E+00  0.65174908700E+02  0.65174908700E+02  0.00000000000E+00 0. -1.
         -2   -1    0    0    0  501 -0.00000000000E+00 -0.00000000000E+00 -0.11554963826E+02  0.11554963826E+02  0.00000000000E+00 0.  1.
          2    1    1    2  502    0  0.17703727605E+02 -0.17806250540E+02  0.42289990724E+02  0.49182596972E+02  0.00000000000E+00 0. -1.
         -2    1    1    2    0  502 -0.17703727605E+02  0.17806250540E+02  0.11329954150E+02  0.27547275554E+02  0.00000000000E+00 0.  1.
</event>
<event>
 4    1  0.6145708E+003  0.2045223E+02  0.7546771E-02  0.1527231E+00
          2   -1    0    0  501    0  0.00000000000E+00  0.00000000000E+00  0.55647986680E+02  0.55647986680E+02  0.00000000000E+00 0. -1.
         -2   -1    0    0    0  501 -0.00000000000E+00 -0.00000000000E+00 -0.17388647197E+02  0.17388647197E+02  0.00000000000E+00 0. -1.
          2    1    1    2  502    0 -0.20227122497E+02  0.30260888934E+01  0.46645175357E+02  0.50931975051E+02  0.00000000000E+00 0. -1.
         -2    1    1    2    0  502  0.20227122497E+02 -0.30260888934E+01 -0.83858358747E+01  0.22104658826E+02  0.00000000000E+00 0. -1.
</event>
<event>
 4    1  0.6145708E+003  0.2439017E+02  0.7546771E-02  0.1475743E+00
          2   -1    0    0  501    0  0.00000000000E+00  0.00000000000E+00  0.17133309618E+03  0.17133309618E+03  0.00000000000E+00 0. -1.
         -2   -1    0    0    0  501 -0.00000000000E+00 -0.00000000000E+00 -0.53470846955E+03  0.53470846955E+03  0.00000000000E+00 0.  1.
          2    1    1    2  502    0  0.16313961217E+02 -0.18131047939E+02  0.17018507944E+03  0.17192394101E+03  0.00000000000E+00 0. -1.
         -2    1    1    2    0  502 -0.16313961217E+02  0.18131047939E+02 -0.53356045281E+03  0.53411762472E+03  0.00000000000E+00 0.  1.
</event>
<event>
 4    1  0.6145708E+003  0.2082937E+02  0.7546771E-02  0.1521715E+00
          2   -1    0    0  501    0  0.00000000000E+00  0.00000000000E+00  0.10085125479E+04  0.10085125479E+04  0.00000000000E+00 0.  1.
         -2   -1    0    0    0  501 -0.00000000000E+00 -0.00000000000E+00 -0.26807374317E+01  0.26807374317E+01  0.00000000000E+00 0.  1.
          2    1    1    2  502    0 -0.11838470385E+02 -0.17138065767E+02  0.96617089616E+03  0.96639539696E+03  0.00000000000E+00 0.  1.
         -2    1    1    2    0  502  0.11838470385E+02  0.17138065767E+02  0.39660914359E+02  0.44797888423E+02  0.00000000000E+00 0.  1.
</event>
<event>
 4    1  0.6145708E+003  0.2427041E+02  0.7546771E-02  0.1477133E+00
          2   -1    0    0  501    0  0.00000000000E+00  0.00000000000E+00  0.18705625439E+04  0.18705625439E+04  0.00000000000E+00 0.  1.
         -2   -1    0    0    0  501 -0.00000000000E+00 -0.00000000000E+00 -0.19745448580E+01  0.19745448580E+01  0.00000000000E+00 0. -1.
          2    1    1    2  502    0  0.81970357305E+01  0.22844284021E+02  0.17926622276E+04  0.17928265155E+04  0.00000000000E+00 0.  1.
         -2    1    1    2    0  502 -0.81970357305E+01 -0.22844284021E+02  0.75925771453E+02  0.79710573188E+02  0.00000000000E+00 0. -1.
</event>
<event>
 4    1  0.6145708E+003  0.2008089E+02  0.7546771E-02  0.1532803E+00
          2   -1    0    0  501    0  0.00000000000E+00  0.00000000000E+00  0.72780934112E+03  0.72780934112E+03  0.00000000000E+00 0.  1.
         -2   -1    0    0    0  501 -0.00000000000E+00 -0.00000000000E+00 -0.10965484953E+03  0.10965484953E+03  0.00000000000E+00 0. -1.
          2    1    1    2  502    0 -0.17120727372E+02 -0.10493935934E+02  0.72675014552E+03  0.72702752080E+03  0.00000000000E+00 0.  1.
         -2    1    1    2    0  502  0.17120727372E+02  0.10493935934E+02 -0.10859565392E+03  0.11043666985E+03  0.00000000000E+00 0. -1.
</event>
<event>
 4    1  0.6145708E+003  0.2353900E+02  0.7546771E-02  0.1485839E+00
          2   -1    0    0  501    0  0.00000000000E+00  0.00000000000E+00  0.34827045160E+03  0.34827045160E+03  0.00000000000E+00 0. -1.
         -2   -1    0    0    0  501 -0.00000000000E+00 -0.00000000000E+00 -0.94456410840E+01  0.94456410840E+01  0.00000000000E+00 0. -1.
          2    1    1    2  502    0  0.22457910970E+02 -0.70517184456E+01  0.33251355787E+03  0.33334569244E+03  0.00000000000E+00 0. -1.
         -2    1    1    2    0  502 -0.22457910970E+02  0.70517184456E+01  0.63112526431E+01  0.24370400245E+02  0.00000000000E+00 0. -1.
</event>
<event>
 4    1  0.6145708E+003  0.3335505E+02  0.7546771E-02  0.1392512E+00
          2   -1    0    0  501    0  0.00000000000E+00  0.00000000000E+00  0.24519140332E+03  0.24519140332E+03  0.00000000000E+00 0. -1.
         -2   -1    0    0    0  501 -0.00000000000E+00 -0.00000000000E+00 -0.49368833254E+01  0.49368833254E+01  0.00000000000E+00 0. -1.
          2    1    1    2  502    0 -0.45462135100E+01 -0.33043758842E+02  0.84556203017E+02  0.90897247066E+02  0.00000000000E+00 0. -1.
         -2    1    1    2    0  502  0.45462135100E+01  0.33043758842E+02  0.15569831698E+03  0.15923103958E+03  0.00000000000E+00 0. -1.
</event>
<event>
 4    1  0.6145708E+003  0.2706087E+02  0.7546771E-02  0.1446998E+00
          2   -1    0    0  501    0  0.00000000000E+00  0.00000000000E+00  0.67547469784E+02  0.67547469784E+02  0.00000000000E+00 0. -1.
         -2   -1    0    0    0  501 -0.00000000000E+00 -0.00000000000E+00 -0.66804897498E+02  0.66804897498E+02  0.00000000000E+00 0. -1.
          2    1    1    2  502    0 -0.13173547202E+02  0.23637854675E+02  0.61855648042E+02  0.67516010799E+02  0.00000000000E+00 0. -1.
         -2    1    1    2    0  502  0.13173547202E+02 -0.23637854675E+02 -0.61113075756E+02  0.66836356483E+02  0.00000000000E+00 0. -1.
</event>
<event>
 4    1  0.6145708E+003  0.2725516E+02  0.7546771E-02  0.1445062E+00
          2   -1    0    0  501    0  0.00000000000E+00  0.00000000000E+00  0.16241628073E+04  0.16241628073E+04  0.00000000000E+00 0.  1.
         -2   -1    0    0    0  501 -0.00000000000E+00 -0.00000000000E+00 -0.22300593614E+01  0.22300593614E+01  0.00000000000E+00 0.  1.
          2    1    1    2  502    0  0.24358283785E+02  0.12227749430E+02  0.15359922967E+04  0.15362340900E+04  0.00000000000E+00 0.  1.
         -2    1    1    2    0  502 -0.24358283785E+02 -0.12227749430E+02  0.85940451272E+02  0.90158776666E+02  0.00000000000E+00 0.  1.
</event>
<event>
 4    1  0.6145708E+003  0.2954141E+02  0.7546771E-02  0.1423624E+00
          2   -1    0    0  501    0  0.00000000000E+00  0.00000000000E+00  0.59192318933E+03  0.59192318933E+03  0.00000000000E+00 0. -1.
         -2   -1    0    0    0  501 -0.00000000000E+00 -0.00000000000E+00 -0.32028361933E+03  0.32028361933E+03  0.00000000000E+00 0.  1.
          2    1    1    2  502    0 -0.29515242337E+02 -0.12432467928E+01  0.59087220443E+03  0.59161022402E+03  0.00000000000E+00 0. -1.
         -2    1    1    2    0  502  0.29515242337E+02  0.12432467928E+01 -0.31923263444E+03  0.32059658464E+03  0.00000000000E+00 0.  1.
</event>
<event>
 4    1  0.6145708E+003  0.3934501E+02  0.7546771E-02  0.1352367E+00
          2   -1    0    0  501    0  0.00000000000E+00  0.00000000000E+00  0.50517061663E+03  0.50517061663E+03  0.00000000000E+00 0. -1.
         -2   -1    0    0    0  501 -0.00000000000E+00 -0.00000000000E+00 -0.73638575207E+02  0.73638575207E+02  0.00000000000E+00 0.  1.
          2    1    1    2  502    0  0.22816931415E+02  0.32053353808E+02  0.49908504152E+03  0.50063350718E+03  0.00000000000E+00 0. -1.
         -2    1    1    2    0  502 -0.22816931415E+02 -0.32053353808E+02 -0.67553000093E+02  0.78175684654E+02  0.00000000000E+00 0.  1.
</event>
<event>
 4    1  0.6145708E+003  0.3213291E+02  0.7546771E-02  0.1401924E+00
          2   -1    0    0  501    0  0.00000000000E+00  0.00000000000E+00  0.35483777905E+03  0.35483777905E+03  0.00000000000E+00 0. -1.
         -2   -1    0    0    0  501 -0.00000000000E+00 -0.00000000000E+00 -0.15912276743E+02  0.15912276743E+02  0.00000000000E+00 0.  1.
          2    1    1    2  502    0  0.28372475756E+02 -0.15083984910E+02  0.33703315252E+03  0.33856147135E+03  0.00000000000E+00 0. -1.
         -2    1    1    2    0  502 -0.28372475756E+02  0.15083984910E+02  0.18923497908E+01  0.32188584452E+02  0.00000000000E+00 0.  1.
</event>
<event>
 4    1  0.6145708E+003  0.2403955E+02  0.7546771E-02  0.1479841E+00
          2   -1    0    0  501    0  0.00000000000E+00  0.00000000000E+00  0.18008937395E+03  0.18008937395E+03  0.00000000000E+00 0.  1.
         -2   -1    0    0    0  501 -0.00000000000E+00 -0.00000000000E+00 -0.14664780234E+02  0.14664780234E+02  0.00000000000E+00 0.  1.
          2    1    1    2  502    0  0.11104059773E+02 -0.21321346151E+02  0.16877837497E+03  0.17048178731E+03  0.00000000000E+00 0.  1.
         -2    1    1    2    0  502 -0.11104059773E+02  0.21321346151E+02 -0.33537812563E+01  0.24272366878E+02  0.00000000000E+00 0.  1.
</event>
<event>
 4    1  0.6145708E+003  0.3415838E+02  0.7546771E-02  0.1386579E+00
          2   -1    0    0  501    0  0.00000000000E+00  0.00000000000E+00  0.49986476249E+03  0.49986476249E+03  0.00000000000E+00 0. -1.
         -2   -1    0    0    0  501 -0.00000000000E+00 -0.00000000000E+00 -0.89084211062E+02  0.89084211062E+02  0.00000000000E+00 0.  1.
          2    1    1    2  502    0  0.44207014469E+01  0.33871108723E+02  0.49598118400E+03  0.49715604138E+03  0.00000000000E+00 0. -1.
         -2    1    1    2    0  502 -0.44207014469E+01 -0.33871108723E+02 -0.85200632563E+02  0.91792932171E+02  0.00000000000E+00 0.  1.
</event>
<event>
 4    1  0.6145708E+003  0.2391380E+02  0.7546771E-02  0.1481332E+00
          2   -1    0    0  501    0  0.00000000000E+00  0.00000000000E+00  0.34782852074E+02  0.34782852074E+02  0.00000000000E+00 0. -1.
         -2   -1    0    0    0  501 -0.00000000000E+00 -0.00000000000E+00 -0.30748295137E+02  0.30748295137E+02  0.00000000000E+00 0.  1.
          2    1    1    2  502    0 -0.21891204429E+02 -0.96252333201E+01  0.24367601660E+02  0.34141616225E+02  0.00000000000E+00 0. -1.
         -2    1    1    2    0  502  0.21891204429E+02  0.96252333201E+01 -0.20333044723E+02  0.31389530986E+02  0.00000000000E+00 0.  1.
</event>
<event>
 4    1  0.6145708E+003  0.2788873E+02  0.7546771E-02  0.1438879E+00
          2   -1    0    0  501    0  0.00000000000E+00  0.00000000000E+00  0.19788980462E+03  0.19788980462E+03  0.00000000000E+00 0. -1.
         -2   -1    0    0    0  501 -0.00000000000E+00 -0.00000000000E+00 -0.49827933701E+01  0.49827933701E+01  0.00000000000E+00 0. -1.
          2    1    1    2  502    0 -0.26325916457E+02 -0.92047496365E+01  0.14307122330E+03  0.14576404299E+03  0.00000000000E+00 0. -1.
         -2    1    1    2    0  502  0.26325916457E+02  0.92047496365E+01  0.49835787946E+02  0.57108554993E+02  0.00000000000E+00 0. -1.
</event>
<event>
 4    1  0.6145708E+003  0.6656475E+02  0.7546771E-02  0.1239023E+00
          2   -1    0    0  501    0  0.00000000000E+00  0.00000000000E+00  0.15542873686E+04  0.15542873686E+04  0.00000000000E+00 0.  1.
         -2   -1    0    0    0  501 -0.00000000000E+00 -0.00000000000E+00 -0.71537572124E+01  0.71537572124E+01  0.00000000000E+00 0.  1.
          2    1    1    2  502    0 -0.38808865458E+02  0.54080851365E+02  0.13790681999E+04  0.13806737364E+04  0.00000000000E+00 0.  1.
         -2    1    1    2    0  502  0.38808865458E+02 -0.54080851365E+02  0.16806541152E+03  0.18076738941E+03  0.00000000000E+00 0.  1.
</event>
<event>
 4    1  0.6145708E+003  0.2903927E+02  0.7546771E-02  0.1428133E+00
          2   -1    0    0  501    0  0.00000000000E+00  0.00000000000E+00  0.85599555570E+03  0.85599555570E+03  0.00000000000E+00 0.  1.
         -2   -1    0    0    0  501 -0.00000000000E+00 -0.00000000000E+00 -0.18419944756E+01  0.18419944756E+01  0.00000000000E+00 0. -1.
          2    1    1    2  502    0 -0.12147541049E+02 -0.26376440070E+02  0.71961544933E+03  0.72020113459E+03  0.00000000000E+00 0.  1.
         -2    1    1    2    0  502  0.12147541049E+02  0.26376440070E+02  0.13453811189E+03  0.13763641559E+03  0.00000000000E+00 0. -1.
</event>
<event>
 4    1  0.6145708E+003  0.2269929E+02  0.7546771E-02  0.1496309E+00
          2   -1    0    0  501    0  0.00000000000E+00  0.00000000000E+00  0.10867863581E+03  0.10867863581E+03  0.00000000000E+00 0.  1.
         -2   -1    0    0    0  501 -0.00000000000E+00 -0.00000000000E+00 -0.19518089865E+02  0.19518089865E+02  0.00000000000E+00 0. -1.
          2    1    1    2  502    0 -0.94924466397E+01 -0.20619196460E+02  0.10035289495E+03  0.10288810101E+03  0.00000000000E+00 0.  1.
         -2    1    1    2    0  502  0.94924466397E+01  0.20619196460E+02 -0.11192349006E+02  0.25308624659E+02  0.00000000000E+00 0. -1.
</event>
<event>
 4    1  0.6145708E+003  0.2864661E+02  0.7546771E-02  0.1431734E+00
          2   -1    0    0  501    0  0.00000000000E+00  0.00000000000E+00  0.96861358958E+02  0.96861358958E+02  0.00000000000E+00 0. -1.
         -2   -1    0    0    0  501 -0.00000000000E+00 -0.00000000000E+00 -0.33334619576E+03  0.33334619576E+03  0.00000000000E+00 0. -1.
          2    1    1    2  502    0 -0.28545824814E+02  0.24008414569E+01  0.94110270631E+02  0.98373630574E+02  0.00000000000E+00 0. -1.
         -2    1    1    2    0  502  0.28545824814E+02 -0.24008414569E+01 -0.33059510744E+03  0.33183392415E+03  0.00000000000E+00 0. -1.
</event>
<event>
 4    1  0.6145708E+003  0.2768306E+02  0.7546771E-02  0.1440865E+00
          2   -1    0    0  501    0  0.00000000000E+00  0.00000000000E+00  0.28746864007E+03  0.28746864007E+03  0.00000000000E+00 0.  1.
         -2   -1    0    0    0  501 -0.00000000000E+00 -0.00000000000E+00 -0.20470829707E+02  0.20470829707E+02  0.00000000000E+00 0. -1.
          2    1    1    2  502    0  0.21525968407E+01  0.27599244374E+02  0.27709354356E+03  0.27847294993E+03  0.00000000000E+00 0.  1.
         -2    1    1    2    0  502 -0.21525968407E+01 -0.27599244374E+02 -0.10095733192E+02  0.29466519847E+02  0.00000000000E+00 0. -1.
</event>
<event>
 4    1  0.6145708E+003  0.2086616E+02  0.7546771E-02  0.1521184E+00
          2   -1    0    0  501    0  0.00000000000E+00  0.00000000000E+00  0.56444471294E+02  0.56444471294E+02  0.00000000000E+00 0.  1.
         -2   -1    0    0    0  501 -0.00000000000E+00 -0.00000000000E+00 -0.22809330808E+02  0.22809330808E+02  0.00000000000E+00 0. -1.
          2    1    1    2  502    0  0.24939357470E+01  0.20716584915E+02  0.49054913619E+02  0.53308359159E+02  0.00000000000E+00 0.  1.
         -2    1    1    2    0  502 -0.24939357470E+01 -0.20716584915E+02 -0.15419773133E+02  0.25945442943E+02  0.00000000000E+00 0. -1.
</event>
<event>
 4    1  0.6145708E+003  0.2905195E+02  0.7546771E-02  0.1428018E+00
          2   -1    0    0  501    0  0.00000000000E+00  0.00000000000E+00  0.39383185897E+03  0.39383185897E+03  0.00000000000E+00 0. -1.
         -2   -1    0    0    0  501 -0.00000000000E+00 -0.00000000000E+00 -0.21452284592E+01  0.21452284592E+01  0.00000000000E+00 0. -1.
          2    1    1    2  502    0 -0.22110285900E+02  0.18845448085E+02  0.20209980226E+03  0.20417724097E+03  0.00000000000E+00 0. -1.
         -2    1    1    2    0  502  0.22110285900E+02 -0.18845448085E+02  0.18958682825E+03  0.19179984646E+03  0.00000000000E+00 0. -1.
</event>
<event>
 4    1  0.6145708E+003  0.3994002E+02  0.7546771E-02  0.1348838E+00
          2   -1    0    0  501    0  0.00000000000E+00  0.00000000000E+00  0.21981736317E+04  0.21981736317E+04  0.00000000000E+00 0. -1.
         -2   -1    0    0    0  501 -0.00000000000E+00 -0.00000000000E+00 -0.18313949501E+02  0.18313949501E+02  0.00000000000E+00 0.  1.
          2    1    1    2  502    0 -0.28184069978E+02  0.28299535965E+02  0.21759944463E+04  0.21763609618E+04  0.00000000000E+00 0. -1.
         -2    1    1    2    0  502  0.28184069978E+02 -0.28299535965E+02  0.38652358569E+01  0.40126619401E+02  0.00000000000E+00 0.  1.
</event>
<event>
 4    1  0.6478960E+003  0.3159339E+02  0.7546771E-02  0.1406237E+00
          2   -1    0    0  501    0  0.00000000000E+00  0.00000000000E+00  0.20182698819E+04  0.20182698819E+04  0.00000000000E+00 0.  1.
         -2   -1    0    0    0  501 -0.00000000000E+00 -0.00000000000E+00 -0.22715639957E+03  0.22715639957E+03  0.00000000000E+00 0. -1.
          2    1    1    2  502    0 -0.27386941898E+02 -0.15751119180E+02  0.20170470588E+04  0.20172944703E+04  0.00000000000E+00 0.  1.
         -2    1    1    2    0  502  0.27386941898E+02  0.15751119180E+02 -0.22593357644E+03  0.22813181125E+03  0.00000000000E+00 0. -1.
</event>
<event>
 4    1  0.6145708E+003  0.2962976E+02  0.7546771E-02  0.1422841E+00
          2   -1    0    0  501    0  0.00000000000E+00  0.00000000000E+00  0.26767502519E+03  0.26767502519E+03  0.00000000000E+00 0. -1.
         -2   -1    0    0    0  501 -0.00000000000E+00 -0.00000000000E+00 -0.22382011752E+03  0.22382011752E+03  0.00000000000E+00 0.  1.
          2    1    1    2  502    0 -0.29229927623E+02  0.48511925424E+01  0.26586781614E+03  0.26751377235E+03  0.00000000000E+00 0. -1.
         -2    1    1    2    0  502  0.29229927623E+02 -0.48511925424E+01 -0.22201290847E+03  0.22398137036E+03  0.00000000000E+00 0.  1.
</event>
<event>
 4    1  0.6145708E+003  0.2627319E+02  0.7546771E-02  0.1455049E+00
          2   -1    0    0  501    0  0.00000000000E+00  0.00000000000E+00  0.54453431980E+01  0.54453431980E+01  0.00000000000E+00 0. -1.
         -2   -1    0    0    0  501 -0.00000000000E+00 -0.00000000000E+00 -0.16352638817E+03  0.16352638817E+03  0.00000000000E+00 0. -1.
          2    1    1    2  502    0 -0.25904842380E+02 -0.43840296612E+01 -0.38982979830E+02  0.47010140302E+02  0.00000000000E+00 0. -1.
         -2    1    1    2    0  502  0.25904842380E+02  0.43840296612E+01 -0.11909806514E+03  0.12196159106E+03  0.00000000000E+00 0. -1.
</event>
<event>
 4    1  0.6145708E+003  0.3039911E+02  0.7546771E-02  0.1416159E+00
          2   -1    0    0  501    0  0.00000000000E+00  0.00000000000E+00  0.10022017913E+04  0.10022017913E+04  0.00000000000E+00 0. -1.
         -2   -1    0    0    0  501 -0.00000000000E+00 -0.00000000000E+00 -0.40687060168E+01  0.40687060168E+01  0.00000000000E+00 0. -1.
          2    1    1    2  502    0 -0.27207804254E+02  0.13558801432E+02  0.94153209448E+03  0.94202271238E+03  0.00000000000E+00 0. -1.
         -2    1    1    2    0  502  0.27207804254E+02 -0.13558801432E+02  0.56600990771E+02  0.64247784902E+02  0.00000000000E+00 0. -1.
</event>
<event>
 4    1  0.6145708E+003  0.2343552E+02  0.7546771E-02  0.1487101E+00
          2   -1    0    0  501    0  0.00000000000E+00  0.00000000000E+00  0.87392048719E+01  0.87392048719E+01  0.00000000000E+00 0. -1.
         -2   -1    0    0    0  501 -0.00000000000E+00 -0.00000000000E+00 -0.57670981164E+03  0.57670981164E+03  0.00000000000E+00 0. -1.
          2    1    1    2  502    0 -0.42777029876E+01  0.23041804174E+02 -0.76703041571E+01  0.24658812792E+02  0.00000000000E+00 0. -1.
         -2    1    1    2    0  502  0.42777029876E+01 -0.23041804174E+02 -0.56030030261E+03  0.56079020372E+03  0.00000000000E+00 0. -1.
</event>
<event>
 4    1  0.6145708E+003  0.5493570E+02  0.7546771E-02  0.1278083E+00
          2   -1    0    0  501    0  0.00000000000E+00  0.00000000000E+00  0.35398846322E+04  0.35398846322E+04  0.00000000000E+00 0.  1.
         -2   -1    0    0    0  501 -0.00000000000E+00 -0.00000000000E+00 -0.61563791876E+01  0.61563791876E+01  0.00000000000E+00 0.  1.
          2    1    1    2  502    0  0.43214583911E+01 -0.54765462214E+02  0.34125457388E+04  0.34129878919E+04  0.00000000000E+00 0.  1.
         -2    1    1    2    0  502 -0.43214583911E+01  0.54765462214E+02  0.12118251420E+03  0.13305311947E+03  0.00000000000E+00 0.  1.
</event>
<event>
 4    1  0.6145708E+003  0.2319316E+02  0.7546771E-02  0.1490087E+00
          2   -1    0    0  501    0  0.00000000000E+00  0.00000000000E+00  0.98252447802E+03  0.98252447802E+03  0.00000000000E+00 0.  1.
         -2   -1    0    0    0  501 -0.00000000000E+00 -0.00000000000E+00 -0.93515647952E+00  0.93515647952E+00  0.00000000000E+00 0.  1.
          2    1    1    2  502    0  0.42164897757E+01  0.22806663589E+02  0.80739641567E+03  0.80772946878E+03  0.00000000000E+00 0.  1.
         -2    1    1    2    0  502 -0.42164897757E+01 -0.22806663589E+02  0.17419290587E+03  0.17573016572E+03  0.00000000000E+00 0.  1.
</event>
<event>
 4    1  0.6145708E+003  0.2583530E+02  0.7546771E-02  0.1459672E+00
          2   -1    0    0  501    0  0.00000000000E+00  0.00000000000E+00  0.65577319565E+03  0.65577319565E+03  0.00000000000E+00 0.  1.
         -2   -1    0    0    0  501 -0.00000000000E+00 -0.00000000000E+00 -0.17329498256E+02  0.17329498256E+02  0.00000000000E+00 0.  1.
          2    1    1    2  502    0  0.24119602331E+02  0.92578306320E+01  0.64574019588E+03  0.64625680903E+03  0.00000000000E+00 0.  1.
         -2    1    1    2    0  502 -0.24119602331E+02 -0.92578306320E+01 -0.72964984852E+01  0.26845884876E+02  0.00000000000E+00 0.  1.
</event>
<event>
 4    1  0.6145708E+003  0.2002306E+02  0.7546771E-02  0.1533683E+00
          2   -1    0    0  501    0  0.00000000000E+00  0.00000000000E+00  0.85486523300E+03  0.85486523300E+03  0.00000000000E+00 0.  1.
         -2   -1    0    0    0  501 -0.00000000000E+00 -0.00000000000E+00 -0.40987379641E+01  0.40987379641E+01  0.00000000000E+00 0.  1.
          2    1    1    2  502    0  0.11895629791E+02  0.16106429521E+02  0.82954770784E+03  0.82978932426E+03  0.00000000000E+00 0.  1.
         -2    1    1    2    0  502 -0.11895629791E+02 -0.16106429521E+02  0.21218787198E+02  0.29174646703E+02  0.00000000000E+00 0.  1.
</event>
<event>
 4    1  0.6145708E+003  0.2083280E+02  0.7546771E-02  0.1521665E+00
          2   -1    0    0  501    0  0.00000000000E+00  0.00000000000E+00  0.93174435325E+00  0.93174435325E+00  0.00000000000E+00 0. -1.
         -2   -1    0    0    0  501 -0.00000000000E+00 -0.00000000000E+00 -0.46882206893E+03  0.46882206893E+03  0.00000000000E+00 0. -1.
          2    1    1    2  502    0 -0.13320894114E+02 -0.16017474277E+02 -0.21508473558E+03  0.21609129826E+03  0.00000000000E+00 0. -1.
         -2    1    1    2    0  502  0.13320894114E+02  0.16017474277E+02 -0.25280558899E+03  0.25366251503E+03  0.00000000000E+00 0. -1.
</event>
<event>
 4    1  0.6145708E+003  0.2035002E+02  0.7546771E-02  0.1528751E+00
          2   -1    0    0  501    0  0.00000000000E+00  0.00000000000E+00  0.13008423186E+03  0.13008423186E+03  0.00000000000E+00 0. -1.
         -2   -1    0    0    0  501 -0.00000000000E+00 -0.00000000000E+00 -0.45932483952E+01  0.45932483952E+01  0.00000000000E+00 0. -1.
          2    1    1    2  502    0 -0.14232158246E+00 -0.20349509497E+02  0.25439700860E+02  0.32577617654E+02  0.00000000000E+00 0. -1.
         -2    1    1    2    0  502  0.14232158246E+00  0.20349509497E+02  0.10005128260E+03  0.10209986260E+03  0.00000000000E+00 0. -1.
</event>
<event>
 4    1  0.6145708E+003  0.3664694E+02  0.7546771E-02  0.1369340E+00
          2   -1    0    0  501    0  0.00000000000E+00  0.00000000000E+00  0.18014578636E+03  0.18014578636E+03  0.00000000000E+00 0.  1.
         -2   -1    0    0    0  501 -0.00000000000E+00 -0.00000000000E+00 -0.24767608004E+02  0.24767608004E+02  0.00000000000E+00 0.  1.
          2    1    1    2  502    0 -0.27688135977E+01 -0.36542190564E+02  0.16334923084E+03  0.16740958526E+03  0.00000000000E+00 0.  1.
         -2    1    1    2    0  502  0.27688135977E+01  0.36542190564E+02 -0.79710524831E+01  0.37503809109E+02  0.00000000000E+00 0.  1.
</event>
<event>
 4    1  0.6145708E+003  0.1081424E+03  0.7546771E-02  0.1150400E+00
          2   -1    0    0  501    0  0.00000000000E+00  0.00000000000E+00  0.56340376400E+03  0.56340376400E+03  0.00000000000E+00 0.  1.
         -2   -1    0    0    0  501 -0.00000000000E+00 -0.00000000000E+00 -0.88563763759E+02  0.88563763759E+02  0.00000000000E+00 0.  1.
          2    1    1    2  502    0  0.19604468016E+02 -0.10635058247E+03  0.52265528884E+03  0.53372589642E+03  0.00000000000E+00 0.  1.
         -2    1    1    2    0  502 -0.19604468016E+02  0.10635058247E+03 -0.47815288596E+02  0.11824163134E+03  0.00000000000E+00 0.  1.
</event>
<event>
 4    1  0.6145708E+003  0.3928332E+02  0.7546771E-02  0.1352737E+00
          2   -1    0    0  501    0  0.00000000000E+00  0.00000000000E+00  0.21093057233E+02  0.21093057233E+02  0.00000000000E+00 0.  1.
         -2   -1    0    0    0  501 -0.00000000000E+00 -0.00000000000E+00 -0.79040014560E+02  0.79040014560E+02  0.00000000000E+00 0.  1.
          2    1    1    2  502    0 -0.20131762320E+02  0.33732644624E+02 -0.15318412672E+02  0.42164356206E+02  0.00000000000E+00 0.  1.
         -2    1    1    2    0  502  0.20131762320E+02 -0.33732644624E+02 -0.42628544655E+02  0.57968715587E+02  0.00000000000E+00 0.  1.
</event>
<event>
 4    1  0.6145708E+003  0.2307336E+02  0.7546771E-02  0.1491579E+00
          2   -1    0    0  501    0  0.00000000000E+00  0.00000000000E+00  0.57325833357E+03  0.57325833357E+03  0.00000000000E+00 0. -1.
         -2   -1    0    0    0  501 -0.00000000000E+00 -0.00000000000E+00 -0.10721245170E+02  0.10721245170E+02  0.00000000000E+00 0. -1.
          2    1    1    2  502    0 -0.17507289545E+02 -0.15029124592E+02  0.56032562422E+03  0.56080048586E+03  0.00000000000E+00 0. -1.
         -2    1    1    2    0  502  0.17507289545E+02  0.15029124592E+02  0.22114641768E+01  0.23179092886E+02  0.00000000000E+00 0. -1.
</event>
<event>
 4    1  0.6145708E+003  0.3075253E+02  0.7546771E-02  0.1413167E+00
          2   -1    0    0  501    0  0.00000000000E+00  0.00000000000E+00  0.79447998520E+03  0.79447998520E+03  0.00000000000E+00 0.  1.
         -2   -1    0    0    0  501 -0.00000000000E+00 -0.00000000000E+00 -0.11980279290E+01  0.11980279290E+01  0.00000000000E+00 0.  1.
          2    1    1    2  502    0 -0.23938972909E+02 -0.19303949898E+02  0.36481195955E+03  0.36610583543E+03  0.00000000000E+00 0.  1.
         -2    1    1    2    0  502  0.23938972909E+02  0.19303949898E+02  0.42846999773E+03  0.42957217771E+03  0.00000000000E+00 0.  1.
</event>
<event>
 4    1  0.6145708E+003  0.2896550E+02  0.7546771E-02  0.1428804E+00
          2   -1    0    0  501    0  0.00000000000E+00  0.00000000000E+00  0.20672911585E+03  0.20672911585E+03  0.00000000000E+00 0. -1.
         -2   -1    0    0    0  501 -0.00000000000E+00 -0.00000000000E+00 -0.83672998360E+02  0.83672998360E+02  0.00000000000E+00 0.  1.
          2    1    1    2  502    0 -0.17456421851E+01  0.28912846372E+02  0.20316395265E+03  0.20521839978E+03  0.00000000000E+00 0. -1.
         -2    1    1    2    0  502  0.17456421851E+01 -0.28912846372E+02 -0.80107835154E+02  0.85183714436E+02  0.00000000000E+00 0.  1.
</event>
<event>
 4    1  0.6145708E+003  0.3729225E+02  0.7546771E-02  0.1365128E+00
          2   -1    0    0  501    0  0.00000000000E+00  0.00000000000E+00  0.61510899898E+03  0.61510899898E+03  0.00000000000E+00 0.  1.
         -2   -1    0    0    0  501 -0.00000000000E+00 -0.00000000000E+00 -0.85861220865E+03  0.85861220865E+03  0.00000000000E+00 0.  1.
          2    1    1    2  502    0 -0.68316924905E+00 -0.37285992421E+02  0.61413819943E+03  0.61526940436E+03  0.00000000000E+00 0.  1.
         -2    1    1    2    0  502  0.68316924905E+00  0.37285992421E+02 -0.85764140909E+03  0.85845180327E+03  0.00000000000E+00 0.  1.
</event>
<event>
 4    1  0.6145708E+003  0.2296033E+02  0.7546771E-02  0.1492997E+00
          2   -1    0    0  501    0  0.00000000000E+00  0.00000000000E+00  0.80366841458E+03  0.80366841458E+03  0.00000000000E+00 0.  1.
         -2   -1    0    0    0  501 -0.00000000000E+00 -0.00000000000E+00 -0.94954213757E+00  0.94954213757E+00  0.00000000000E+00 0.  1.
          2    1    1    2  502    0  0.12836591493E+02 -0.19036770407E+02  0.62505904868E+03  0.62548060805E+03  0.00000000000E+00 0.  1.
         -2    1    1    2    0  502 -0.12836591493E+02  0.19036770407E+02  0.17765982376E+03  0.17913734867E+03  0.00000000000E+00 0.  1.
</event>
<event>
 4    1  0.6145708E+003  0.3866629E+02  0.7546771E-02  0.1356484E+00
          2   -1    0    0  501    0  0.00000000000E+00  0.00000000000E+00  0.14845481929E+04  0.14845481929E+04  0.00000000000E+00 0. -1.
         -2   -1    0    0    0  501 -0.00000000000E+00 -0.00000000000E+00 -0.28564734165E+01  0.28564734165E+01  0.00000000000E+00 0. -1.
          2    1    1    2  502    0 -0.20934254916E+01  0.38609577953E+02  0.13392531470E+04  0.13398112082E+04  0.00000000000E+00 0. -1.
         -2    1    1    2    0  502  0.20934254916E+01 -0.38609577953E+02  0.14243857250E+03  0.14759345811E+03  0.00000000000E+00 0. -1.
</event>
<event>
 4    1  0.6145708E+003  0.4991832E+02  0.7546771E-02  0.1298527E+00
          2   -1    0    0  501    0  0.00000000000E+00  0.00000000000E+00  0.55198096565E+02  0.55198096565E+02  0.00000000000E+00 0. -1.
         -2   -1    0    0    0  501 -0.00000000000E+00 -0.00000000000E+00 -0.86858410031E+02  0.86858410031E+02  0.00000000000E+00 0.  1.
          2    1    1    2  502    0  0.29950692282E+02 -0.39934880744E+02  0.33393121334E+02  0.60057799000E+02  0.00000000000E+00 0. -1.
         -2    1    1    2    0  502 -0.29950692282E+02  0.39934880744E+02 -0.65053434800E+02  0.81998707596E+02  0.00000000000E+00 0.  1.
</event>
<event>
 4    1  0.6145708E+003  0.2277617E+02  0.7546771E-02  0.1495328E+00
          2   -1    0    0  501    0  0.00000000000E+00  0.00000000000E+00  0.16648261267E+03  0.16648261267E+03  0.00000000000E+00 0. -1.
         -2   -1    0    0    0  501 -0.00000000000E+00 -0.00000000000E+00 -0.75894351776E+01  0.75894351776E+01  0.00000000000E+00 0.  1.
          2    1    1    2  502    0 -0.21930488217E+02  0.61487878991E+01  0.14626814929E+03  0.14803082585E+03  0.00000000000E+00 0. -1.
         -2    1    1    2    0  502  0.21930488217E+02 -0.61487878991E+01  0.12625028210E+02  0.26041222002E+02  0.00000000000E+00 0.  1.
</event>
<event>
 4    1  0.6145708E+003  0.2283667E+02  0.7546771E-02  0.1494559E+00
          2   -1    0    0  501    0  0.00000000000E+00  0.00000000000E+00  0.64099676863E+03  0.64099676863E+03  0.00000000000E+00 0.  1.
         -2   -1    0    0    0  501 -0.00000000000E+00 -0.00000000000E+00 -0.21929586438E+01  0.21929586438E+01  0.00000000000E+00 0. -1.
          2    1    1    2  502    0 -0.20309143197E+02 -0.10442807124E+02  0.57445631684E+03  0.57491005685E+03  0.00000000000E+00 0.  1.
         -2    1    1    2    0  502  0.20309143197E+02  0.10442807124E+02  0.64347493147E+02  0.68279670417E+02  0.00000000000E+00 0. -1.
</event>
<event>
 4    1  0.6145708E+003  0.2150534E+02  0.7546771E-02  0.1512171E+00
          2   -1    0    0  501    0  0.00000000000E+00  0.00000000000E+00  0.49154274880E+02  0.49154274880E+02  0.00000000000E+00 0.  1.
         -2   -1    0    0    0  501 -0.00000000000E+00 -0.00000000000E+00 -0.14560218137E+02  0.14560218137E+02  0.00000000000E+00 0. -1.
          2    1    1    2  502    0 -0.56462095301E+01 -0.20750903548E+02  0.36246204041E+02  0.42145782559E+02  0.00000000000E+00 0.  1.
         -2    1    1    2    0  502  0.56462095301E+01  0.20750903548E+02 -0.16521472979E+01  0.21568710458E+02  0.00000000000E+00 0. -1.
</event>
<event>
 4    1  0.6145708E+003  0.4104365E+02  0.7546771E-02  0.1342476E+00
          2   -1    0    0  501    0  0.00000000000E+00  0.00000000000E+00  0.10128141749E+03  0.10128141749E+03  0.00000000000E+00 0.  1.
         -2   -1    0    0    0  501 -0.00000000000E+00 -0.00000000000E+00 -0.44141387265E+03  0.44141387265E+03  0.00000000000E+00 0. -1.
          2    1    1    2  502    0 -0.34519750106E+02 -0.22202892109E+02  0.96120076999E+02  0.10451627035E+03  0.00000000000E+00 0.  1.
         -2    1    1    2    0  502  0.34519750106E+02  0.22202892109E+02 -0.43625253216E+03  0.43817901978E+03  0.00000000000E+00 0. -1.
</event>
<event>
 4    1  0.6145708E+003  0.2600238E+02  0.7546771E-02  0.1457895E+00
          2   -1    0    0  501    0  0.00000000000E+00  0.00000000000E+00  0.37094483682E+01  0.37094483682E+01  0.00000000000E+00 0.  1.
         -2   -1    0    0    0  501 -0.00000000000E+00 -0.00000000000E+00 -0.18950219453E+03  0.18950219453E+03  0.00000000000E+00 0.  1.
          2    1    1    2  502    0 -0.16725408785E+02 -0.19909403783E+02 -0.74024675994E+02  0.78458755496E+02  0.00000000000E+00 0.  1.
         -2    1    1    2    0  502  0.16725408785E+02  0.19909403783E+02 -0.11176807017E+03  0.11475288740E+03  0.00000000000E+00 0.  1.
</event>
<event>
 4    1  0.6145708E+003  0.2253833E+02  0.7546771E-02  0.1498378E+00
          2   -1    0    0  501    0  0.00000000000E+00  0.00000000000E+00  0.30998916198E+03  0.30998916198E+03  0.00000000000E+00 0. -1.
         -2   -1    0    0    0  501 -0.00000000000E+00 -0.00000000000E+00 -0.22639289857E+02  0.22639289857E+02  0.00000000000E+00 0. -1.
          2    1    1    2  502    0  0.98020542908E+01  0.20295220313E+02  0.30385698541E+03  0.30469171931E+03  0.00000000000E+00 0. -1.
         -2    1    1    2    0  502 -0.98020542908E+01 -0.20295220313E+02 -0.16507113278E+02  0.27936732533E+02  0.00000000000E+00 0. -1.
</event>
<event>
 4    1  0.6145708E+003  0.2166252E+02  0.7546771E-02  0.1510012E+00
          2   -1    0    0  501    0  0.00000000000E+00  0.00000000000E+00  0.30851964953E+01  0.30851964953E+01  0.00000000000E+00 0. -1.
         -2   -1    0    0    0  501 -0.00000000000E+00 -0.00000000000E+00 -0.19206411502E+03  0.19206411502E+03  0.00000000000E+00 0. -1.
          2    1    1    2  502    0  0.12215407930E+02  0.17889905874E+02 -0.49981518478E+02  0.54474004006E+02  0.00000000000E+00 0. -1.
         -2    1    1    2    0  502 -0.12215407930E+02 -0.17889905874E+02 -0.13899740005E+03  0.14067530751E+03  0.00000000000E+00 0. -1.
</event>
<event>
 4    1  0.6145708E+003  0.2605042E+02  0.7546771E-02  0.1457387E+00
          2   -1    0    0  501    0  0.00000000000E+00  0.00000000000E+00  0.71955621424E+01  0.71955621424E+01  0.00000000000E+00 0. -1.
         -2   -1    0    0    0  501 -0.00000000000E+00 -0.00000000000E+00 -0.94441280497E+02  0.94441280497E+02  0.00000000000E+00 0.  1.
          2    1    1    2  502    0 -0.21998472445E+02 -0.13953160227E+02 -0.45507498650E+02  0.52436207945E+02  0.00000000000E+00 0.  1.
         -2    1    1    2    0  502  0.21998472445E+02  0.13953160227E+02 -0.41738219704E+02  0.49200634694E+02  0.00000000000E+00 0. -1.
</event>
<event>
 4    1  0.6145708E+003  0.2010237E+02  0.7546771E-02  0.1532477E+00
          2   -1    0    0  501    0  0.00000000000E+00  0.00000000000E+00  0.12929964650E+04  0.12929964650E+04  0.00000000000E+00 0.  1.
         -2   -1    0    0    0  501 -0.00000000000E+00 -0.00000000000E+00 -0.36425511635E+00  0.36425511635E+00  0.00000000000E+00 0.  1.
          2    1    1    2  502    0  0.19057588417E+01 -0.20011830543E+02  0.88999675354E+03  0.89022375086E+03  0.00000000000E+00 0.  1.
         -2    1    1    2    0  502 -0.19057588417E+01  0.20011830543E+02  0.40263545635E+03  0.40313696927E+03  0.00000000000E+00 0.  1.
</event>
<event>
 4    1  0.6145708E+003  0.2411127E+02  0.7546771E-02  0.1478996E+00
          2   -1    0    0  501    0  0.00000000000E+00  0.00000000000E+00  0.20671082444E+03  0.20671082444E+03  0.00000000000E+00 0. -1.
         -2   -1    0    0    0  501 -0.00000000000E+00 -0.00000000000E+00 -0.18634953355E+02  0.18634953355E+02  0.00000000000E+00 0. -1.
          2    1    1    2  502    0 -0.20234525848E+02  0.13111729535E+02  0.19786093257E+03  0.19932461495E+03  0.00000000000E+00 0. -1.
         -2    1    1    2    0  502  0.20234525848E+02 -0.13111729535E+02 -0.97850614824E+01  0.26021162847E+02  0.00000000000E+00 0. -1.
</event>
<event>
 4    1  0.6145708E+003  0.2067447E+02  0.7546771E-02  0.1523964E+00
          2   -1    0    0  501    0  0.00000000000E+00  0.00000000000E+00  0.12332904075E+03  0.12332904075E+03  0.00000000000E+00 0.  1.
         -2   -1    0    0    0  501 -0.00000000000E+00 -0.00000000000E+00 -0.16618035919E+03  0.16618035919E+03  0.00000000000E+00 0. -1.
          2    1    1    2  502    0 -0.76578658112E+01 -0.19203929796E+02  0.12181161024E+03  0.12355364106E+03  0.00000000000E+00 0.  1.
         -2    1    1    2    0  502  0.76578658112E+01  0.19203929796E+02 -0.16466292867E+03  0.16595575889E+03  0.00000000000E+00 0. -1.
</event>
<event>
 4    1  0.6145708E+003  0.3790634E+02  0.7546771E-02  0.1361211E+00
          2   -1    0    0  501    0  0.00000000000E+00  0.00000000000E+00  0.19776444272E+04  0.19776444272E+04  0.00000000000E+00 0. -1.
         -2   -1    0    0    0  501 -0.00000000000E+00 -0.00000000000E+00 -0.10847956546E+03  0.10847956546E+03  0.00000000000E+00 0.  1.
          2    1    1    2  502    0  0.37843850318E+02  0.21756660174E+01  0.19741454856E+04  0.19745093792E+04  0.00000000000E+00 0. -1.
         -2    1    1    2    0  502 -0.37843850318E+02 -0.21756660174E+01 -0.10498062387E+03  0.11161461337E+03  0.00000000000E+00 0.  1.
</event>
<event>
 4    1  0.6145708E+003  0.6005294E+02  0.7546771E-02  0.1259653E+00
          2   -1    0    0  501    0  0.00000000000E+00  0.00000000000E+00  0.31007988260E+03  0.31007988260E+03  0.00000000000E+00 0.  1.
         -2   -1    0    0    0  501 -0.00000000000E+00 -0.00000000000E+00 -0.28933844817E+02  0.28933844817E+02  0.00000000000E+00 0. -1.
          2    1    1    2  502    0  0.59912665928E+02  0.41022307253E+01  0.27165723116E+03  0.27821575635E+03  0.00000000000E+00 0.  1.
         -2    1    1    2    0  502 -0.59912665928E+02 -0.41022307253E+01  0.94888066214E+01  0.60797971074E+02  0.00000000000E+00 0. -1.
</event>
<event>
 4    1  0.6145708E+003  0.2826907E+02  0.7546771E-02  0.1435260E+00
          2   -1    0    0  501    0  0.00000000000E+00  0.00000000000E+00  0.23827275035E+03  0.23827275035E+03  0.00000000000E+00 0. -1.
         -2   -1    0    0    0  501 -0.00000000000E+00 -0.00000000000E+00 -0.16229666897E+03  0.16229666897E+03  0.00000000000E+00 0. -1.
          2    1    1    2  502    0 -0.26790730944E+02 -0.90220427606E+01  0.23619248732E+03  0.23787818645E+03  0.00000000000E+00 0. -1.
         -2    1    1    2    0  502  0.26790730944E+02  0.90220427606E+01 -0.16021640595E+03  0.16269123288E+03  0.00000000000E+00 0. -1.
</event>
<event>
 4    1  0.6145708E+003  0.2165085E+02  0.7546771E-02  0.1510172E+00
          2   -1    0    0  501    0  0.00000000000E+00  0.00000000000E+00  0.67018736858E+02  0.67018736858E+02  0.00000000000E+00 0.  1.
         -2   -1    0    0    0  501 -0.00000000000E+00 -0.00000000000E+00 -0.13834233934E+02  0.13834233934E+02  0.00000000000E+00 0.  1.
          2    1    1    2  502    0  0.16423492104E+02  0.14107741819E+02  0.55017841810E+02  0.59124634371E+02  0.00000000000E+00 0.  1.
         -2    1    1    2    0  502 -0.16423492104E+02 -0.14107741819E+02 -0.18333388856E+01  0.21728336420E+02  0.00000000000E+00 0.  1.
</event>
<event>
 4    1  0.6145708E+003  0.2059439E+02  0.7546771E-02  0.1525135E+00
          2   -1    0    0  501    0  0.00000000000E+00  0.00000000000E+00  0.30040634377E+01  0.30040634377E+01  0.00000000000E+00 0.  1.
         -2   -1    0    0    0  501 -0.00000000000E+00 -0.00000000000E+00 -0.21525762624E+03  0.21525762624E+03  0.00000000000E+00 0. -1.
          2    1    1    2  502    0 -0.15172150456E+02  0.13926046713E+02 -0.42109549577E+02  0.46875826308E+02  0.00000000000E+00 0.  1.
         -2    1    1    2    0  502  0.15172150456E+02 -0.13926046713E+02 -0.17014401323E+03  0.17138586337E+03  0.00000000000E+00 0. -1.
</event>
<event>
 4    1  0.6145708E+003  0.3369085E+02  0.7546771E-02  0.1390008E+00
          2   -1    0    0  501    0  0.00000000000E+00  0.00000000000E+00  0.12356211573E+03  0.12356211573E+03  0.00000000000E+00 0. -1.
         -2   -1    0    0    0  501 -0.00000000000E+00 -0.00000000000E+00 -0.21927887816E+03  0.21927887816E+03  0.00000000000E+00 0.  1.
          2    1    1    2  502    0 -0.32069554616E+02 -0.10325549796E+02  0.11993303880E+03  0.12457530698E+03  0.00000000000E+00 0. -1.
         -2    1    1    2    0  502  0.32069554616E+02  0.10325549796E+02 -0.21564980123E+03  0.21826568691E+03  0.00000000000E+00 0.  1.
</event>
<event>
 4    1  0.6145708E+003  0.2767906E+02  0.7546771E-02  0.1440904E+00
          2   -1    0    0  501    0  0.00000000000E+00  0.00000000000E+00  0.46845765086E+03  0.46845765086E+03  0.00000000000E+00 0. -1.
         -2   -1    0    0    0  501 -0.00000000000E+00 -0.00000000000E+00 -0.30880472181E+01  0.30880472181E+01  0.00000000000E+00 0. -1.
          2    1    1    2  502    0 -0.35510624751E+01  0.27450319569E+02  0.39439123344E+03  0.39536132221E+03  0.00000000000E+00 0. -1.
         -2    1    1    2    0  502  0.35510624751E+01 -0.27450319569E+02  0.70978370201E+02  0.76184375862E+02  0.00000000000E+00 0. -1.
</event>
<event>
 4    1  0.6145708E+003  0.2281877E+02  0.7546771E-02  0.1494786E+00
          2   -1    0    0  501    0  0.00000000000E+00  0.00000000000E+00  0.11641665026E+04  0.11641665026E+04  0.00000000000E+00 0. -1.
         -2   -1    0    0    0  501 -0.00000000000E+00 -0.00000000000E+00 -0.27695670460E+01  0.27695670460E+01  0.00000000000E+00 0.  1.
          2    1    1    2  502    0  0.70339249461E+01 -0.21707610023E+02  0.11149798456E+04  0.11152133215E+04  0.00000000000E+00 0. -1.
         -2    1    1    2    0  502 -0.70339249461E+01  0.21707610023E+02  0.46417090010E+02  0.51722748168E+02  0.00000000000E+00 0.  1.
</event>
<event>
 4    1  0.6145708E+003  0.2121299E+02  0.7546771E-02  0.1516246E+00
          2   -1    0    0  501    0  0.00000000000E+00  0.00000000000E+00  0.21033252566E+03  0.21033252566E+03  0.00000000000E+00 0. -1.
         -2   -1    0    0    0  501 -0.00000000000E+00 -0.00000000000E+00 -0.61061793501E+01  0.61061793501E+01  0.00000000000E+00 0.  1.
          2    1    1    2  502    0  0.12204902747E+02  0.17350251267E+02  0.18933752535E+03  0.19052214931E+03  0.00000000000E+00 0. -1.
         -2    1    1    2    0  502 -0.12204902747E+02 -0.17350251267E+02  0.14888820963E+02  0.25916555708E+02  0.00000000000E+00 0.  1.
</event>
<event>
 4    1  0.6145708E+003  0.2007149E+02  0.7546771E-02  0.1532946E+00
          2   -1    0    0  501    0  0.00000000000E+00  0.00000000000E+00  0.20339445238E+03  0.20339445238E+03  0.00000000000E+00 0. -1.
         -2   -1    0    0    0  501 -0.00000000000E+00 -0.00000000000E+00 -0.98608744754E+03  0.98608744754E+03  0.00000000000E+00 0.  1.
          2    1    1    2  502    0 -0.17696569386E+02  0.94707953158E+01  0.20279683861E+03  0.20378768923E+03  0.00000000000E+00 0. -1.
         -2    1    1    2    0  502  0.17696569386E+02 -0.94707953158E+01 -0.98548983376E+03  0.98569421069E+03  0.00000000000E+00 0.  1.
</event>
<event>
 4    1  0.6145708E+003  0.2582957E+02  0.7546771E-02  0.1459733E+00
          2   -1    0    0  501    0  0.00000000000E+00  0.00000000000E+00  0.11577470575E+04  0.11577470575E+04  0.00000000000E+00 0. -1.
         -2   -1    0    0    0  501 -0.00000000000E+00 -0.00000000000E+00 -0.81380352819E+01  0.81380352819E+01  0.00000000000E+00 0.  1.
          2    1    1    2  502    0  0.25733805852E+02 -0.22221742186E+01  0.11367287501E+04  0.11370221714E+04  0.00000000000E+00 0. -1.
         -2    1    1    2    0  502 -0.25733805852E+02  0.22221742186E+01  0.12880272048E+02  0.28862921368E+02  0.00000000000E+00 0.  1.
</event>
<event>
 4    1  0.6145708E+003  0.2517774E+02  0.7546771E-02  0.1466825E+00
          2   -1    0    0  501    0  0.00000000000E+00  0.00000000000E+00  0.27531230526E+03  0.27531230526E+03  0.00000000000E+00 0.  1.
         -2   -1    0    0    0  501 -0.00000000000E+00 -0.00000000000E+00 -0.23154625402E+01  0.23154625402E+01  0.00000000000E+00 0.  1.
          2    1    1    2  502    0  0.38724982480E+01 -0.24878153997E+02  0.14686690167E+03  0.14900941446E+03  0.00000000000E+00 0.  1.
         -2    1    1    2    0  502 -0.38724982480E+01  0.24878153997E+02  0.12612994105E+03  0.12861835335E+03  0.00000000000E+00 0.  1.
</event>
<event>
 4    1  0.6145708E+003  0.3452071E+02  0.7546771E-02  0.1383964E+00
          2   -1    0    0  501    0  0.00000000000E+00  0.00000000000E+00  0.37144922799E+03  0.37144922799E+03  0.00000000000E+00 0. -1.
         -2   -1    0    0    0  501 -0.00000000000E+00 -0.00000000000E+00 -0.18063881486E+02  0.18063881486E+02  0.00000000000E+00 0. -1.
          2    1    1    2  502    0  0.29892139788E+02  0.17266710829E+02  0.35330987357E+03  0.35499231835E+03  0.00000000000E+00 0. -1.
         -2    1    1    2    0  502 -0.29892139788E+02 -0.17266710829E+02  0.75472934403E-01  0.34520791128E+02  0.00000000000E+00 0. -1.
</event>
<event>
 4    1  0.6145708E+003  0.2383459E+02  0.7546771E-02  0.1482276E+00
          2   -1    0    0  501    0  0.00000000000E+00  0.00000000000E+00  0.13814741866E+04  0.13814741866E+04  0.00000000000E+00 0. -1.
         -2   -1    0    0    0  501 -0.00000000000E+00 -0.00000000000E+00 -0.53916408507E+00  0.53916408507E+00  0.00000000000E+00 0. -1.
          2    1    1    2  502    0  0.82892512218E+01 -0.22346719485E+02  0.10270834261E+04  0.10273599427E+04  0.00000000000E+00 0. -1.
         -2    1    1    2    0  502 -0.82892512218E+01  0.22346719485E+02  0.35385159642E+03  0.35465340806E+03  0.00000000000E+00 0. -1.
</event>
<event>
 4    1  0.6145708E+003  0.3773074E+02  0.7546771E-02  0.1362322E+00
          2   -1    0    0  501    0  0.00000000000E+00  0.00000000000E+00  0.52353326483E+02  0.52353326483E+02  0.00000000000E+00 0. -1.
         -2   -1    0    0    0  501 -0.00000000000E+00 -0.00000000000E+00 -0.39008100440E+02  0.39008100440E+02  0.00000000000E+00 0. -1.
          2    1    1    2  502    0  0.25598518261E+02 -0.27718671070E+02  0.31813843142E+02  0.49353110120E+02  0.00000000000E+00 0. -1.
         -2    1    1    2    0  502 -0.25598518261E+02  0.27718671070E+02 -0.18468617099E+02  0.42008316803E+02  0.00000000000E+00 0. -1.
</event>
<event>
 4    1  0.6145708E+003  0.2297085E+02  0.7546771E-02  0.1492865E+00
          2   -1    0    0  501    0  0.00000000000E+00  0.00000000000E+00  0.13572296968E+04  0.13572296968E+04  0.00000000000E+00 0. -1.
         -2   -1    0    0    0  501 -0.00000000000E+00 -0.00000000000E+00 -0.78398635715E+00  0.78398635715E+00  0.00000000000E+00 0.  1.
          2    1    1    2  502    0  0.20593122493E+02 -0.10177587522E+02  0.11603187005E+04  0.11605460554E+04  0.00000000000E+00 0. -1.
         -2    1    1    2    0  502 -0.20593122493E+02  0.10177587522E+02  0.19612700998E+03  0.19746762780E+03  0.00000000000E+00 0.  1.
</event>
<event>
 4    1  0.6145708E+003  0.2558236E+02  0.7546771E-02  0.1462393E+00
          2   -1    0    0  501    0  0.00000000000E+00  0.00000000000E+00  0.13434534621E+03  0.13434534621E+03  0.00000000000E+00 0.  1.
         -2   -1    0    0    0  501 -0.00000000000E+00 -0.00000000000E+00 -0.16786307089E+02  0.16786307089E+02  0.00000000000E+00 0.  1.
          2    1    1    2  502    0  0.12673501615E+02  0.22222504540E+02  0.12244326388E+03  0.12508721046E+03  0.00000000000E+00 0.  1.
         -2    1    1    2    0  502 -0.12673501615E+02 -0.22222504540E+02 -0.48842247597E+01  0.26044442837E+02  0.00000000000E+00 0.  1.
</event>
<event>
 4    1  0.6145708E+003  0.5399717E+02  0.7546771E-02  0.1281714E+00
          2   -1    0    0  501    0  0.00000000000E+00  0.00000000000E+00  0.32947206712E+03  0.32947206712E+03  0.00000000000E+00 0.  1.
         -2   -1    0    0    0  501 -0.00000000000E+00 -0.00000000000E+00 -0.91355706064E+02  0.91355706064E+02  0.00000000000E+00 0. -1.
          2    1    1    2  502    0 -0.53341088494E+02 -0.83918405026E+01  0.31902116722E+03  0.32355864977E+03  0.00000000000E+00 0.  1.
         -2    1    1    2    0  502  0.53341088494E+02  0.83918405026E+01 -0.80904806164E+02  0.97269123411E+02  0.00000000000E+00 0. -1.
</event>
<event>
 4    1  0.6145708E+003  0.2067129E+02  0.7546771E-02  0.1524010E+00
          2   -1    0    0  501    0  0.00000000000E+00  0.00000000000E+00  0.13523640268E+03  0.13523640268E+03  0.00000000000E+00 0.  1.
         -2   -1    0    0    0  501 -0.00000000000E+00 -0.00000000000E+00 -0.13325457286E+03  0.13325457286E+03  0.00000000000E+00 0. -1.
          2    1    1    2  502    0 -0.15729878005E+02 -0.13411680112E+02  0.13363527204E+03  0.13522458415E+03  0.00000000000E+00 0.  1.
         -2    1    1    2    0  502  0.15729878005E+02  0.13411680112E+02 -0.13165344222E+03  0.13326639139E+03  0.00000000000E+00 0. -1.
</event>
<event>
 4    1  0.6145708E+003  0.2495934E+02  0.7546771E-02  0.1469259E+00
          2   -1    0    0  501    0  0.00000000000E+00  0.00000000000E+00  0.11238818069E+04  0.11238818069E+04  0.00000000000E+00 0. -1.
         -2   -1    0    0    0  501 -0.00000000000E+00 -0.00000000000E+00 -0.73153681506E+00  0.73153681506E+00  0.00000000000E+00 0. -1.
          2    1    1    2  502    0 -0.18731104229E+02 -0.16495897175E+02  0.83835264598E+03  0.83872410715E+03  0.00000000000E+00 0. -1.
         -2    1    1    2    0  502  0.18731104229E+02  0.16495897175E+02  0.28479762413E+03  0.28588923660E+03  0.00000000000E+00 0. -1.
</event>
<event>
 4    1  0.6145708E+003  0.2039954E+02  0.7546771E-02  0.1528013E+00
          2   -1    0    0  501    0  0.00000000000E+00  0.00000000000E+00  0.18088976254E+03  0.18088976254E+03  0.00000000000E+00 0. -1.
         -2   -1    0    0    0  501 -0.00000000000E+00 -0.00000000000E+00 -0.12082290305E+03  0.12082290305E+03  0.00000000000E+00 0.  1.
          2    1    1    2  502    0  0.12336609572E+02 -0.16246515491E+02  0.17944667319E+03  0.18060246321E+03  0.00000000000E+00 0. -1.
         -2    1    1    2    0  502 -0.12336609572E+02  0.16246515491E+02 -0.11937981369E+03  0.12111020237E+03  0.00000000000E+00 0.  1.
</event>
<event>
 4    1  0.6145708E+003  0.2760523E+02  0.7546771E-02  0.1441621E+00
          2   -1    0    0  501    0  0.00000000000E+00  0.00000000000E+00  0.97370594445E+02  0.97370594445E+02  0.00000000000E+00 0. -1.
         -2   -1    0    0    0  501 -0.00000000000E+00 -0.00000000000E+00 -0.97398279870E+02  0.97398279870E+02  0.00000000000E+00 0. -1.
          2    1    1    2  502    0  0.21557423723E+02  0.17243155086E+02  0.93376090739E+02  0.97371162243E+02  0.00000000000E+00 0. -1.
         -2    1    1    2    0  502 -0.21557423723E+02 -0.17243155086E+02 -0.93403776165E+02  0.97397712071E+02  0.00000000000E+00 0. -1.
</event>
<event>
 4    1  0.6145708E+003  0.2203515E+02  0.7546771E-02  0.1504983E+00
          2   -1    0    0  501    0  0.00000000000E+00  0.00000000000E+00  0.15164980751E+03  0.15164980751E+03  0.00000000000E+00 0. -1.
         -2   -1    0    0    0  501 -0.00000000000E+00 -0.00000000000E+00 -0.22330179013E+02  0.22330179013E+02  0.00000000000E+00 0. -1.
          2    1    1    2  502    0 -0.10869155739E+02  0.19167925613E+02  0.14517218427E+03  0.14683497881E+03  0.00000000000E+00 0. -1.
         -2    1    1    2    0  502  0.10869155739E+02 -0.19167925613E+02 -0.15852555773E+02  0.27145007706E+02  0.00000000000E+00 0. -1.
</event>
<event>
 4    1  0.6145708E+003  0.2592163E+02  0.7546771E-02  0.1458752E+00
          2   -1    0    0  501    0  0.00000000000E+00  0.00000000000E+00  0.16495910244E+04  0.16495910244E+04  0.00000000000E+00 0.  1.
         -2   -1    0    0    0  501 -0.00000000000E+00 -0.00000000000E+00 -0.12901050668E+02  0.12901050668E+02  0.00000000000E+00 0.  1.
          2    1    1    2  502    0 -0.18370638384E+02 -0.18287987467E+02  0.16363630858E+04  0.16365683852E+04  0.00000000000E+00 0.  1.
         -2    1    1    2    0  502  0.18370638384E+02  0.18287987467E+02  0.32688791603E+00  0.25923689860E+02  0.00000000000E+00 0.  1.
</event>
<event>
 4    1  0.6145708E+003  0.1140910E+03  0.7546771E-02  0.1141406E+00
          2   -1    0    0  501    0  0.00000000000E+00  0.00000000000E+00  0.78211813210E+03  0.78211813210E+03  0.00000000000E+00 0.  1.
         -2   -1    0    0    0  501 -0.00000000000E+00 -0.00000000000E+00 -0.47422257538E+02  0.47422257538E+02  0.00000000000E+00 0. -1.
          2    1    1    2  502    0 -0.38078855764E+01 -0.11402743482E+03  0.70150129117E+03  0.71071852191E+03  0.00000000000E+00 0.  1.
         -2    1    1    2    0  502  0.38078855764E+01  0.11402743482E+03  0.33194583399E+02  0.11882186773E+03  0.00000000000E+00 0. -1.
</event>
<event>
 4    1  0.6145708E+003  0.3122101E+02  0.7546771E-02  0.1409274E+00
          2   -1    0    0  501    0  0.00000000000E+00  0.00000000000E+00  0.86956681417E+03  0.86956681417E+03  0.00000000000E+00 0.  1.
         -2   -1    0    0    0  501 -0.00000000000E+00 -0.00000000000E+00 -0.20300680599E+01  0.20300680599E+01  0.00000000000E+00 0. -1.
          2    1    1    2  502    0  0.23212596113E+02  0.20878868337E+02  0.72540195903E+03  0.72607351826E+03  0.00000000000E+00 0.  1.
         -2    1    1    2    0  502 -0.23212596113E+02 -0.20878868337E+02  0.14213478708E+03  0.14552336396E+03  0.00000000000E+00 0. -1.
</event>
<event>
 4    1  0.6145708E+003  0.2475151E+02  0.7546771E-02  0.1471603E+00
          2   -1    0    0  501    0  0.00000000000E+00  0.00000000000E+00  0.13716248532E+04  0.13716248532E+04  0.00000000000E+00 0.  1.
         -2   -1    0    0    0  501 -0.00000000000E+00 -0.00000000000E+00 -0.28731679836E+02  0.28731679836E+02  0.00000000000E+00 0.  1.
          2    1    1    2  502    0  0.46569104530E+01 -0.24309471903E+02  0.13661611962E+04  0.13663853963E+04  0.00000000000E+00 0.  1.
         -2    1    1    2    0  502 -0.46569104530E+01  0.24309471903E+02 -0.23268022877E+02  0.33971136687E+02  0.00000000000E+00 0.  1.
</event>
<event>
 4    1  0.6145708E+003  0.2024781E+02  0.7546771E-02  0.1530281E+00
          2   -1    0    0  501    0  0.00000000000E+00  0.00000000000E+00  0.49860561283E+03  0.49860561283E+03  0.00000000000E+00 0.  1.
         -2   -1    0    0    0  501 -0.00000000000E+00 -0.00000000000E+00 -0.10714688786E+01  0.10714688786E+01  0.00000000000E+00 0. -1.
          2    1    1    2  502    0 -0.17382696444E+02 -0.10383423662E+02  0.36926194965E+03  0.36981665874E+03  0.00000000000E+00 0.  1.
         -2    1    1    2    0  502  0.17382696444E+02  0.10383423662E+02  0.12827219430E+03  0.12986042297E+03  0.00000000000E+00 0. -1.
</event>
<event>
 4    1  0.6145708E+003  0.2754912E+02  0.7546771E-02  0.1442169E+00
          2   -1    0    0  501    0  0.00000000000E+00  0.00000000000E+00  0.37690006638E+01  0.37690006638E+01  0.00000000000E+00 0.  1.
         -2   -1    0    0    0  501 -0.00000000000E+00 -0.00000000000E+00 -0.21876426850E+03  0.21876426850E+03  0.00000000000E+00 0. -1.
          2    1    1    2  502    0 -0.22359710626E+01 -0.27458212220E+02 -0.13887490795E+03  0.14158104761E+03  0.00000000000E+00 0.  1.
         -2    1    1    2    0  502  0.22359710626E+01  0.27458212220E+02 -0.76120359889E+02  0.80952221554E+02  0.00000000000E+00 0. -1.
</event>
<event>
 4    1  0.6145708E+003  0.4835546E+02  0.7546771E-02  0.1305464E+00
          2   -1    0    0  501    0  0.00000000000E+00  0.00000000000E+00  0.27887857554E+04  0.27887857554E+04  0.00000000000E+00 0.  1.
         -2   -1    0    0    0  501 -0.00000000000E+00 -0.00000000000E+00 -0.13485327608E+03  0.13485327608E+03  0.00000000000E+00 0.  1.
          2    1    1    2  502    0 -0.14345702586E+02  0.46178472077E+02  0.27842342531E+04  0.27846541305E+04  0.00000000000E+00 0.  1.
         -2    1    1    2    0  502  0.14345702586E+02 -0.46178472077E+02 -0.13030177374E+03  0.13898490100E+03  0.00000000000E+00 0.  1.
</event>
<event>
 4    1  0.6145708E+003  0.2910282E+02  0.7546771E-02  0.1427556E+00
          2   -1    0    0  501    0  0.00000000000E+00  0.00000000000E+00  0.13869405289E+04  0.13869405289E+04  0.00000000000E+00 0. -1.
         -2   -1    0    0    0  501 -0.00000000000E+00 -0.00000000000E+00 -0.61071544287E+00  0.61071544287E+00  0.00000000000E+00 0. -1.
          2    1    1    2  502    0 -0.22940622430E+02 -0.17908137350E+02  0.68770508296E+03  0.68832060457E+03  0.00000000000E+00 0. -1.
         -2    1    1    2    0  502  0.22940622430E+02  0.17908137350E+02  0.69862473050E+03  0.69923063978E+03  0.00000000000E+00 0. -1.
</event>
<event>
 4    1  0.6145708E+003  0.2049782E+02  0.7546771E-02  0.1526557E+00
          2   -1    0    0  501    0  0.00000000000E+00  0.00000000000E+00  0.62618144865E+02  0.62618144865E+02  0.00000000000E+00 0. -1.
         -2   -1    0    0    0  501 -0.00000000000E+00 -0.00000000000E+00 -0.16650356397E+02  0.16650356397E+02  0.00000000000E+00 0. -1.
          2    1    1    2  502    0 -0.18113834469E+02 -0.95942525212E+01  0.53607923362E+02  0.57393119167E+02  0.00000000000E+00 0. -1.
         -2    1    1    2    0  502  0.18113834469E+02  0.95942525212E+01 -0.76401348931E+01  0.21875382095E+02  0.00000000000E+00 0. -1.
</event>
