<event>
 4    1  0.5953944E+003  0.6257379E+02  0.7546771E-02  0.1251330E+00
          2   -1    0    0  501    0  0.00000000000E+00  0.00000000000E+00  0.11102721346E+04  0.11102721346E+04  0.00000000000E+00 0. -1.
         -2   -1    0    0    0  501 -0.00000000000E+00 -0.00000000000E+00 -0.64428269021E+02  0.64428269021E+02  0.00000000000E+00 0.  1.
          2    1    1    2  502    0 -0.59197866834E+02 -0.20275386515E+02  0.10939711103E+04  0.10957592204E+04  0.00000000000E+00 0. -1.
         -2    1    1    2    0  502  0.59197866834E+02  0.20275386515E+02 -0.48127244726E+02  0.78941183301E+02  0.00000000000E+00 0.  1.
</event>
<event>
 4    1  0.5953944E+003  0.4323565E+02  0.7546771E-02  0.1330501E+00
          2   -1    0    0  501    0  0.00000000000E+00  0.00000000000E+00  0.58365242854E+03  0.58365242854E+03  0.00000000000E+00 0. -1.
         -2   -1    0    0    0  501 -0.00000000000E+00 -0.00000000000E+00 -0.20776689127E+02  0.20776689127E+02  0.00000000000E+00 0. -1.
          2    1    1    2  502    0  0.17077809863E+02  0.39719893283E+02  0.55938433965E+03  0.56105272565E+03  0.00000000000E+00 0. -1.
         -2    1    1    2    0  502 -0.17077809863E+02 -0.39719893283E+02  0.34913997625E+01  0.43376392017E+02  0.00000000000E+00 0. -1.
</event>
<event>
 4    1  0.5953944E+003  0.3532805E+02  0.7546771E-02  0.1378271E+00
          2   -1    0    0  501    0  0.00000000000E+00  0.00000000000E+00  0.26950394422E+03  0.26950394422E+03  0.00000000000E+00 0. -1.
         -2   -1    0    0    0  501 -0.00000000000E+00 -0.00000000000E+00 -0.20759280442E+02  0.20759280442E+02  0.00000000000E+00 0. -1.
          2    1    1    2  502    0 -0.34292296608E+02 -0.84917320276E+01  0.25229573007E+03  0.25475715207E+03  0.00000000000E+00 0. -1.
         -2    1    1    2    0  502  0.34292296608E+02  0.84917320276E+01 -0.35510662862E+01  0.35506072597E+02  0.00000000000E+00 0. -1.
</event>
<event>
 4    1  0.5953944E+003  0.2738774E+02  0.7546771E-02  0.1443752E+00
          2   -1    0    0  501    0  0.00000000000E+00  0.00000000000E+00  0.11649603118E+02  0.11649603118E+02  0.00000000000E+00 0.  1.
         -2   -1    0    0    0  501 -0.00000000000E+00 -0.00000000000E+00 -0.84873676123E+02  0.84873676123E+02  0.00000000000E+00 0. -1.
          2    1    1    2  502    0 -0.27103257212E+02  0.39372522870E+01 -0.12901231315E+02  0.30274251048E+02  0.00000000000E+00 0.  1.
         -2    1    1    2    0  502  0.27103257212E+02 -0.39372522870E+01 -0.60322841690E+02  0.66249028194E+02  0.00000000000E+00 0. -1.
</event>
<event>
 4    1  0.5953944E+003  0.3367892E+02  0.7546771E-02  0.1390096E+00
          2   -1    0    0  501    0  0.00000000000E+00  0.00000000000E+00  0.63505734542E+01  0.63505734542E+01  0.00000000000E+00 0.  1.
         -2   -1    0    0    0  501 -0.00000000000E+00 -0.00000000000E+00 -0.25735352066E+03  0.25735352066E+03  0.00000000000E+00 0. -1.
          2    1    1    2  502    0 -0.12968423985E+02  0.31081986711E+02 -0.52567169743E+02  0.62430579473E+02  0.00000000000E+00 0.  1.
         -2    1    1    2    0  502  0.12968423985E+02 -0.31081986711E+02 -0.19843577746E+03  0.20127351464E+03  0.00000000000E+00 0. -1.
</event>
<event>
 4    1  0.5953944E+003  0.2618417E+02  0.7546771E-02  0.1455980E+00
          2   -1    0    0  501    0  0.00000000000E+00  0.00000000000E+00  0.73157286319E+02  0.73157286319E+02  0.00000000000E+00 0.  1.
         -2   -1    0    0    0  501 -0.00000000000E+00 -0.00000000000E+00 -0.93983099290E+01  0.93983099290E+01  0.00000000000E+00 0.  1.
          2    1    1    2  502    0  0.19334401921E+02  0.17657627312E+02  0.34074341222E+02  0.42972917397E+02  0.00000000000E+00 0.  1.
         -2    1    1    2    0  502 -0.19334401921E+02 -0.17657627312E+02  0.29684635169E+02  0.39582678851E+02  0.00000000000E+00 0.  1.
</event>
<event>
 4    1  0.5953944E+003  0.3192716E+02  0.7546771E-02  0.1403557E+00
          2   -1    0    0  501    0  0.00000000000E+00  0.00000000000E+00  0.61183323192E+01  0.61183323192E+01  0.00000000000E+00 0. -1.
         -2   -1    0    0    0  501 -0.00000000000E+00 -0.00000000000E+00 -0.36114724232E+03  0.36114724232E+03  0.00000000000E+00 0. -1.
          2    1    1    2  502    0 -0.27139937472E+02  0.16815680089E+02 -0.42737606005E+02  0.53346473828E+02  0.00000000000E+00 0. -1.
         -2    1    1    2    0  502  0.27139937472E+02 -0.16815680089E+02 -0.31229130400E+03  0.31391910081E+03  0.00000000000E+00 0. -1.
</event>
<event>
 4    1  0.5953944E+003  0.2012925E+02  0.7546771E-02  0.1532069E+00
          2   -1    0    0  501    0  0.00000000000E+00  0.00000000000E+00  0.19302871273E+03  0.19302871273E+03  0.00000000000E+00 0.  1.
         -2   -1    0    0    0  501 -0.00000000000E+00 -0.00000000000E+00 -0.10279003660E+02  0.10279003660E+02  0.00000000000E+00 0.  1.
          2    1    1    2  502    0  0.19176620940E+02  0.61191377126E+01  0.18205713674E+03  0.18316655720E+03  0.00000000000E+00 0.  1.
         -2    1    1    2    0  502 -0.19176620940E+02 -0.61191377126E+01  0.69257232544E+00  0.20141159189E+02  0.00000000000E+00 0.  1.
</event>
<event>
 4    1  0.5953944E+003  0.2400253E+02  0.7546771E-02  0.1480279E+00
          2   -1    0    0  501    0  0.00000000000E+00  0.00000000000E+00  0.48578448490E+02  0.48578448490E+02  0.00000000000E+00 0.  1.
         -2   -1    0    0    0  501 -0.00000000000E+00 -0.00000000000E+00 -0.19413101641E+03  0.19413101641E+03  0.00000000000E+00 0. -1.
          2    1    1    2  502    0 -0.12647036919E+01  0.23969189235E+02  0.44813210672E+02  0.50836456984E+02  0.00000000000E+00 0.  1.
         -2    1    1    2    0  502  0.12647036919E+01 -0.23969189235E+02 -0.19036577859E+03  0.19187300792E+03  0.00000000000E+00 0. -1.
</event>
<event>
 4    1  0.5953944E+003  0.2202007E+02  0.7546771E-02  0.1505184E+00
          2   -1    0    0  501    0  0.00000000000E+00  0.00000000000E+00  0.46842504672E+02  0.46842504672E+02  0.00000000000E+00 0. -1.
         -2   -1    0    0    0  501 -0.00000000000E+00 -0.00000000000E+00 -0.56751185399E+02  0.56751185399E+02  0.00000000000E+00 0.  1.
          2    1    1    2  502    0  0.19106204676E+02  0.10946983388E+02  0.41881037094E+02  0.47317066377E+02  0.00000000000E+00 0. -1.
         -2    1    1    2    0  502 -0.19106204676E+02 -0.10946983388E+02 -0.51789717821E+02  0.56276623694E+02  0.00000000000E+00 0.  1.
</event>
<event>
 4    1  0.5953944E+003  0.2112102E+02  0.7546771E-02  0.1517544E+00
          2   -1    0    0  501    0  0.00000000000E+00  0.00000000000E+00  0.59292011880E+03  0.59292011880E+03  0.00000000000E+00 0. -1.
         -2   -1    0    0    0  501 -0.00000000000E+00 -0.00000000000E+00 -0.56142017125E+01  0.56142017125E+01  0.00000000000E+00 0.  1.
          2    1    1    2  502    0  0.77080441719E-01 -0.21120880645E+02  0.57214632146E+03  0.57253603441E+03  0.00000000000E+00 0. -1.
         -2    1    1    2    0  502 -0.77080441719E-01  0.21120880645E+02  0.15159595631E+02  0.25998286104E+02  0.00000000000E+00 0.  1.
</event>
<event>
 4    1  0.5953944E+003  0.3593851E+02  0.7546771E-02  0.1374083E+00
          2   -1    0    0  501    0  0.00000000000E+00  0.00000000000E+00  0.32018721942E+03  0.32018721942E+03  0.00000000000E+00 0.  1.
         -2   -1    0    0    0  501 -0.00000000000E+00 -0.00000000000E+00 -0.27408933167E+03  0.27408933167E+03  0.00000000000E+00 0.  1.
          2    1    1    2  502    0 -0.29320967556E+02  0.20781186419E+02  0.31799259849E+03  0.32001698321E+03  0.00000000000E+00 0.  1.
         -2    1    1    2    0  502  0.29320967556E+02 -0.20781186419E+02 -0.27189471074E+03  0.27425956788E+03  0.00000000000E+00 0.  1.
</event>
<event>
 4    1  0.5953944E+003  0.2603047E+02  0.7546771E-02  0.1457598E+00
          2   -1    0    0  501    0  0.00000000000E+00  0.00000000000E+00  0.32892469605E+03  0.32892469605E+03  0.00000000000E+00 0. -1.
         -2   -1    0    0    0  501 -0.00000000000E+00 -0.00000000000E+00 -0.37258564232E+01  0.37258564232E+01  0.00000000000E+00 0. -1.
          2    1    1    2  502    0  0.20395690140E+02  0.16174090025E+02  0.27381452712E+03  0.27504905131E+03  0.00000000000E+00 0. -1.
         -2    1    1    2    0  502 -0.20395690140E+02 -0.16174090025E+02  0.51384312501E+02  0.57601501158E+02  0.00000000000E+00 0. -1.
</event>
<event>
 4    1  0.5953944E+003  0.3173512E+02  0.7546771E-02  0.1405094E+00
          2   -1    0    0  501    0  0.00000000000E+00  0.00000000000E+00  0.64985777152E+03  0.64985777152E+03  0.00000000000E+00 0. -1.
         -2   -1    0    0    0  501 -0.00000000000E+00 -0.00000000000E+00 -0.15694701984E+01  0.15694701984E+01  0.00000000000E+00 0. -1.
          2    1    1    2  502    0 -0.11355212849E+02 -0.29634048223E+02  0.36065357632E+03  0.36204712371E+03  0.00000000000E+00 0. -1.
         -2    1    1    2    0  502  0.11355212849E+02  0.29634048223E+02  0.28763472501E+03  0.28938011801E+03  0.00000000000E+00 0. -1.
</event>
<event>
 4    1  0.5953944E+003  0.2455209E+02  0.7546771E-02  0.1473877E+00
          2   -1    0    0  501    0  0.00000000000E+00  0.00000000000E+00  0.15165061040E+04  0.15165061040E+04  0.00000000000E+00 0. -1.
         -2   -1    0    0    0  501 -0.00000000000E+00 -0.00000000000E+00 -0.11723731590E+01  0.11723731590E+01  0.00000000000E+00 0. -1.
          2    1    1    2  502    0 -0.17888936386E+02  0.16816395195E+02  0.13745931310E+04  0.13748123803E+04  0.00000000000E+00 0. -1.
         -2    1    1    2    0  502  0.17888936386E+02 -0.16816395195E+02  0.14074059982E+03  0.14286609685E+03  0.00000000000E+00 0. -1.
</event>
<event>
 4    1  0.5953944E+003  0.3546620E+02  0.7546771E-02  0.1377315E+00
          2   -1    0    0  501    0  0.00000000000E+00  0.00000000000E+00  0.23030616101E+03  0.23030616101E+03  0.00000000000E+00 0.  1.
         -2   -1    0    0    0  501 -0.00000000000E+00 -0.00000000000E+00 -0.55154034887E+01  0.55154034887E+01  0.00000000000E+00 0.  1.
          2    1    1    2  502    0 -0.77324477279E+01  0.34613008508E+02  0.12403603991E+03  0.12900693897E+03  0.00000000000E+00 0.  1.
         -2    1    1    2    0  502  0.77324477279E+01 -0.34613008508E+02  0.10075471761E+03  0.10681462553E+03  0.00000000000E+00 0.  1.
</event>
<event>
 4    1  0.5953944E+003  0.2887921E+02  0.7546771E-02  0.1429593E+00
          2   -1    0    0  501    0  0.00000000000E+00  0.00000000000E+00  0.45332647839E+03  0.45332647839E+03  0.00000000000E+00 0.  1.
         -2   -1    0    0    0  501 -0.00000000000E+00 -0.00000000000E+00 -0.76911137158E+01  0.76911137158E+01  0.00000000000E+00 0.  1.
          2    1    1    2  502    0  0.16216244942E+02 -0.23896487945E+02  0.42387566604E+03  0.42485831638E+03  0.00000000000E+00 0.  1.
         -2    1    1    2    0  502 -0.16216244942E+02  0.23896487945E+02  0.21759698626E+02  0.36159275717E+02  0.00000000000E+00 0.  1.
</event>
<event>
 4    1  0.5953944E+003  0.2105894E+02  0.7546771E-02  0.1518425E+00
          2   -1    0    0  501    0  0.00000000000E+00  0.00000000000E+00  0.11567123017E+03  0.11567123017E+03  0.00000000000E+00 0. -1.
         -2   -1    0    0    0  501 -0.00000000000E+00 -0.00000000000E+00 -0.48277298889E+01  0.48277298889E+01  0.00000000000E+00 0. -1.
          2    1    1    2  502    0 -0.83087521303E+01 -0.19350550103E+02  0.82757072908E+02  0.85394451035E+02  0.00000000000E+00 0. -1.
         -2    1    1    2    0  502  0.83087521303E+01  0.19350550103E+02  0.28086427375E+02  0.35104509026E+02  0.00000000000E+00 0. -1.
</event>
<event>
 4    1  0.5953944E+003  0.2397176E+02  0.7546771E-02  0.1480643E+00
          2   -1    0    0  501    0  0.00000000000E+00  0.00000000000E+00  0.57282813191E+03  0.57282813191E+03  0.00000000000E+00 0. -1.
         -2   -1    0    0    0  501 -0.00000000000E+00 -0.00000000000E+00 -0.95240930296E+01  0.95240930296E+01  0.00000000000E+00 0. -1.
          2    1    1    2  502    0 -0.71706480897E+01  0.22874160439E+02  0.55706676427E+03  0.55758230358E+03  0.00000000000E+00 0. -1.
         -2    1    1    2    0  502  0.71706480897E+01 -0.22874160439E+02  0.62372746149E+01  0.24769921365E+02  0.00000000000E+00 0. -1.
</event>
<event>
 4    1  0.5953944E+003  0.3923811E+02  0.7546771E-02  0.1353009E+00
          2   -1    0    0  501    0  0.00000000000E+00  0.00000000000E+00  0.10802885966E+04  0.10802885966E+04  0.00000000000E+00 0. -1.
         -2   -1    0    0    0  501 -0.00000000000E+00 -0.00000000000E+00 -0.80409377068E+01  0.80409377068E+01  0.00000000000E+00 0.  1.
          2    1    1    2  502    0 -0.36450406740E+02 -0.14525747087E+02  0.10297135922E+04  0.10304609218E+04  0.00000000000E+00 0. -1.
         -2    1    1    2    0  502  0.36450406740E+02  0.14525747087E+02  0.42534066714E+02  0.57868612487E+02  0.00000000000E+00 0.  1.
</event>
<event>
 4    1  0.5953944E+003  0.3469201E+02  0.7546771E-02  0.1382741E+00
          2   -1    0    0  501    0  0.00000000000E+00  0.00000000000E+00  0.57794792570E+03  0.57794792570E+03  0.00000000000E+00 0.  1.
         -2   -1    0    0    0  501 -0.00000000000E+00 -0.00000000000E+00 -0.35213287994E+01  0.35213287994E+01  0.00000000000E+00 0. -1.
          2    1    1    2  502    0  0.20935106610E+02  0.27663280516E+02  0.47306163579E+03  0.47433200086E+03  0.00000000000E+00 0.  1.
         -2    1    1    2    0  502 -0.20935106610E+02 -0.27663280516E+02  0.10136496111E+03  0.10713725364E+03  0.00000000000E+00 0. -1.
</event>
<event>
 4    1  0.5953944E+003  0.2087643E+02  0.7546771E-02  0.1521037E+00
          2   -1    0    0  501    0  0.00000000000E+00  0.00000000000E+00  0.15367174206E+04  0.15367174206E+04  0.00000000000E+00 0.  1.
         -2   -1    0    0    0  501 -0.00000000000E+00 -0.00000000000E+00 -0.22687397027E+01  0.22687397027E+01  0.00000000000E+00 0.  1.
          2    1    1    2  502    0  0.14074168425E+02 -0.15418914187E+02  0.14870164167E+04  0.14871629530E+04  0.00000000000E+00 0.  1.
         -2    1    1    2    0  502 -0.14074168425E+02  0.15418914187E+02  0.47432264141E+02  0.51823207283E+02  0.00000000000E+00 0.  1.
</event>
<event>
 4    1  0.5953944E+003  0.2924213E+02  0.7546771E-02  0.1426299E+00
          2   -1    0    0  501    0  0.00000000000E+00  0.00000000000E+00  0.58476394565E+03  0.58476394565E+03  0.00000000000E+00 0. -1.
         -2   -1    0    0    0  501 -0.00000000000E+00 -0.00000000000E+00 -0.15803460620E+01  0.15803460620E+01  0.00000000000E+00 0.  1.
          2    1    1    2  502    0  0.11524709462E+02  0.26875332361E+02  0.37171637725E+03  0.37286481134E+03  0.00000000000E+00 0. -1.
         -2    1    1    2    0  502 -0.11524709462E+02 -0.26875332361E+02  0.21146722234E+03  0.21347948037E+03  0.00000000000E+00 0.  1.
</event>
<event>
 4    1  0.5953944E+003  0.2480878E+02  0.7546771E-02  0.1470954E+00
          2   -1    0    0  501    0  0.00000000000E+00  0.00000000000E+00  0.21433048714E+02  0.21433048714E+02  0.00000000000E+00 0.  1.
         -2   -1    0    0    0  501 -0.00000000000E+00 -0.00000000000E+00 -0.66673587560E+03  0.66673587560E+03  0.00000000000E+00 0. -1.
          2    1    1    2  502    0  0.20533047987E+02  0.13923711259E+02  0.13941667402E+02  0.28457791285E+02  0.00000000000E+00 0.  1.
         -2    1    1    2    0  502 -0.20533047987E+02 -0.13923711259E+02 -0.65924449428E+03  0.65971113303E+03  0.00000000000E+00 0. -1.
</event>
<event>
 4    1  0.5953944E+003  0.2480261E+02  0.7546771E-02  0.1471024E+00
          2   -1    0    0  501    0  0.00000000000E+00  0.00000000000E+00  0.67965958201E+02  0.67965958201E+02  0.00000000000E+00 0.  1.
         -2   -1    0    0    0  501 -0.00000000000E+00 -0.00000000000E+00 -0.43188182826E+02  0.43188182826E+02  0.00000000000E+00 0.  1.
          2    1    1    2  502    0  0.19485533429E+02 -0.15345477095E+02  0.61800168112E+02  0.66591519422E+02  0.00000000000E+00 0.  1.
         -2    1    1    2    0  502 -0.19485533429E+02  0.15345477095E+02 -0.37022392737E+02  0.44562621605E+02  0.00000000000E+00 0.  1.
</event>
<event>
 4    1  0.5953944E+003  0.2748634E+02  0.7546771E-02  0.1442783E+00
          2   -1    0    0  501    0  0.00000000000E+00  0.00000000000E+00  0.15736182535E+04  0.15736182535E+04  0.00000000000E+00 0.  1.
         -2   -1    0    0    0  501 -0.00000000000E+00 -0.00000000000E+00 -0.55211508651E+00  0.55211508651E+00  0.00000000000E+00 0.  1.
          2    1    1    2  502    0  0.27312107481E+01 -0.27350308915E+02  0.10707889787E+04  0.10711416973E+04  0.00000000000E+00 0.  1.
         -2    1    1    2    0  502 -0.27312107481E+01  0.27350308915E+02  0.50227715977E+03  0.50302867129E+03  0.00000000000E+00 0.  1.
</event>
<event>
 4    1  0.5953944E+003  0.2770095E+02  0.7546771E-02  0.1440691E+00
          2   -1    0    0  501    0  0.00000000000E+00  0.00000000000E+00  0.16076533619E+04  0.16076533619E+04  0.00000000000E+00 0. -1.
         -2   -1    0    0    0  501 -0.00000000000E+00 -0.00000000000E+00 -0.12297303404E+01  0.12297303404E+01  0.00000000000E+00 0. -1.
          2    1    1    2  502    0  0.27351896870E+02 -0.43836372839E+01  0.14324585588E+04  0.14327263748E+04  0.00000000000E+00 0. -1.
         -2    1    1    2    0  502 -0.27351896870E+02  0.43836372839E+01  0.17396507275E+03  0.17615671737E+03  0.00000000000E+00 0. -1.
</event>
<event>
 4    1  0.5953944E+003  0.2379669E+02  0.7546771E-02  0.1482729E+00
          2   -1    0    0  501    0  0.00000000000E+00  0.00000000000E+00  0.12430197642E+04  0.12430197642E+04  0.00000000000E+00 0. -1.
         -2   -1    0    0    0  501 -0.00000000000E+00 -0.00000000000E+00 -0.49183064218E+01  0.49183064218E+01  0.00000000000E+00 0. -1.
          2    1    1    2  502    0 -0.19215876143E+02  0.14036828740E+02  0.12134193422E+04  0.12136526614E+04  0.00000000000E+00 0. -1.
         -2    1    1    2    0  502  0.19215876143E+02 -0.14036828740E+02  0.24682115565E+02  0.34285409226E+02  0.00000000000E+00 0. -1.
</event>
<event>
 4    1  0.5953944E+003  0.2471069E+02  0.7546771E-02  0.1472066E+00
          2   -1    0    0  501    0  0.00000000000E+00  0.00000000000E+00  0.25550232386E+03  0.25550232386E+03  0.00000000000E+00 0. -1.
         -2   -1    0    0    0  501 -0.00000000000E+00 -0.00000000000E+00 -0.25879058122E+01  0.25879058122E+01  0.00000000000E+00 0. -1.
          2    1    1    2  502    0  0.53587203111E+01  0.24122634947E+02  0.90759615606E+02  0.94063410661E+02  0.00000000000E+00 0. -1.
         -2    1    1    2    0  502 -0.53587203111E+01 -0.24122634947E+02  0.16215480244E+03  0.16402681901E+03  0.00000000000E+00 0. -1.
</event>
<event>
 4    1  0.5953944E+003  0.2573185E+02  0.7546771E-02  0.1460780E+00
          2   -1    0    0  501    0  0.00000000000E+00  0.00000000000E+00  0.18366006839E+04  0.18366006839E+04  0.00000000000E+00 0.  1.
         -2   -1    0    0    0  501 -0.00000000000E+00 -0.00000000000E+00 -0.12675265751E+02  0.12675265751E+02  0.00000000000E+00 0. -1.
          2    1    1    2  502    0  0.25201425617E+02 -0.51977117891E+01  0.18233562470E+04  0.18235378064E+04  0.00000000000E+00 0.  1.
         -2    1    1    2    0  502 -0.25201425617E+02  0.51977117891E+01  0.56917116947E+00  0.25738143227E+02  0.00000000000E+00 0. -1.
</event>
<event>
 4    1  0.5953944E+003  0.2106858E+02  0.7546771E-02  0.1518288E+00
          2   -1    0    0  501    0  0.00000000000E+00  0.00000000000E+00  0.54691279827E+03  0.54691279827E+03  0.00000000000E+00 0. -1.
         -2   -1    0    0    0  501 -0.00000000000E+00 -0.00000000000E+00 -0.87836557928E+01  0.87836557928E+01  0.00000000000E+00 0.  1.
          2    1    1    2  502    0  0.20938662793E+02  0.23361497196E+01  0.53376497515E+03  0.53418061916E+03  0.00000000000E+00 0. -1.
         -2    1    1    2    0  502 -0.20938662793E+02 -0.23361497196E+01  0.43641673331E+01  0.21515834903E+02  0.00000000000E+00 0.  1.
</event>
<event>
 4    1  0.5953944E+003  0.2120692E+02  0.7546771E-02  0.1516331E+00
          2   -1    0    0  501    0  0.00000000000E+00  0.00000000000E+00  0.20133232816E+03  0.20133232816E+03  0.00000000000E+00 0. -1.
         -2   -1    0    0    0  501 -0.00000000000E+00 -0.00000000000E+00 -0.28055196524E+02  0.28055196524E+02  0.00000000000E+00 0. -1.
          2    1    1    2  502    0  0.10776771169E+02  0.18264574545E+02  0.19667160709E+03  0.19781166425E+03  0.00000000000E+00 0. -1.
         -2    1    1    2    0  502 -0.10776771169E+02 -0.18264574545E+02 -0.23394475453E+02  0.31575860430E+02  0.00000000000E+00 0. -1.
</event>
<event>
 4    1  0.5953944E+003  0.2104132E+02  0.7546771E-02  0.1518676E+00
          2   -1    0    0  501    0  0.00000000000E+00  0.00000000000E+00  0.27842751831E+03  0.27842751831E+03  0.00000000000E+00 0.  1.
         -2   -1    0    0    0  501 -0.00000000000E+00 -0.00000000000E+00 -0.24664231926E+02  0.24664231926E+02  0.00000000000E+00 0.  1.
          2    1    1    2  502    0 -0.99591678974E+01 -0.18535155978E+02  0.27346095857E+03  0.27426927078E+03  0.00000000000E+00 0.  1.
         -2    1    1    2    0  502  0.99591678974E+01  0.18535155978E+02 -0.19697672186E+02  0.28822479454E+02  0.00000000000E+00 0.  1.
</event>
<event>
 4    1  0.5953944E+003  0.2565549E+02  0.7546771E-02  0.1461602E+00
          2   -1    0    0  501    0  0.00000000000E+00  0.00000000000E+00  0.67710423343E+02  0.67710423343E+02  0.00000000000E+00 0.  1.
         -2   -1    0    0    0  501 -0.00000000000E+00 -0.00000000000E+00 -0.15283358530E+02  0.15283358530E+02  0.00000000000E+00 0. -1.
          2    1    1    2  502    0  0.10079525893E+02 -0.23592532309E+02  0.51248129581E+02  0.57311213637E+02  0.00000000000E+00 0.  1.
         -2    1    1    2    0  502 -0.10079525893E+02  0.23592532309E+02  0.11789352323E+01  0.25682568237E+02  0.00000000000E+00 0. -1.
</event>
<event>
 4    1  0.5953944E+003  0.3105977E+02  0.7546771E-02  0.1410605E+00
          2   -1    0    0  501    0  0.00000000000E+00  0.00000000000E+00  0.42360200788E+03  0.42360200788E+03  0.00000000000E+00 0.  1.
         -2   -1    0    0    0  501 -0.00000000000E+00 -0.00000000000E+00 -0.42934310932E+01  0.42934310932E+01  0.00000000000E+00 0. -1.
          2    1    1    2  502    0  0.30756927144E+02  0.43267597005E+01  0.35626121268E+03  0.35761258518E+03  0.00000000000E+00 0.  1.
         -2    1    1    2    0  502 -0.30756927144E+02 -0.43267597005E+01  0.63047364104E+02  0.70282853794E+02  0.00000000000E+00 0. -1.
</event>
<event>
 4    1  0.5953944E+003  0.2034003E+02  0.7546771E-02  0.1528900E+00
          2   -1    0    0  501    0  0.00000000000E+00  0.00000000000E+00  0.13397148600E+02  0.13397148600E+02  0.00000000000E+00 0. -1.
         -2   -1    0    0    0  501 -0.00000000000E+00 -0.00000000000E+00 -0.40774900979E+02  0.40774900979E+02  0.00000000000E+00 0. -1.
          2    1    1    2  502    0  0.13895943024E+02  0.14853275087E+02 -0.34650131393E+00  0.20342985929E+02  0.00000000000E+00 0. -1.
         -2    1    1    2    0  502 -0.13895943024E+02 -0.14853275087E+02 -0.27031251065E+02  0.33829063650E+02  0.00000000000E+00 0. -1.
</event>
<event>
 4    1  0.5953944E+003  0.2755387E+02  0.7546771E-02  0.1442122E+00
          2   -1    0    0  501    0  0.00000000000E+00  0.00000000000E+00  0.22452185633E+04  0.22452185633E+04  0.00000000000E+00 0. -1.
         -2   -1    0    0    0  501 -0.00000000000E+00 -0.00000000000E+00 -0.54772964848E+00  0.54772964848E+00  0.00000000000E+00 0.  1.
          2    1    1    2  502    0  0.66118840247E+01  0.26748812885E+02  0.18169248003E+04  0.18171337171E+04  0.00000000000E+00 0. -1.
         -2    1    1    2    0  502 -0.66118840247E+01 -0.26748812885E+02  0.42774603333E+03  0.42863257579E+03  0.00000000000E+00 0.  1.
</event>
<event>
 4    1  0.5953944E+003  0.3639418E+02  0.7546771E-02  0.1371018E+00
          2   -1    0    0  501    0  0.00000000000E+00  0.00000000000E+00  0.13229155116E+03  0.13229155116E+03  0.00000000000E+00 0.  1.
         -2   -1    0    0    0  501 -0.00000000000E+00 -0.00000000000E+00 -0.19244321888E+02  0.19244321888E+02  0.00000000000E+00 0.  1.
          2    1    1    2  502    0  0.15084394975E+02 -0.33120955285E+02  0.10900238390E+03  0.11491760677E+03  0.00000000000E+00 0.  1.
         -2    1    1    2    0  502 -0.15084394975E+02  0.33120955285E+02  0.40448453705E+01  0.36618266272E+02  0.00000000000E+00 0.  1.
</event>
<event>
 4    1  0.5953944E+003  0.2847197E+02  0.7546771E-02  0.1433357E+00
          2   -1    0    0  501    0  0.00000000000E+00  0.00000000000E+00  0.73856430072E+01  0.73856430072E+01  0.00000000000E+00 0. -1.
         -2   -1    0    0    0  501 -0.00000000000E+00 -0.00000000000E+00 -0.12467670311E+03  0.12467670311E+03  0.00000000000E+00 0. -1.
          2    1    1    2  502    0 -0.25897924772E+02 -0.11830067704E+02 -0.35806205555E+02  0.45746446480E+02  0.00000000000E+00 0. -1.
         -2    1    1    2    0  502  0.25897924772E+02  0.11830067704E+02 -0.81484854543E+02  0.86315899632E+02  0.00000000000E+00 0. -1.
</event>
<event>
 4    1  0.5953944E+003  0.2239049E+02  0.7546771E-02  0.1500297E+00
          2   -1    0    0  501    0  0.00000000000E+00  0.00000000000E+00  0.12061124688E+02  0.12061124688E+02  0.00000000000E+00 0.  1.
         -2   -1    0    0    0  501 -0.00000000000E+00 -0.00000000000E+00 -0.92098473783E+02  0.92098473783E+02  0.00000000000E+00 0.  1.
          2    1    1    2  502    0  0.13054882702E+02 -0.18190768920E+02 -0.14417242551E+01  0.22436858182E+02  0.00000000000E+00 0.  1.
         -2    1    1    2    0  502 -0.13054882702E+02  0.18190768920E+02 -0.78595624840E+02  0.81722740289E+02  0.00000000000E+00 0.  1.
</event>
<event>
 4    1  0.5953944E+003  0.2038435E+02  0.7546771E-02  0.1528239E+00
          2   -1    0    0  501    0  0.00000000000E+00  0.00000000000E+00  0.14415956429E+04  0.14415956429E+04  0.00000000000E+00 0.  1.
         -2   -1    0    0    0  501 -0.00000000000E+00 -0.00000000000E+00 -0.46467734696E+00  0.46467734696E+00  0.00000000000E+00 0.  1.
          2    1    1    2  502    0 -0.15139178700E+02  0.13650158141E+02  0.11648655073E+04  0.11650438496E+04  0.00000000000E+00 0.  1.
         -2    1    1    2    0  502  0.15139178700E+02 -0.13650158141E+02  0.27626545828E+03  0.27701647061E+03  0.00000000000E+00 0.  1.
</event>
<event>
 4    1  0.5953944E+003  0.4948521E+02  0.7546771E-02  0.1300420E+00
          2   -1    0    0  501    0  0.00000000000E+00  0.00000000000E+00  0.12486511166E+02  0.12486511166E+02  0.00000000000E+00 0. -1.
         -2   -1    0    0    0  501 -0.00000000000E+00 -0.00000000000E+00 -0.33322666630E+03  0.33322666630E+03  0.00000000000E+00 0.  1.
          2    1    1    2  502    0 -0.22621470686E+02 -0.44011990876E+02 -0.49489874759E+02  0.69985955595E+02  0.00000000000E+00 0. -1.
         -2    1    1    2    0  502  0.22621470686E+02  0.44011990876E+02 -0.27125028038E+03  0.27572722187E+03  0.00000000000E+00 0.  1.
</event>
<event>
 4    1  0.5953944E+003  0.2066227E+02  0.7546771E-02  0.1524142E+00
          2   -1    0    0  501    0  0.00000000000E+00  0.00000000000E+00  0.37291428370E+03  0.37291428370E+03  0.00000000000E+00 0. -1.
         -2   -1    0    0    0  501 -0.00000000000E+00 -0.00000000000E+00 -0.43042422518E+01  0.43042422518E+01  0.00000000000E+00 0.  1.
          2    1    1    2  502    0 -0.92239222769E+01  0.18489152984E+02  0.34589584517E+03  0.34651243156E+03  0.00000000000E+00 0. -1.
         -2    1    1    2    0  502  0.92239222769E+01 -0.18489152984E+02  0.22714196281E+02  0.30706094394E+02  0.00000000000E+00 0.  1.
</event>
<event>
 4    1  0.5953944E+003  0.2342091E+02  0.7546771E-02  0.1487279E+00
          2   -1    0    0  501    0  0.00000000000E+00  0.00000000000E+00  0.12244471650E+04  0.12244471650E+04  0.00000000000E+00 0.  1.
         -2   -1    0    0    0  501 -0.00000000000E+00 -0.00000000000E+00 -0.11981918495E+02  0.11981918495E+02  0.00000000000E+00 0. -1.
          2    1    1    2  502    0  0.23388487293E+02 -0.12318581417E+01  0.12127799357E+04  0.12130060640E+04  0.00000000000E+00 0.  1.
         -2    1    1    2    0  502 -0.23388487293E+02  0.12318581417E+01 -0.31468922950E+00  0.23423019482E+02  0.00000000000E+00 0. -1.
</event>
<event>
 4    1  0.5953944E+003  0.7686030E+02  0.7546771E-02  0.1211330E+00
          2   -1    0    0  501    0  0.00000000000E+00  0.00000000000E+00  0.10659662280E+04  0.10659662280E+04  0.00000000000E+00 0. -1.
         -2   -1    0    0    0  501 -0.00000000000E+00 -0.00000000000E+00 -0.55641244821E+01  0.55641244821E+01  0.00000000000E+00 0. -1.
          2    1    1    2  502    0  0.52818147723E+02  0.55836807282E+02  0.56404175148E+03  0.56925442746E+03  0.00000000000E+00 0. -1.
         -2    1    1    2    0  502 -0.52818147723E+02 -0.55836807282E+02  0.49636035206E+03  0.50227592504E+03  0.00000000000E+00 0. -1.
</event>
<event>
 4    1  0.5953944E+003  0.3414472E+02  0.7546771E-02  0.1386678E+00
          2   -1    0    0  501    0  0.00000000000E+00  0.00000000000E+00  0.10668839350E+04  0.10668839350E+04  0.00000000000E+00 0. -1.
         -2   -1    0    0    0  501 -0.00000000000E+00 -0.00000000000E+00 -0.28486424643E+01  0.28486424643E+01  0.00000000000E+00 0.  1.
          2    1    1    2  502    0  0.16224805140E+01  0.34106154191E+02  0.95194323506E+03  0.95255539733E+03  0.00000000000E+00 0. -1.
         -2    1    1    2    0  502 -0.16224805140E+01 -0.34106154191E+02  0.11209205752E+03  0.11717718018E+03  0.00000000000E+00 0.  1.
</event>
<event>
 4    1  0.5953944E+003  0.2706990E+02  0.7546771E-02  0.1446907E+00
          2   -1    0    0  501    0  0.00000000000E+00  0.00000000000E+00  0.10359351269E+04  0.10359351269E+04  0.00000000000E+00 0. -1.
         -2   -1    0    0    0  501 -0.00000000000E+00 -0.00000000000E+00 -0.14107710277E+01  0.14107710277E+01  0.00000000000E+00 0. -1.
          2    1    1    2  502    0 -0.20337883078E+02  0.17864777181E+02  0.88350550090E+03  0.88392010378E+03  0.00000000000E+00 0. -1.
         -2    1    1    2    0  502  0.20337883078E+02 -0.17864777181E+02  0.15101885500E+03  0.15342579417E+03  0.00000000000E+00 0. -1.
</event>
<event>
 4    1  0.5953944E+003  0.2110219E+02  0.7546771E-02  0.1517811E+00
          2   -1    0    0  501    0  0.00000000000E+00  0.00000000000E+00  0.60179613344E+03  0.60179613344E+03  0.00000000000E+00 0.  1.
         -2   -1    0    0    0  501 -0.00000000000E+00 -0.00000000000E+00 -0.23432428327E+01  0.23432428327E+01  0.00000000000E+00 0. -1.
          2    1    1    2  502    0 -0.85453009860E+01 -0.19294569894E+02  0.54959069704E+03  0.54999566986E+03  0.00000000000E+00 0.  1.
         -2    1    1    2    0  502  0.85453009860E+01  0.19294569894E+02  0.49862193567E+02  0.54143706408E+02  0.00000000000E+00 0. -1.
</event>
<event>
 4    1  0.5953944E+003  0.2088094E+02  0.7546771E-02  0.1520972E+00
          2   -1    0    0  501    0  0.00000000000E+00  0.00000000000E+00  0.88854806072E+02  0.88854806072E+02  0.00000000000E+00 0.  1.
         -2   -1    0    0    0  501 -0.00000000000E+00 -0.00000000000E+00 -0.26286854516E+02  0.26286854516E+02  0.00000000000E+00 0.  1.
          2    1    1    2  502    0 -0.82549135132E+01 -0.19179939414E+02  0.83204037026E+02  0.85784179488E+02  0.00000000000E+00 0.  1.
         -2    1    1    2    0  502  0.82549135132E+01  0.19179939414E+02 -0.20636085470E+02  0.29357481100E+02  0.00000000000E+00 0.  1.
</event>
<event>
 4    1  0.5953944E+003  0.2446210E+02  0.7546771E-02  0.1474912E+00
          2   -1    0    0  501    0  0.00000000000E+00  0.00000000000E+00  0.45548580858E+02  0.45548580858E+02  0.00000000000E+00 0. -1.
         -2   -1    0    0    0  501 -0.00000000000E+00 -0.00000000000E+00 -0.20912179829E+02  0.20912179829E+02  0.00000000000E+00 0.  1.
          2    1    1    2  502    0  0.22490017236E+02  0.96225616417E+01  0.32579946342E+02  0.40741225699E+02  0.00000000000E+00 0. -1.
         -2    1    1    2    0  502 -0.22490017236E+02 -0.96225616417E+01 -0.79435453137E+01  0.25719534988E+02  0.00000000000E+00 0.  1.
</event>
<event>
 4    1  0.5953944E+003  0.2130097E+02  0.7546771E-02  0.1515011E+00
          2   -1    0    0  501    0  0.00000000000E+00  0.00000000000E+00  0.52879173037E+02  0.52879173037E+02  0.00000000000E+00 0.  1.
         -2   -1    0    0    0  501 -0.00000000000E+00 -0.00000000000E+00 -0.13933739907E+03  0.13933739907E+03  0.00000000000E+00 0. -1.
          2    1    1    2  502    0 -0.15930352629E+02  0.14140550001E+02  0.49872936255E+02  0.54231366015E+02  0.00000000000E+00 0.  1.
         -2    1    1    2    0  502  0.15930352629E+02 -0.14140550001E+02 -0.13633116229E+03  0.13798520609E+03  0.00000000000E+00 0. -1.
</event>
<event>
 4    1  0.5953944E+003  0.3198567E+02  0.7546771E-02  0.1403091E+00
          2   -1    0    0  501    0  0.00000000000E+00  0.00000000000E+00  0.51517397663E+03  0.51517397663E+03  0.00000000000E+00 0.  1.
         -2   -1    0    0    0  501 -0.00000000000E+00 -0.00000000000E+00 -0.49187783921E+02  0.49187783921E+02  0.00000000000E+00 0. -1.
          2    1    1    2  502    0  0.82926717958E+00  0.31974915949E+02  0.50941893219E+03  0.51042211101E+03  0.00000000000E+00 0.  1.
         -2    1    1    2    0  502 -0.82926717958E+00 -0.31974915949E+02 -0.43432739480E+02  0.53939649542E+02  0.00000000000E+00 0. -1.
</event>
<event>
 4    1  0.5953944E+003  0.2418155E+02  0.7546771E-02  0.1478171E+00
          2   -1    0    0  501    0  0.00000000000E+00  0.00000000000E+00  0.17434938510E+02  0.17434938510E+02  0.00000000000E+00 0.  1.
         -2   -1    0    0    0  501 -0.00000000000E+00 -0.00000000000E+00 -0.36534195845E+02  0.36534195845E+02  0.00000000000E+00 0.  1.
          2    1    1    2  502    0 -0.24104048305E+02  0.19345196388E+01 -0.18229950931E+01  0.24250171587E+02  0.00000000000E+00 0.  1.
         -2    1    1    2    0  502  0.24104048305E+02 -0.19345196388E+01 -0.17276262241E+02  0.29718962767E+02  0.00000000000E+00 0.  1.
</event>
<event>
 4    1  0.5953944E+003  0.2233928E+02  0.7546771E-02  0.1500966E+00
          2   -1    0    0  501    0  0.00000000000E+00  0.00000000000E+00  0.10117259505E+03  0.10117259505E+03  0.00000000000E+00 0.  1.
         -2   -1    0    0    0  501 -0.00000000000E+00 -0.00000000000E+00 -0.58292286879E+01  0.58292286879E+01  0.00000000000E+00 0. -1.
          2    1    1    2  502    0 -0.14044121779E+02 -0.17372563682E+02  0.68654482603E+02  0.72197515933E+02  0.00000000000E+00 0.  1.
         -2    1    1    2    0  502  0.14044121779E+02  0.17372563682E+02  0.26688883759E+02  0.34804307805E+02  0.00000000000E+00 0. -1.
</event>
<event>
 4    1  0.5953944E+003  0.2111473E+02  0.7546771E-02  0.1517633E+00
          2   -1    0    0  501    0  0.00000000000E+00  0.00000000000E+00  0.43261430302E+03  0.43261430302E+03  0.00000000000E+00 0. -1.
         -2   -1    0    0    0  501 -0.00000000000E+00 -0.00000000000E+00 -0.29142400719E+01  0.29142400719E+01  0.00000000000E+00 0. -1.
          2    1    1    2  502    0 -0.27003587535E+01  0.20941343990E+02  0.38992674295E+03  0.39049801113E+03  0.00000000000E+00 0. -1.
         -2    1    1    2    0  502  0.27003587535E+01 -0.20941343990E+02  0.39773320001E+02  0.45030531969E+02  0.00000000000E+00 0. -1.
</event>
<event>
 4    1  0.5953944E+003  0.2925031E+02  0.7546771E-02  0.1426225E+00
          2   -1    0    0  501    0  0.00000000000E+00  0.00000000000E+00  0.42316921932E+03  0.42316921932E+03  0.00000000000E+00 0. -1.
         -2   -1    0    0    0  501 -0.00000000000E+00 -0.00000000000E+00 -0.83376877582E+02  0.83376877582E+02  0.00000000000E+00 0. -1.
          2    1    1    2  502    0  0.26680044020E+02 -0.11989827629E+02  0.42007951167E+03  0.42109663599E+03  0.00000000000E+00 0. -1.
         -2    1    1    2    0  502 -0.26680044020E+02  0.11989827629E+02 -0.80287169930E+02  0.85449460916E+02  0.00000000000E+00 0. -1.
</event>
<event>
 4    1  0.5953944E+003  0.2489769E+02  0.7546771E-02  0.1469951E+00
          2   -1    0    0  501    0  0.00000000000E+00  0.00000000000E+00  0.13125555224E+04  0.13125555224E+04  0.00000000000E+00 0.  1.
         -2   -1    0    0    0  501 -0.00000000000E+00 -0.00000000000E+00 -0.33278552630E+02  0.33278552630E+02  0.00000000000E+00 0.  1.
          2    1    1    2  502    0  0.10747481152E+02  0.22458551241E+02  0.13077635249E+04  0.13080005092E+04  0.00000000000E+00 0.  1.
         -2    1    1    2    0  502 -0.10747481152E+02 -0.22458551241E+02 -0.28486555199E+02  0.37833565812E+02  0.00000000000E+00 0.  1.
</event>
<event>
 4    1  0.5953944E+003  0.2030916E+02  0.7546771E-02  0.1529361E+00
          2   -1    0    0  501    0  0.00000000000E+00  0.00000000000E+00  0.34186582063E+03  0.34186582063E+03  0.00000000000E+00 0. -1.
         -2   -1    0    0    0  501 -0.00000000000E+00 -0.00000000000E+00 -0.26429925595E+01  0.26429925595E+01  0.00000000000E+00 0.  1.
          2    1    1    2  502    0  0.45316038266E+01  0.19797132668E+02  0.29660263973E+03  0.29729713721E+03  0.00000000000E+00 0. -1.
         -2    1    1    2    0  502 -0.45316038266E+01 -0.19797132668E+02  0.42620188336E+02  0.47211675980E+02  0.00000000000E+00 0.  1.
</event>
<event>
 4    1  0.5953944E+003  0.3856945E+02  0.7546771E-02  0.1357079E+00
          2   -1    0    0  501    0  0.00000000000E+00  0.00000000000E+00  0.57734734598E+03  0.57734734598E+03  0.00000000000E+00 0. -1.
         -2   -1    0    0    0  501 -0.00000000000E+00 -0.00000000000E+00 -0.58122228714E+02  0.58122228714E+02  0.00000000000E+00 0. -1.
          2    1    1    2  502    0 -0.27139855485E+02  0.27404936461E+02  0.57022476495E+03  0.57152767637E+03  0.00000000000E+00 0. -1.
         -2    1    1    2    0  502  0.27139855485E+02 -0.27404936461E+02 -0.50999647679E+02  0.63941898326E+02  0.00000000000E+00 0. -1.
</event>
<event>
 4    1  0.5953944E+003  0.2130810E+02  0.7546771E-02  0.1514911E+00
          2   -1    0    0  501    0  0.00000000000E+00  0.00000000000E+00  0.70737458913E+03  0.70737458913E+03  0.00000000000E+00 0. -1.
         -2   -1    0    0    0  501 -0.00000000000E+00 -0.00000000000E+00 -0.68725005367E+00  0.68725005367E+00  0.00000000000E+00 0.  1.
          2    1    1    2  502    0 -0.11343418696E+02 -0.18037797627E+02  0.44432771672E+03  0.44483834720E+03  0.00000000000E+00 0. -1.
         -2    1    1    2    0  502  0.11343418696E+02  0.18037797627E+02  0.26235962236E+03  0.26322349199E+03  0.00000000000E+00 0.  1.
</event>
<event>
 4    1  0.5953944E+003  0.4233467E+02  0.7546771E-02  0.1335322E+00
          2   -1    0    0  501    0  0.00000000000E+00  0.00000000000E+00  0.19390645860E+02  0.19390645860E+02  0.00000000000E+00 0.  1.
         -2   -1    0    0    0  501 -0.00000000000E+00 -0.00000000000E+00 -0.93265889971E+02  0.93265889971E+02  0.00000000000E+00 0.  1.
          2    1    1    2  502    0 -0.39664626990E+02  0.14796673120E+02 -0.31596266868E+02  0.52825640079E+02  0.00000000000E+00 0.  1.
         -2    1    1    2    0  502  0.39664626990E+02 -0.14796673120E+02 -0.42278977243E+02  0.59830895752E+02  0.00000000000E+00 0.  1.
</event>
<event>
 4    1  0.5953944E+003  0.2098359E+02  0.7546771E-02  0.1519499E+00
          2   -1    0    0  501    0  0.00000000000E+00  0.00000000000E+00  0.32259775047E+03  0.32259775047E+03  0.00000000000E+00 0.  1.
         -2   -1    0    0    0  501 -0.00000000000E+00 -0.00000000000E+00 -0.67573026262E+01  0.67573026262E+01  0.00000000000E+00 0. -1.
          2    1    1    2  502    0  0.19397174879E+02 -0.80037774715E+01  0.30502919528E+03  0.30575009537E+03  0.00000000000E+00 0.  1.
         -2    1    1    2    0  502 -0.19397174879E+02  0.80037774715E+01  0.10811252562E+02  0.23604957722E+02  0.00000000000E+00 0. -1.
</event>
<event>
 4    1  0.5953944E+003  0.2343272E+02  0.7546771E-02  0.1487135E+00
          2   -1    0    0  501    0  0.00000000000E+00  0.00000000000E+00  0.39410306398E+03  0.39410306398E+03  0.00000000000E+00 0. -1.
         -2   -1    0    0    0  501 -0.00000000000E+00 -0.00000000000E+00 -0.15957879313E+01  0.15957879313E+01  0.00000000000E+00 0. -1.
          2    1    1    2  502    0 -0.21317872900E+02 -0.97283502429E+01  0.26673552334E+03  0.26776282773E+03  0.00000000000E+00 0. -1.
         -2    1    1    2    0  502  0.21317872900E+02  0.97283502429E+01  0.12577175271E+03  0.12793602418E+03  0.00000000000E+00 0. -1.
</event>
<event>
 4    1  0.5953944E+003  0.2868236E+02  0.7546771E-02  0.1431403E+00
          2   -1    0    0  501    0  0.00000000000E+00  0.00000000000E+00  0.10985815316E+04  0.10985815316E+04  0.00000000000E+00 0.  1.
         -2   -1    0    0    0  501 -0.00000000000E+00 -0.00000000000E+00 -0.31432411089E+01  0.31432411089E+01  0.00000000000E+00 0.  1.
          2    1    1    2  502    0 -0.75953570834E+01 -0.27658423436E+02  0.10285046874E+04  0.10289045485E+04  0.00000000000E+00 0.  1.
         -2    1    1    2    0  502  0.75953570834E+01  0.27658423436E+02  0.66933603022E+02  0.72820224181E+02  0.00000000000E+00 0.  1.
</event>
<event>
 4    1  0.5953944E+003  0.2012307E+02  0.7546771E-02  0.1532163E+00
          2   -1    0    0  501    0  0.00000000000E+00  0.00000000000E+00  0.12474588451E+04  0.12474588451E+04  0.00000000000E+00 0. -1.
         -2   -1    0    0    0  501 -0.00000000000E+00 -0.00000000000E+00 -0.11708282188E+02  0.11708282188E+02  0.00000000000E+00 0.  1.
          2    1    1    2  502    0 -0.19253244162E+02 -0.58523857589E+01  0.12386699496E+04  0.12388333955E+04  0.00000000000E+00 0. -1.
         -2    1    1    2    0  502  0.19253244162E+02  0.58523857589E+01 -0.29193866641E+01  0.20333731786E+02  0.00000000000E+00 0.  1.
</event>
<event>
 4    1  0.5953944E+003  0.2182366E+02  0.7546771E-02  0.1507822E+00
          2   -1    0    0  501    0  0.00000000000E+00  0.00000000000E+00  0.32691102747E+03  0.32691102747E+03  0.00000000000E+00 0. -1.
         -2   -1    0    0    0  501 -0.00000000000E+00 -0.00000000000E+00 -0.56802257210E+01  0.56802257210E+01  0.00000000000E+00 0. -1.
          2    1    1    2  502    0  0.16904391711E+02  0.13802676978E+02  0.30400775664E+03  0.30479007275E+03  0.00000000000E+00 0. -1.
         -2    1    1    2    0  502 -0.16904391711E+02 -0.13802676978E+02  0.17223045104E+02  0.27801180434E+02  0.00000000000E+00 0. -1.
</event>
<event>
 4    1  0.5953944E+003  0.2452656E+02  0.7546771E-02  0.1474170E+00
          2   -1    0    0  501    0  0.00000000000E+00  0.00000000000E+00  0.18989689436E+02  0.18989689436E+02  0.00000000000E+00 0. -1.
         -2   -1    0    0    0  501 -0.00000000000E+00 -0.00000000000E+00 -0.40655871147E+02  0.40655871147E+02  0.00000000000E+00 0. -1.
          2    1    1    2  502    0  0.22775016160E+02 -0.91022510794E+01  0.31813913728E+01  0.24732035640E+02  0.00000000000E+00 0. -1.
         -2    1    1    2    0  502 -0.22775016160E+02  0.91022510794E+01 -0.24847573084E+02  0.34913524943E+02  0.00000000000E+00 0. -1.
</event>
<event>
 4    1  0.5953944E+003  0.3029746E+02  0.7546771E-02  0.1417029E+00
          2   -1    0    0  501    0  0.00000000000E+00  0.00000000000E+00  0.58306030401E+01  0.58306030401E+01  0.00000000000E+00 0. -1.
         -2   -1    0    0    0  501 -0.00000000000E+00 -0.00000000000E+00 -0.40828480073E+03  0.40828480073E+03  0.00000000000E+00 0.  1.
          2    1    1    2  502    0  0.72421817676E+01 -0.29419158156E+02 -0.38927519306E+02  0.49328367323E+02  0.00000000000E+00 0. -1.
         -2    1    1    2    0  502 -0.72421817676E+01  0.29419158156E+02 -0.36352667838E+03  0.36478703645E+03  0.00000000000E+00 0.  1.
</event>
<event>
 4    1  0.5953944E+003  0.3285513E+02  0.7546771E-02  0.1396304E+00
          2   -1    0    0  501    0  0.00000000000E+00  0.00000000000E+00  0.50894835294E+02  0.50894835294E+02  0.00000000000E+00 0. -1.
         -2   -1    0    0    0  501 -0.00000000000E+00 -0.00000000000E+00 -0.27888330174E+02  0.27888330174E+02  0.00000000000E+00 0. -1.
          2    1    1    2  502    0 -0.18453021135E+02  0.27183554066E+02  0.30780223978E+02  0.45020903909E+02  0.00000000000E+00 0. -1.
         -2    1    1    2    0  502  0.18453021135E+02 -0.27183554066E+02 -0.77737188587E+01  0.33762261558E+02  0.00000000000E+00 0. -1.
</event>
<event>
 4    1  0.5953944E+003  0.3708167E+02  0.7546771E-02  0.1366491E+00
          2   -1    0    0  501    0  0.00000000000E+00  0.00000000000E+00  0.10731029927E+03  0.10731029927E+03  0.00000000000E+00 0. -1.
         -2   -1    0    0    0  501 -0.00000000000E+00 -0.00000000000E+00 -0.83412802025E+02  0.83412802025E+02  0.00000000000E+00 0. -1.
          2    1    1    2  502    0  0.29752462996E+02 -0.22132353578E+02  0.99680400014E+02  0.10635427719E+03  0.00000000000E+00 0. -1.
         -2    1    1    2    0  502 -0.29752462996E+02  0.22132353578E+02 -0.75782902769E+02  0.84368824108E+02  0.00000000000E+00 0. -1.
</event>
<event>
 4    1  0.5953944E+003  0.2218752E+02  0.7546771E-02  0.1502960E+00
          2   -1    0    0  501    0  0.00000000000E+00  0.00000000000E+00  0.30174737866E+01  0.30174737866E+01  0.00000000000E+00 0.  1.
         -2   -1    0    0    0  501 -0.00000000000E+00 -0.00000000000E+00 -0.52812832356E+03  0.52812832356E+03  0.00000000000E+00 0.  1.
          2    1    1    2  502    0 -0.10232382826E+01  0.22163917332E+02 -0.41780147603E+02  0.47306098781E+02  0.00000000000E+00 0.  1.
         -2    1    1    2    0  502  0.10232382826E+01 -0.22163917332E+02 -0.48333070217E+03  0.48383969857E+03  0.00000000000E+00 0.  1.
</event>
<event>
 4    1  0.5953944E+003  0.2655520E+02  0.7546771E-02  0.1452128E+00
          2   -1    0    0  501    0  0.00000000000E+00  0.00000000000E+00  0.38189096362E+02  0.38189096362E+02  0.00000000000E+00 0.  1.
         -2   -1    0    0    0  501 -0.00000000000E+00 -0.00000000000E+00 -0.63758860836E+02  0.63758860836E+02  0.00000000000E+00 0. -1.
          2    1    1    2  502    0 -0.90007326764E+01 -0.24983304882E+02  0.30178235378E+02  0.40198315911E+02  0.00000000000E+00 0.  1.
         -2    1    1    2    0  502  0.90007326764E+01  0.24983304882E+02 -0.55747999853E+02  0.61749641287E+02  0.00000000000E+00 0. -1.
</event>
<event>
 4    1  0.5953944E+003  0.2275433E+02  0.7546771E-02  0.1495606E+00
          2   -1    0    0  501    0  0.00000000000E+00  0.00000000000E+00  0.19275892830E+02  0.19275892830E+02  0.00000000000E+00 0.  1.
         -2   -1    0    0    0  501 -0.00000000000E+00 -0.00000000000E+00 -0.21224992388E+03  0.21224992388E+03  0.00000000000E+00 0.  1.
          2    1    1    2  502    0 -0.22202223270E+02  0.49820457990E+01  0.11703246535E+02  0.25587603990E+02  0.00000000000E+00 0.  1.
         -2    1    1    2    0  502  0.22202223270E+02 -0.49820457990E+01 -0.20467727759E+03  0.20593821272E+03  0.00000000000E+00 0.  1.
</event>
<event>
 4    1  0.5953944E+003  0.2437539E+02  0.7546771E-02  0.1475914E+00
          2   -1    0    0  501    0  0.00000000000E+00  0.00000000000E+00  0.36958060214E+02  0.36958060214E+02  0.00000000000E+00 0. -1.
         -2   -1    0    0    0  501 -0.00000000000E+00 -0.00000000000E+00 -0.16162410077E+02  0.16162410077E+02  0.00000000000E+00 0.  1.
          2    1    1    2  502    0 -0.17412487717E+01 -0.24313114904E+02  0.12333260194E+02  0.27317921052E+02  0.00000000000E+00 0. -1.
         -2    1    1    2    0  502  0.17412487717E+01  0.24313114904E+02  0.84623899434E+01  0.25802549238E+02  0.00000000000E+00 0.  1.
</event>
<event>
 4    1  0.5953944E+003  0.2217776E+02  0.7546771E-02  0.1503089E+00
          2   -1    0    0  501    0  0.00000000000E+00  0.00000000000E+00  0.82773589848E+03  0.82773589848E+03  0.00000000000E+00 0. -1.
         -2   -1    0    0    0  501 -0.00000000000E+00 -0.00000000000E+00 -0.61067879542E+01  0.61067879542E+01  0.00000000000E+00 0. -1.
          2    1    1    2  502    0  0.12766964637E+02 -0.18134431509E+02  0.80693283806E+03  0.80723754752E+03  0.00000000000E+00 0. -1.
         -2    1    1    2    0  502 -0.12766964637E+02  0.18134431509E+02  0.14696272470E+02  0.26605138915E+02  0.00000000000E+00 0. -1.
</event>
<event>
 4    1  0.5953944E+003  0.2122548E+02  0.7546771E-02  0.1516070E+00
          2   -1    0    0  501    0  0.00000000000E+00  0.00000000000E+00  0.81348966476E+03  0.81348966476E+03  0.00000000000E+00 0.  1.
         -2   -1    0    0    0  501 -0.00000000000E+00 -0.00000000000E+00 -0.45260588582E+02  0.45260588582E+02  0.00000000000E+00 0. -1.
          2    1    1    2  502    0 -0.21100774984E+02 -0.22974416964E+01  0.81085464250E+03  0.81113240115E+03  0.00000000000E+00 0.  1.
         -2    1    1    2    0  502  0.21100774984E+02  0.22974416964E+01 -0.42625566317E+02  0.47617852189E+02  0.00000000000E+00 0. -1.
</event>
<event>
 4    1  0.5953944E+003  0.6454963E+02  0.7546771E-02  0.1245112E+00
          2   -1    0    0  501    0  0.00000000000E+00  0.00000000000E+00  0.15046628450E+04  0.15046628450E+04  0.00000000000E+00 0.  1.
         -2   -1    0    0    0  501 -0.00000000000E+00 -0.00000000000E+00 -0.44414580991E+01  0.44414580991E+01  0.00000000000E+00 0.  1.
          2    1    1    2  502    0 -0.58537222251E+01 -0.64283661545E+02  0.12131129021E+04  0.12148290285E+04  0.00000000000E+00 0.  1.
         -2    1    1    2    0  502  0.58537222251E+01  0.64283661545E+02  0.28710848483E+03  0.29427527464E+03  0.00000000000E+00 0.  1.
</event>
<event>
 4    1  0.5953944E+003  0.2152735E+02  0.7546771E-02  0.1511867E+00
          2   -1    0    0  501    0  0.00000000000E+00  0.00000000000E+00  0.32867269757E+01  0.32867269757E+01  0.00000000000E+00 0.  1.
         -2   -1    0    0    0  501 -0.00000000000E+00 -0.00000000000E+00 -0.23818459120E+03  0.23818459120E+03  0.00000000000E+00 0.  1.
          2    1    1    2  502    0  0.21230760717E+02  0.35611153381E+01 -0.40326870776E+02  0.45713053384E+02  0.00000000000E+00 0.  1.
         -2    1    1    2    0  502 -0.21230760717E+02 -0.35611153381E+01 -0.19457099345E+03  0.19575826479E+03  0.00000000000E+00 0.  1.
</event>
<event>
 4    1  0.5953944E+003  0.2630012E+02  0.7546771E-02  0.1454768E+00
          2   -1    0    0  501    0  0.00000000000E+00  0.00000000000E+00  0.60978017781E+02  0.60978017781E+02  0.00000000000E+00 0.  1.
         -2   -1    0    0    0  501 -0.00000000000E+00 -0.00000000000E+00 -0.70768009121E+02  0.70768009121E+02  0.00000000000E+00 0. -1.
          2    1    1    2  502    0 -0.18149292869E+02 -0.19034164641E+02  0.55468212920E+02  0.61387449041E+02  0.00000000000E+00 0.  1.
         -2    1    1    2    0  502  0.18149292869E+02  0.19034164641E+02 -0.65258204261E+02  0.70358577861E+02  0.00000000000E+00 0. -1.
</event>
<event>
 4    1  0.5953944E+003  0.2228203E+02  0.7546771E-02  0.1501716E+00
          2   -1    0    0  501    0  0.00000000000E+00  0.00000000000E+00  0.28655995715E+03  0.28655995715E+03  0.00000000000E+00 0.  1.
         -2   -1    0    0    0  501 -0.00000000000E+00 -0.00000000000E+00 -0.13644992520E+02  0.13644992520E+02  0.00000000000E+00 0.  1.
          2    1    1    2  502    0 -0.22138589943E+02  0.25242308039E+01  0.27670688155E+03  0.27760257059E+03  0.00000000000E+00 0.  1.
         -2    1    1    2    0  502  0.22138589943E+02 -0.25242308039E+01 -0.37919169189E+01  0.22602379072E+02  0.00000000000E+00 0.  1.
</event>
<event>
 4    1  0.5953944E+003  0.2122138E+02  0.7546771E-02  0.1516127E+00
          2   -1    0    0  501    0  0.00000000000E+00  0.00000000000E+00  0.35190206423E+03  0.35190206423E+03  0.00000000000E+00 0.  1.
         -2   -1    0    0    0  501 -0.00000000000E+00 -0.00000000000E+00 -0.15988705528E+01  0.15988705528E+01  0.00000000000E+00 0.  1.
          2    1    1    2  502    0 -0.10189238863E+02 -0.18615221967E+02  0.25411584640E+03  0.25500041269E+03  0.00000000000E+00 0.  1.
         -2    1    1    2    0  502  0.10189238863E+02  0.18615221967E+02  0.96187347277E+02  0.98500522098E+02  0.00000000000E+00 0.  1.
</event>
<event>
 4    1  0.5953944E+003  0.2073359E+02  0.7546771E-02  0.1523103E+00
          2   -1    0    0  501    0  0.00000000000E+00  0.00000000000E+00  0.29925882223E+03  0.29925882223E+03  0.00000000000E+00 0. -1.
         -2   -1    0    0    0  501 -0.00000000000E+00 -0.00000000000E+00 -0.48797224131E+01  0.48797224131E+01  0.00000000000E+00 0.  1.
          2    1    1    2  502    0 -0.19781436403E+02 -0.62110065649E+01  0.27492962833E+03  0.27571032328E+03  0.00000000000E+00 0. -1.
         -2    1    1    2    0  502  0.19781436403E+02  0.62110065649E+01  0.19449471480E+02  0.28428221357E+02  0.00000000000E+00 0.  1.
</event>
<event>
 4    1  0.5953944E+003  0.3006297E+02  0.7546771E-02  0.1419050E+00
          2   -1    0    0  501    0  0.00000000000E+00  0.00000000000E+00  0.10453348390E+03  0.10453348390E+03  0.00000000000E+00 0.  1.
         -2   -1    0    0    0  501 -0.00000000000E+00 -0.00000000000E+00 -0.89570326717E+01  0.89570326717E+01  0.00000000000E+00 0. -1.
          2    1    1    2  502    0  0.29321315109E+02 -0.66364588703E+01  0.58364838931E+02  0.65652391651E+02  0.00000000000E+00 0. -1.
         -2    1    1    2    0  502 -0.29321315109E+02  0.66364588703E+01  0.37211612294E+02  0.47838124917E+02  0.00000000000E+00 0.  1.
</event>
<event>
 4    1  0.5953944E+003  0.3106088E+02  0.7546771E-02  0.1410596E+00
          2   -1    0    0  501    0  0.00000000000E+00  0.00000000000E+00  0.82092883908E+03  0.82092883908E+03  0.00000000000E+00 0. -1.
         -2   -1    0    0    0  501 -0.00000000000E+00 -0.00000000000E+00 -0.21500554610E+01  0.21500554610E+01  0.00000000000E+00 0. -1.
          2    1    1    2  502    0 -0.26380931671E+02 -0.16395879475E+02  0.68649834226E+03  0.68720066382E+03  0.00000000000E+00 0. -1.
         -2    1    1    2    0  502  0.26380931671E+02  0.16395879475E+02  0.13228044136E+03  0.13587823073E+03  0.00000000000E+00 0. -1.
</event>
<event>
 4    1  0.5953944E+003  0.2656107E+02  0.7546771E-02  0.1452068E+00
          2   -1    0    0  501    0  0.00000000000E+00  0.00000000000E+00  0.54893483254E+03  0.54893483254E+03  0.00000000000E+00 0.  1.
         -2   -1    0    0    0  501 -0.00000000000E+00 -0.00000000000E+00 -0.31701168605E+01  0.31701168605E+01  0.00000000000E+00 0. -1.
          2    1    1    2  502    0 -0.11113368840E+02  0.24124330826E+02  0.48574539973E+03  0.48647105121E+03  0.00000000000E+00 0.  1.
         -2    1    1    2    0  502  0.11113368840E+02 -0.24124330826E+02  0.60019315944E+02  0.65633898186E+02  0.00000000000E+00 0. -1.
</event>
<event>
 4    1  0.5953944E+003  0.2125643E+02  0.7546771E-02  0.1515635E+00
          2   -1    0    0  501    0  0.00000000000E+00  0.00000000000E+00  0.36771031423E+02  0.36771031423E+02  0.00000000000E+00 0.  1.
         -2   -1    0    0    0  501 -0.00000000000E+00 -0.00000000000E+00 -0.74110716914E+02  0.74110716914E+02  0.00000000000E+00 0. -1.
          2    1    1    2  502    0 -0.19413334218E+02  0.86578538027E+01  0.31966720548E+02  0.38388894234E+02  0.00000000000E+00 0.  1.
         -2    1    1    2    0  502  0.19413334218E+02 -0.86578538027E+01 -0.69306406039E+02  0.72492854102E+02  0.00000000000E+00 0. -1.
</event>
<event>
 4    1  0.5953944E+003  0.4147505E+02  0.7546771E-02  0.1340052E+00
          2   -1    0    0  501    0  0.00000000000E+00  0.00000000000E+00  0.31165952485E+04  0.31165952485E+04  0.00000000000E+00 0. -1.
         -2   -1    0    0    0  501 -0.00000000000E+00 -0.00000000000E+00 -0.41082937068E+01  0.41082937068E+01  0.00000000000E+00 0. -1.
          2    1    1    2  502    0 -0.37928225394E+02  0.16781831482E+02  0.30080011221E+04  0.30082870426E+04  0.00000000000E+00 0. -1.
         -2    1    1    2    0  502  0.37928225394E+02 -0.16781831482E+02  0.10448583271E+03  0.11241649962E+03  0.00000000000E+00 0. -1.
</event>
<event>
 4    1  0.5953944E+003  0.2077921E+02  0.7546771E-02  0.1522441E+00
          2   -1    0    0  501    0  0.00000000000E+00  0.00000000000E+00  0.74068073353E+03  0.74068073353E+03  0.00000000000E+00 0. -1.
         -2   -1    0    0    0  501 -0.00000000000E+00 -0.00000000000E+00 -0.75890010767E+00  0.75890010767E+00  0.00000000000E+00 0.  1.
          2    1    1    2  502    0  0.89532876593E+01  0.18751381952E+02  0.54846788556E+03  0.54886136426E+03  0.00000000000E+00 0. -1.
         -2    1    1    2    0  502 -0.89532876593E+01 -0.18751381952E+02  0.19145394786E+03  0.19257826938E+03  0.00000000000E+00 0.  1.
</event>
<event>
 4    1  0.5953944E+003  0.2980345E+02  0.7546771E-02  0.1421312E+00
          2   -1    0    0  501    0  0.00000000000E+00  0.00000000000E+00  0.63482203375E+02  0.63482203375E+02  0.00000000000E+00 0.  1.
         -2   -1    0    0    0  501 -0.00000000000E+00 -0.00000000000E+00 -0.14115277944E+03  0.14115277944E+03  0.00000000000E+00 0.  1.
          2    1    1    2  502    0  0.16852849850E+02 -0.24581028799E+02  0.58278677640E+02  0.65457236363E+02  0.00000000000E+00 0.  1.
         -2    1    1    2    0  502 -0.16852849850E+02  0.24581028799E+02 -0.13594925371E+03  0.13917774646E+03  0.00000000000E+00 0.  1.
</event>
<event>
 4    1  0.5953944E+003  0.2044345E+02  0.7546771E-02  0.1527361E+00
          2   -1    0    0  501    0  0.00000000000E+00  0.00000000000E+00  0.61263890780E+02  0.61263890780E+02  0.00000000000E+00 0. -1.
         -2   -1    0    0    0  501 -0.00000000000E+00 -0.00000000000E+00 -0.37570211206E+02  0.37570211206E+02  0.00000000000E+00 0.  1.
          2    1    1    2  502    0  0.11163581717E+02 -0.17126271682E+02  0.56552838553E+02  0.60134501635E+02  0.00000000000E+00 0. -1.
         -2    1    1    2    0  502 -0.11163581717E+02  0.17126271682E+02 -0.32859158980E+02  0.38699600351E+02  0.00000000000E+00 0.  1.
</event>
<event>
 4    1  0.5953944E+003  0.2717657E+02  0.7546771E-02  0.1445842E+00
          2   -1    0    0  501    0  0.00000000000E+00  0.00000000000E+00  0.31851375290E+02  0.31851375290E+02  0.00000000000E+00 0.  1.
         -2   -1    0    0    0  501 -0.00000000000E+00 -0.00000000000E+00 -0.17477077835E+03  0.17477077835E+03  0.00000000000E+00 0. -1.
          2    1    1    2  502    0 -0.99981390720E+01 -0.25270603487E+02  0.24754142679E+02  0.36760491908E+02  0.00000000000E+00 0.  1.
         -2    1    1    2    0  502  0.99981390720E+01  0.25270603487E+02 -0.16767354574E+03  0.16986166173E+03  0.00000000000E+00 0. -1.
</event>
<event>
 4    1  0.5953944E+003  0.2048664E+02  0.7546771E-02  0.1526722E+00
          2   -1    0    0  501    0  0.00000000000E+00  0.00000000000E+00  0.20504334646E+01  0.20504334646E+01  0.00000000000E+00 0.  1.
         -2   -1    0    0    0  501 -0.00000000000E+00 -0.00000000000E+00 -0.35632248185E+03  0.35632248185E+03  0.00000000000E+00 0. -1.
          2    1    1    2  502    0 -0.43198436711E+01  0.20026021432E+02 -0.60245275099E+02  0.63633291252E+02  0.00000000000E+00 0.  1.
         -2    1    1    2    0  502  0.43198436711E+01 -0.20026021432E+02 -0.29402677329E+03  0.29473962406E+03  0.00000000000E+00 0. -1.
</event>
<event>
 4    1  0.5953944E+003  0.2207615E+02  0.7546771E-02  0.1504437E+00
          2   -1    0    0  501    0  0.00000000000E+00  0.00000000000E+00  0.20907535461E+02  0.20907535461E+02  0.00000000000E+00 0.  1.
         -2   -1    0    0    0  501 -0.00000000000E+00 -0.00000000000E+00 -0.25930823086E+03  0.25930823086E+03  0.00000000000E+00 0. -1.
          2    1    1    2  502    0 -0.21928551658E+02 -0.25485497320E+01  0.14461885661E+02  0.26391336086E+02  0.00000000000E+00 0.  1.
         -2    1    1    2    0  502  0.21928551658E+02  0.25485497320E+01 -0.25286258106E+03  0.25382443023E+03  0.00000000000E+00 0. -1.
</event>
<event>
 4    1  0.5953944E+003  0.2545255E+02  0.7546771E-02  0.1463804E+00
          2   -1    0    0  501    0  0.00000000000E+00  0.00000000000E+00  0.27345844972E+03  0.27345844972E+03  0.00000000000E+00 0. -1.
         -2   -1    0    0    0  501 -0.00000000000E+00 -0.00000000000E+00 -0.21835426335E+02  0.21835426335E+02  0.00000000000E+00 0. -1.
          2    1    1    2  502    0 -0.19630618006E+02  0.16200965283E+02  0.26521907615E+03  0.26643759268E+03  0.00000000000E+00 0. -1.
         -2    1    1    2    0  502  0.19630618006E+02 -0.16200965283E+02 -0.13596052765E+02  0.28856283374E+02  0.00000000000E+00 0. -1.
</event>
<event>
 4    1  0.5953944E+003  0.2807210E+02  0.7546771E-02  0.1437126E+00
          2   -1    0    0  501    0  0.00000000000E+00  0.00000000000E+00  0.23518357248E+03  0.23518357248E+03  0.00000000000E+00 0. -1.
         -2   -1    0    0    0  501 -0.00000000000E+00 -0.00000000000E+00 -0.38221051122E+02  0.38221051122E+02  0.00000000000E+00 0. -1.
          2    1    1    2  502    0  0.18886936284E+02 -0.20768403000E+02  0.22905395122E+03  0.23076775228E+03  0.00000000000E+00 0. -1.
         -2    1    1    2    0  502 -0.18886936284E+02  0.20768403000E+02 -0.32091429860E+02  0.42636871318E+02  0.00000000000E+00 0. -1.
</event>
<event>
 4    1  0.5953944E+003  0.2435348E+02  0.7546771E-02  0.1476168E+00
          2   -1    0    0  501    0  0.00000000000E+00  0.00000000000E+00  0.92437326351E+02  0.92437326351E+02  0.00000000000E+00 0. -1.
         -2   -1    0    0    0  501 -0.00000000000E+00 -0.00000000000E+00 -0.11580441668E+02  0.11580441668E+02  0.00000000000E+00 0. -1.
          2    1    1    2  502    0 -0.16468193652E+02 -0.17941303189E+02  0.75159687171E+02  0.79006774000E+02  0.00000000000E+00 0. -1.
         -2    1    1    2    0  502  0.16468193652E+02  0.17941303189E+02  0.56971975117E+01  0.25010994018E+02  0.00000000000E+00 0. -1.
</event>
<event>
 4    1  0.5953944E+003  0.2879489E+02  0.7546771E-02  0.1430366E+00
          2   -1    0    0  501    0  0.00000000000E+00  0.00000000000E+00  0.11484218523E+03  0.11484218523E+03  0.00000000000E+00 0.  1.
         -2   -1    0    0    0  501 -0.00000000000E+00 -0.00000000000E+00 -0.46324242115E+02  0.46324242115E+02  0.00000000000E+00 0. -1.
          2    1    1    2  502    0 -0.36780379413E+01 -0.28559023148E+02  0.10829669809E+03  0.11205945112E+03  0.00000000000E+00 0.  1.
         -2    1    1    2    0  502  0.36780379413E+01  0.28559023148E+02 -0.39778754982E+02  0.49106976227E+02  0.00000000000E+00 0. -1.
</event>
<event>
 4    1  0.5953944E+003  0.2263583E+02  0.7546771E-02  0.1497122E+00
          2   -1    0    0  501    0  0.00000000000E+00  0.00000000000E+00  0.16456692550E+04  0.16456692550E+04  0.00000000000E+00 0. -1.
         -2   -1    0    0    0  501 -0.00000000000E+00 -0.00000000000E+00 -0.87249437873E+00  0.87249437873E+00  0.00000000000E+00 0.  1.
          2    1    1    2  502    0  0.15577667627E+02 -0.16423067471E+02  0.14826330550E+04  0.14828058391E+04  0.00000000000E+00 0. -1.
         -2    1    1    2    0  502 -0.15577667627E+02  0.16423067471E+02  0.16216370567E+03  0.16373591026E+03  0.00000000000E+00 0.  1.
</event>
<event>
 4    1  0.5953944E+003  0.2113914E+02  0.7546771E-02  0.1517287E+00
          2   -1    0    0  501    0  0.00000000000E+00  0.00000000000E+00  0.74550051583E+02  0.74550051583E+02  0.00000000000E+00 0. -1.
         -2   -1    0    0    0  501 -0.00000000000E+00 -0.00000000000E+00 -0.10915687791E+04  0.10915687791E+04  0.00000000000E+00 0. -1.
          2    1    1    2  502    0  0.16647717428E+02  0.13027539860E+02  0.72946969040E+02  0.75948163786E+02  0.00000000000E+00 0. -1.
         -2    1    1    2    0  502 -0.16647717428E+02 -0.13027539860E+02 -0.10899656966E+04  0.10901706669E+04  0.00000000000E+00 0. -1.
</event>
<event>
 4    1  0.7228845E+003  0.2278094E+02  0.7546771E-02  0.1495267E+00
          2   -1    0    0  501    0  0.00000000000E+00  0.00000000000E+00  0.14967256086E+04  0.14967256086E+04  0.00000000000E+00 0.  1.
         -2   -1    0    0    0  501 -0.00000000000E+00 -0.00000000000E+00 -0.10598672425E+03  0.10598672425E+03  0.00000000000E+00 0.  1.
          2    1    1    2  502    0  0.10217367805E+02  0.20361153211E+02  0.14954137084E+04  0.14955872193E+04  0.00000000000E+00 0.  1.
         -2    1    1    2    0  502 -0.10217367805E+02 -0.20361153211E+02 -0.10467482406E+03  0.10712511357E+03  0.00000000000E+00 0.  1.
</event>
<event>
 4    1  0.5953944E+003  0.2864258E+02  0.7546771E-02  0.1431771E+00
          2   -1    0    0  501    0  0.00000000000E+00  0.00000000000E+00  0.12741126399E+04  0.12741126399E+04  0.00000000000E+00 0.  1.
         -2   -1    0    0    0  501 -0.00000000000E+00 -0.00000000000E+00 -0.20346367754E+01  0.20346367754E+01  0.00000000000E+00 0. -1.
          2    1    1    2  502    0  0.19800391329E+02  0.20696418561E+02  0.11635728171E+04  0.11639252974E+04  0.00000000000E+00 0.  1.
         -2    1    1    2    0  502 -0.19800391329E+02 -0.20696418561E+02  0.10850518605E+03  0.11222197930E+03  0.00000000000E+00 0. -1.
</event>
<event>
 4    1  0.5953944E+003  0.2494021E+02  0.7546771E-02  0.1469473E+00
          2   -1    0    0  501    0  0.00000000000E+00  0.00000000000E+00  0.63513061856E+01  0.63513061856E+01  0.00000000000E+00 0.  1.
         -2   -1    0    0    0  501 -0.00000000000E+00 -0.00000000000E+00 -0.98242876850E+03  0.98242876850E+03  0.00000000000E+00 0.  1.
          2    1    1    2  502    0  0.12378963352E+02 -0.21651221642E+02 -0.18937466544E+02  0.31315200324E+02  0.00000000000E+00 0.  1.
         -2    1    1    2    0  502 -0.12378963352E+02  0.21651221642E+02 -0.95713999577E+03  0.95746487436E+03  0.00000000000E+00 0.  1.
</event>
<event>
 4    1  0.5953944E+003  0.2880323E+02  0.7546771E-02  0.1430289E+00
          2   -1    0    0  501    0  0.00000000000E+00  0.00000000000E+00  0.21149988227E+04  0.21149988227E+04  0.00000000000E+00 0.  1.
         -2   -1    0    0    0  501 -0.00000000000E+00 -0.00000000000E+00 -0.26503426389E+03  0.26503426389E+03  0.00000000000E+00 0. -1.
          2    1    1    2  502    0 -0.15249288160E+02 -0.24435330921E+02  0.21141178670E+04  0.21143140689E+04  0.00000000000E+00 0.  1.
         -2    1    1    2    0  502  0.15249288160E+02  0.24435330921E+02 -0.26415330816E+03  0.26571901776E+03  0.00000000000E+00 0. -1.
</event>
<event>
 4    1  0.5953944E+003  0.2495022E+02  0.7546771E-02  0.1469361E+00
          2   -1    0    0  501    0  0.00000000000E+00  0.00000000000E+00  0.45278832955E+01  0.45278832955E+01  0.00000000000E+00 0. -1.
         -2   -1    0    0    0  501 -0.00000000000E+00 -0.00000000000E+00 -0.13941201583E+03  0.13941201583E+03  0.00000000000E+00 0.  1.
          2    1    1    2  502    0 -0.78611917974E+01 -0.23679416279E+02 -0.75904922593E+02  0.79900377757E+02  0.00000000000E+00 0.  1.
         -2    1    1    2    0  502  0.78611917974E+01  0.23679416279E+02 -0.58979209939E+02  0.64039521366E+02  0.00000000000E+00 0. -1.
</event>
<event>
 4    1  0.5953944E+003  0.3587346E+02  0.7546771E-02  0.1374524E+00
          2   -1    0    0  501    0  0.00000000000E+00  0.00000000000E+00  0.30677111644E+03  0.30677111644E+03  0.00000000000E+00 0.  1.
         -2   -1    0    0    0  501 -0.00000000000E+00 -0.00000000000E+00 -0.40495175399E+03  0.40495175399E+03  0.00000000000E+00 0. -1.
          2    1    1    2  502    0 -0.59473949803E+01 -0.35377024712E+02  0.30492308679E+03  0.30702604815E+03  0.00000000000E+00 0.  1.
         -2    1    1    2    0  502  0.59473949803E+01  0.35377024712E+02 -0.40310372434E+03  0.40469682228E+03  0.00000000000E+00 0. -1.
</event>
<event>
 4    1  0.5953944E+003  0.2989775E+02  0.7546771E-02  0.1420487E+00
          2   -1    0    0  501    0  0.00000000000E+00  0.00000000000E+00  0.12810131546E+01  0.12810131546E+01  0.00000000000E+00 0.  1.
         -2   -1    0    0    0  501 -0.00000000000E+00 -0.00000000000E+00 -0.98519262809E+03  0.98519262809E+03  0.00000000000E+00 0. -1.
          2    1    1    2  502    0 -0.24700906432E+02 -0.16844600587E+02 -0.22555106933E+03  0.22752397725E+03  0.00000000000E+00 0.  1.
         -2    1    1    2    0  502  0.24700906432E+02  0.16844600587E+02 -0.75836054561E+03  0.75894966400E+03  0.00000000000E+00 0. -1.
</event>
<event>
 4    1  0.5953944E+003  0.2136685E+02  0.7546771E-02  0.1514091E+00
          2   -1    0    0  501    0  0.00000000000E+00  0.00000000000E+00  0.21420829314E+04  0.21420829314E+04  0.00000000000E+00 0. -1.
         -2   -1    0    0    0  501 -0.00000000000E+00 -0.00000000000E+00 -0.22733358477E+00  0.22733358477E+00  0.00000000000E+00 0. -1.
          2    1    1    2  502    0  0.15617776336E+02 -0.14581744243E+02  0.13386713836E+04  0.13388418934E+04  0.00000000000E+00 0. -1.
         -2    1    1    2    0  502 -0.15617776336E+02  0.14581744243E+02  0.80318421416E+03  0.80346837155E+03  0.00000000000E+00 0. -1.
</event>
<event>
 4    1  0.5953944E+003  0.2573698E+02  0.7546771E-02  0.1460725E+00
          2   -1    0    0  501    0  0.00000000000E+00  0.00000000000E+00  0.13744157959E+03  0.13744157959E+03  0.00000000000E+00 0. -1.
         -2   -1    0    0    0  501 -0.00000000000E+00 -0.00000000000E+00 -0.56617497894E+01  0.56617497894E+01  0.00000000000E+00 0. -1.
          2    1    1    2  502    0 -0.21022678540E+02 -0.14847184202E+02  0.93488034648E+02  0.96965996690E+02  0.00000000000E+00 0. -1.
         -2    1    1    2    0  502  0.21022678540E+02  0.14847184202E+02  0.38291795156E+02  0.46137332693E+02  0.00000000000E+00 0. -1.
</event>
<event>
 4    1  0.5953944E+003  0.2475133E+02  0.7546771E-02  0.1471605E+00
          2   -1    0    0  501    0  0.00000000000E+00  0.00000000000E+00  0.98451591720E+01  0.98451591720E+01  0.00000000000E+00 0.  1.
         -2   -1    0    0    0  501 -0.00000000000E+00 -0.00000000000E+00 -0.11476772167E+04  0.11476772167E+04  0.00000000000E+00 0.  1.
          2    1    1    2  502    0 -0.10026981074E+02 -0.22629363886E+02 -0.60635263198E+01  0.25483226066E+02  0.00000000000E+00 0.  1.
         -2    1    1    2    0  502  0.10026981074E+02  0.22629363886E+02 -0.11317685312E+04  0.11320391498E+04  0.00000000000E+00 0.  1.
</event>
<event>
 4    1  0.5953944E+003  0.2058133E+02  0.7546771E-02  0.1525327E+00
          2   -1    0    0  501    0  0.00000000000E+00  0.00000000000E+00  0.71855019364E+02  0.71855019364E+02  0.00000000000E+00 0.  1.
         -2   -1    0    0    0  501 -0.00000000000E+00 -0.00000000000E+00 -0.92525431411E+01  0.92525431411E+01  0.00000000000E+00 0. -1.
          2    1    1    2  502    0  0.14892510180E+02  0.14205787713E+02  0.55730270362E+02  0.59409210554E+02  0.00000000000E+00 0.  1.
         -2    1    1    2    0  502 -0.14892510180E+02 -0.14205787713E+02  0.68722058606E+01  0.21698351951E+02  0.00000000000E+00 0. -1.
</event>
<event>
 4    1  0.5953944E+003  0.4265119E+02  0.7546771E-02  0.1333613E+00
          2   -1    0    0  501    0  0.00000000000E+00  0.00000000000E+00  0.16106415701E+04  0.16106415701E+04  0.00000000000E+00 0. -1.
         -2   -1    0    0    0  501 -0.00000000000E+00 -0.00000000000E+00 -0.17114571266E+02  0.17114571266E+02  0.00000000000E+00 0. -1.
          2    1    1    2  502    0 -0.17725836614E+02 -0.38793284838E+02  0.15833281561E+04  0.15839025141E+04  0.00000000000E+00 0. -1.
         -2    1    1    2    0  502  0.17725836614E+02  0.38793284838E+02  0.10198842732E+02  0.43853627276E+02  0.00000000000E+00 0. -1.
</event>
<event>
 4    1  0.5953944E+003  0.6310560E+02  0.7546771E-02  0.1249631E+00
          2   -1    0    0  501    0  0.00000000000E+00  0.00000000000E+00  0.11182839120E+04  0.11182839120E+04  0.00000000000E+00 0. -1.
         -2   -1    0    0    0  501 -0.00000000000E+00 -0.00000000000E+00 -0.11712972623E+02  0.11712972623E+02  0.00000000000E+00 0. -1.
          2    1    1    2  502    0 -0.42211779723E+00  0.63104187698E+02  0.10246343478E+04  0.10265757953E+04  0.00000000000E+00 0. -1.
         -2    1    1    2    0  502  0.42211779723E+00 -0.63104187698E+02  0.81936591555E+02  0.10342108936E+03  0.00000000000E+00 0. -1.
</event>
<event>
 4    1  0.5953944E+003  0.4506378E+02  0.7546771E-02  0.1321121E+00
          2   -1    0    0  501    0  0.00000000000E+00  0.00000000000E+00  0.20364258837E+03  0.20364258837E+03  0.00000000000E+00 0. -1.
         -2   -1    0    0    0  501 -0.00000000000E+00 -0.00000000000E+00 -0.99726798600E+01  0.99726798600E+01  0.00000000000E+00 0.  1.
          2    1    1    2  502    0 -0.42471613140E+02  0.15063340093E+02  0.96013245073E+02  0.10606264831E+03  0.00000000000E+00 0.  1.
         -2    1    1    2    0  502  0.42471613140E+02 -0.15063340093E+02  0.97656663433E+02  0.10755261991E+03  0.00000000000E+00 0. -1.
</event>
<event>
 4    1  0.5953944E+003  0.3145516E+02  0.7546771E-02  0.1407359E+00
          2   -1    0    0  501    0  0.00000000000E+00  0.00000000000E+00  0.27121858029E+03  0.27121858029E+03  0.00000000000E+00 0.  1.
         -2   -1    0    0    0  501 -0.00000000000E+00 -0.00000000000E+00 -0.11769416124E+03  0.11769416124E+03  0.00000000000E+00 0.  1.
          2    1    1    2  502    0 -0.31453181886E+02 -0.35242657306E+00  0.26818114734E+03  0.27001954493E+03  0.00000000000E+00 0.  1.
         -2    1    1    2    0  502  0.31453181886E+02  0.35242657306E+00 -0.11465672829E+03  0.11889319660E+03  0.00000000000E+00 0.  1.
</event>
<event>
 4    1  0.5953944E+003  0.3294978E+02  0.7546771E-02  0.1395580E+00
          2   -1    0    0  501    0  0.00000000000E+00  0.00000000000E+00  0.18319339086E+03  0.18319339086E+03  0.00000000000E+00 0. -1.
         -2   -1    0    0    0  501 -0.00000000000E+00 -0.00000000000E+00 -0.56436574172E+03  0.56436574172E+03  0.00000000000E+00 0. -1.
          2    1    1    2  502    0 -0.22815424836E+02 -0.23772770727E+02  0.18122566358E+03  0.18419671381E+03  0.00000000000E+00 0. -1.
         -2    1    1    2    0  502  0.22815424836E+02  0.23772770727E+02 -0.56239801443E+03  0.56336241877E+03  0.00000000000E+00 0. -1.
</event>
<event>
 4    1  0.5953944E+003  0.2712405E+02  0.7546771E-02  0.1446366E+00
          2   -1    0    0  501    0  0.00000000000E+00  0.00000000000E+00  0.17361371757E+04  0.17361371757E+04  0.00000000000E+00 0.  1.
         -2   -1    0    0    0  501 -0.00000000000E+00 -0.00000000000E+00 -0.21224568863E+01  0.21224568863E+01  0.00000000000E+00 0. -1.
          2    1    1    2  502    0 -0.14207900221E+02 -0.23105185966E+02  0.16445469754E+04  0.16447706430E+04  0.00000000000E+00 0.  1.
         -2    1    1    2    0  502  0.14207900221E+02  0.23105185966E+02  0.89467743443E+02  0.93488989533E+02  0.00000000000E+00 0. -1.
</event>
<event>
 4    1  0.5953944E+003  0.2350940E+02  0.7546771E-02  0.1486199E+00
          2   -1    0    0  501    0  0.00000000000E+00  0.00000000000E+00  0.54613074393E+03  0.54613074393E+03  0.00000000000E+00 0.  1.
         -2   -1    0    0    0  501 -0.00000000000E+00 -0.00000000000E+00 -0.10184899344E+01  0.10184899344E+01  0.00000000000E+00 0. -1.
          2    1    1    2  502    0 -0.17515249602E+02 -0.15681447878E+02  0.29437136000E+03  0.29530863408E+03  0.00000000000E+00 0.  1.
         -2    1    1    2    0  502  0.17515249602E+02  0.15681447878E+02  0.25074089400E+03  0.25184059979E+03  0.00000000000E+00 0. -1.
</event>
<event>
 4    1  0.5953944E+003  0.2049690E+02  0.7546771E-02  0.1526570E+00
          2   -1    0    0  501    0  0.00000000000E+00  0.00000000000E+00  0.35779547348E+03  0.35779547348E+03  0.00000000000E+00 0. -1.
         -2   -1    0    0    0  501 -0.00000000000E+00 -0.00000000000E+00 -0.30999447604E+01  0.30999447604E+01  0.00000000000E+00 0. -1.
          2    1    1    2  502    0  0.10860509289E+02 -0.17383106887E+02  0.31957208793E+03  0.32022873458E+03  0.00000000000E+00 0. -1.
         -2    1    1    2    0  502 -0.10860509289E+02  0.17383106887E+02  0.35123440796E+02  0.40666683667E+02  0.00000000000E+00 0. -1.
</event>
<event>
 4    1  0.5953944E+003  0.3663552E+02  0.7546771E-02  0.1369416E+00
          2   -1    0    0  501    0  0.00000000000E+00  0.00000000000E+00  0.56404906004E+03  0.56404906004E+03  0.00000000000E+00 0. -1.
         -2   -1    0    0    0  501 -0.00000000000E+00 -0.00000000000E+00 -0.26898626301E+01  0.26898626301E+01  0.00000000000E+00 0. -1.
          2    1    1    2  502    0 -0.97966115852E+01 -0.35301383225E+02  0.37693267547E+03  0.37870886324E+03  0.00000000000E+00 0. -1.
         -2    1    1    2    0  502  0.97966115852E+01  0.35301383225E+02  0.18442652194E+03  0.18803005944E+03  0.00000000000E+00 0. -1.
</event>
<event>
 4    1  0.5953944E+003  0.2269029E+02  0.7546771E-02  0.1496424E+00
          2   -1    0    0  501    0  0.00000000000E+00  0.00000000000E+00  0.56784464028E+02  0.56784464028E+02  0.00000000000E+00 0.  1.
         -2   -1    0    0    0  501 -0.00000000000E+00 -0.00000000000E+00 -0.24668739292E+02  0.24668739292E+02  0.00000000000E+00 0. -1.
          2    1    1    2  502    0 -0.14376721338E+02 -0.17554462382E+02  0.48446672608E+02  0.53497003213E+02  0.00000000000E+00 0.  1.
         -2    1    1    2    0  502  0.14376721338E+02  0.17554462382E+02 -0.16330947873E+02  0.27956200107E+02  0.00000000000E+00 0. -1.
</event>
<event>
 4    1  0.5953944E+003  0.2220712E+02  0.7546771E-02  0.1502702E+00
          2   -1    0    0  501    0  0.00000000000E+00  0.00000000000E+00  0.12117993328E+04  0.12117993328E+04  0.00000000000E+00 0.  1.
         -2   -1    0    0    0  501 -0.00000000000E+00 -0.00000000000E+00 -0.25238264772E+02  0.25238264772E+02  0.00000000000E+00 0.  1.
          2    1    1    2  502    0 -0.15126794414E+02  0.16258417728E+02  0.12067923225E+04  0.12069966304E+04  0.00000000000E+00 0.  1.
         -2    1    1    2    0  502  0.15126794414E+02 -0.16258417728E+02 -0.20231254445E+02  0.30040967239E+02  0.00000000000E+00 0.  1.
</event>
<event>
 4    1  0.5953944E+003  0.2129431E+02  0.7546771E-02  0.1515104E+00
          2   -1    0    0  501    0  0.00000000000E+00  0.00000000000E+00  0.10890915432E+04  0.10890915432E+04  0.00000000000E+00 0.  1.
         -2   -1    0    0    0  501 -0.00000000000E+00 -0.00000000000E+00 -0.91286918386E+00  0.91286918386E+00  0.00000000000E+00 0. -1.
          2    1    1    2  502    0 -0.19557454036E+02 -0.84234018577E+01  0.94602840318E+03  0.94626803144E+03  0.00000000000E+00 0.  1.
         -2    1    1    2    0  502  0.19557454036E+02  0.84234018577E+01  0.14215027083E+03  0.14373638093E+03  0.00000000000E+00 0. -1.
</event>
<event>
 4    1  0.5953944E+003  0.2596555E+02  0.7546771E-02  0.1458285E+00
          2   -1    0    0  501    0  0.00000000000E+00  0.00000000000E+00  0.76543118147E+03  0.76543118147E+03  0.00000000000E+00 0. -1.
         -2   -1    0    0    0  501 -0.00000000000E+00 -0.00000000000E+00 -0.12634817078E+01  0.12634817078E+01  0.00000000000E+00 0. -1.
          2    1    1    2  502    0 -0.23150662204E+02  0.11758260331E+02  0.59305031533E+03  0.59361846868E+03  0.00000000000E+00 0. -1.
         -2    1    1    2    0  502  0.23150662204E+02 -0.11758260331E+02  0.17111738444E+03  0.17307619450E+03  0.00000000000E+00 0. -1.
</event>
<event>
 4    1  0.5953944E+003  0.2234461E+02  0.7546771E-02  0.1500896E+00
          2   -1    0    0  501    0  0.00000000000E+00  0.00000000000E+00  0.22315361778E+03  0.22315361778E+03  0.00000000000E+00 0. -1.
         -2   -1    0    0    0  501 -0.00000000000E+00 -0.00000000000E+00 -0.38756693911E+02  0.38756693911E+02  0.00000000000E+00 0.  1.
          2    1    1    2  502    0 -0.16753619150E+02  0.14785060260E+02  0.21931746649E+03  0.22045279057E+03  0.00000000000E+00 0. -1.
         -2    1    1    2    0  502  0.16753619150E+02 -0.14785060260E+02 -0.34920542615E+02  0.41457521128E+02  0.00000000000E+00 0.  1.
</event>
<event>
 4    1  0.5953944E+003  0.3854416E+02  0.7546771E-02  0.1357235E+00
          2   -1    0    0  501    0  0.00000000000E+00  0.00000000000E+00  0.15444172266E+02  0.15444172266E+02  0.00000000000E+00 0. -1.
         -2   -1    0    0    0  501 -0.00000000000E+00 -0.00000000000E+00 -0.39338958617E+03  0.39338958617E+03  0.00000000000E+00 0. -1.
          2    1    1    2  502    0  0.98033037887E+01  0.37276639954E+02 -0.11297942869E+02  0.40165858195E+02  0.00000000000E+00 0. -1.
         -2    1    1    2    0  502 -0.98033037887E+01 -0.37276639954E+02 -0.36664747104E+03  0.36866790024E+03  0.00000000000E+00 0. -1.
</event>
<event>
 4    1  0.5953944E+003  0.2231030E+02  0.7546771E-02  0.1501345E+00
          2   -1    0    0  501    0  0.00000000000E+00  0.00000000000E+00  0.21061292825E+01  0.21061292825E+01  0.00000000000E+00 0.  1.
         -2   -1    0    0    0  501 -0.00000000000E+00 -0.00000000000E+00 -0.23642959501E+03  0.23642959501E+03  0.00000000000E+00 0.  1.
          2    1    1    2  502    0 -0.12931984484E+01 -0.22272774425E+02 -0.11956659072E+03  0.12163025306E+03  0.00000000000E+00 0.  1.
         -2    1    1    2    0  502  0.12931984484E+01  0.22272774425E+02 -0.11475687501E+03  0.11690547123E+03  0.00000000000E+00 0.  1.
</event>
<event>
 4    1  0.5953944E+003  0.2853792E+02  0.7546771E-02  0.1432742E+00
          2   -1    0    0  501    0  0.00000000000E+00  0.00000000000E+00  0.95065414304E+03  0.95065414304E+03  0.00000000000E+00 0.  1.
         -2   -1    0    0    0  501 -0.00000000000E+00 -0.00000000000E+00 -0.10757388669E+02  0.10757388669E+02  0.00000000000E+00 0.  1.
          2    1    1    2  502    0 -0.21342203635E+02 -0.18945270140E+02  0.93111608735E+03  0.93155331626E+03  0.00000000000E+00 0.  1.
         -2    1    1    2    0  502  0.21342203635E+02  0.18945270140E+02  0.87806670296E+01  0.29858215455E+02  0.00000000000E+00 0.  1.
</event>
<event>
 4    1  0.7171425E+003  0.2561522E+02  0.7546771E-02  0.1462037E+00
          2   -1    0    0  501    0  0.00000000000E+00  0.00000000000E+00  0.67388076051E+03  0.67388076051E+03  0.00000000000E+00 0. -1.
         -2   -1    0    0    0  501 -0.00000000000E+00 -0.00000000000E+00 -0.45739026194E+03  0.45739026194E+03  0.00000000000E+00 0.  1.
          2    1    1    2  502    0  0.21791420363E+02 -0.13463780206E+02  0.67327838943E+03  0.67376548521E+03  0.00000000000E+00 0. -1.
         -2    1    1    2    0  502 -0.21791420363E+02  0.13463780206E+02 -0.45678789086E+03  0.45750553725E+03  0.00000000000E+00 0.  1.
</event>
<event>
 4    1  0.5953944E+003  0.2989324E+02  0.7546771E-02  0.1420527E+00
          2   -1    0    0  501    0  0.00000000000E+00  0.00000000000E+00  0.14460342959E+03  0.14460342959E+03  0.00000000000E+00 0. -1.
         -2   -1    0    0    0  501 -0.00000000000E+00 -0.00000000000E+00 -0.11398817206E+03  0.11398817206E+03  0.00000000000E+00 0.  1.
          2    1    1    2  502    0  0.11824140999E+02  0.27455333201E+02  0.14104980538E+03  0.14418270781E+03  0.00000000000E+00 0. -1.
         -2    1    1    2    0  502 -0.11824140999E+02 -0.27455333201E+02 -0.11043454786E+03  0.11440889385E+03  0.00000000000E+00 0.  1.
</event>
<event>
 4    1  0.5953944E+003  0.2818951E+02  0.7546771E-02  0.1436012E+00
          2   -1    0    0  501    0  0.00000000000E+00  0.00000000000E+00  0.14601923066E+04  0.14601923066E+04  0.00000000000E+00 0.  1.
         -2   -1    0    0    0  501 -0.00000000000E+00 -0.00000000000E+00 -0.68485110948E+01  0.68485110948E+01  0.00000000000E+00 0. -1.
          2    1    1    2  502    0 -0.20267954376E+02  0.19592302121E+02  0.14304449989E+04  0.14307227345E+04  0.00000000000E+00 0.  1.
         -2    1    1    2    0  502  0.20267954376E+02 -0.19592302121E+02  0.22898796589E+02  0.36318083129E+02  0.00000000000E+00 0. -1.
</event>
<event>
 4    1  0.5953944E+003  0.2077383E+02  0.7546771E-02  0.1522519E+00
          2   -1    0    0  501    0  0.00000000000E+00  0.00000000000E+00  0.39544338893E+03  0.39544338893E+03  0.00000000000E+00 0. -1.
         -2   -1    0    0    0  501 -0.00000000000E+00 -0.00000000000E+00 -0.78726992933E+01  0.78726992933E+01  0.00000000000E+00 0.  1.
          2    1    1    2  502    0 -0.73695540149E+01 -0.19422711487E+02  0.38094532844E+03  0.38151133051E+03  0.00000000000E+00 0. -1.
         -2    1    1    2    0  502  0.73695540149E+01  0.19422711487E+02  0.66253611958E+01  0.21804757712E+02  0.00000000000E+00 0.  1.
</event>
<event>
 4    1  0.5953944E+003  0.5156737E+02  0.7546771E-02  0.1291516E+00
          2   -1    0    0  501    0  0.00000000000E+00  0.00000000000E+00  0.10226817150E+04  0.10226817150E+04  0.00000000000E+00 0.  1.
         -2   -1    0    0    0  501 -0.00000000000E+00 -0.00000000000E+00 -0.65132676205E+01  0.65132676205E+01  0.00000000000E+00 0.  1.
          2    1    1    2  502    0 -0.22532255557E+02  0.46384165011E+02  0.90694928388E+03  0.90841411087E+03  0.00000000000E+00 0.  1.
         -2    1    1    2    0  502  0.22532255557E+02 -0.46384165011E+02  0.10921916349E+03  0.12078087174E+03  0.00000000000E+00 0.  1.
</event>
<event>
 4    1  0.5953944E+003  0.2114084E+02  0.7546771E-02  0.1517263E+00
          2   -1    0    0  501    0  0.00000000000E+00  0.00000000000E+00  0.16628321555E+03  0.16628321555E+03  0.00000000000E+00 0.  1.
         -2   -1    0    0    0  501 -0.00000000000E+00 -0.00000000000E+00 -0.52329324999E+01  0.52329324999E+01  0.00000000000E+00 0. -1.
          2    1    1    2  502    0 -0.59838597985E+01  0.20276309857E+02  0.14033296720E+03  0.14191644373E+03  0.00000000000E+00 0.  1.
         -2    1    1    2    0  502  0.59838597985E+01 -0.20276309857E+02  0.20717315854E+02  0.29599704318E+02  0.00000000000E+00 0. -1.
</event>
<event>
 4    1  0.5953944E+003  0.3396818E+02  0.7546771E-02  0.1387966E+00
          2   -1    0    0  501    0  0.00000000000E+00  0.00000000000E+00  0.16728853704E+04  0.16728853704E+04  0.00000000000E+00 0. -1.
         -2   -1    0    0    0  501 -0.00000000000E+00 -0.00000000000E+00 -0.19717359103E+02  0.19717359103E+02  0.00000000000E+00 0. -1.
          2    1    1    2  502    0 -0.32571932033E+02  0.96388108667E+01  0.16579514599E+04  0.16582993942E+04  0.00000000000E+00 0. -1.
         -2    1    1    2    0  502  0.32571932033E+02 -0.96388108667E+01 -0.47834486139E+01  0.34303335289E+02  0.00000000000E+00 0. -1.
</event>
<event>
 4    1  0.5953944E+003  0.3439830E+02  0.7546771E-02  0.1384843E+00
          2   -1    0    0  501    0  0.00000000000E+00  0.00000000000E+00  0.39513358745E+03  0.39513358745E+03  0.00000000000E+00 0. -1.
         -2   -1    0    0    0  501 -0.00000000000E+00 -0.00000000000E+00 -0.75079654425E+01  0.75079654425E+01  0.00000000000E+00 0.  1.
          2    1    1    2  502    0 -0.47619739758E+01  0.34067095024E+02  0.34990479378E+03  0.35159153583E+03  0.00000000000E+00 0. -1.
         -2    1    1    2    0  502  0.47619739758E+01 -0.34067095024E+02  0.37720828226E+02  0.51050017057E+02  0.00000000000E+00 0.  1.
</event>
<event>
 4    1  0.5953944E+003  0.2449309E+02  0.7546771E-02  0.1474555E+00
          2   -1    0    0  501    0  0.00000000000E+00  0.00000000000E+00  0.10943028150E+04  0.10943028150E+04  0.00000000000E+00 0. -1.
         -2   -1    0    0    0  501 -0.00000000000E+00 -0.00000000000E+00 -0.14802216893E+02  0.14802216893E+02  0.00000000000E+00 0. -1.
          2    1    1    2  502    0  0.22114230556E+02  0.10529595413E+02  0.10839367533E+04  0.10842134461E+04  0.00000000000E+00 0. -1.
         -2    1    1    2    0  502 -0.22114230556E+02 -0.10529595413E+02 -0.44361551451E+01  0.24891585830E+02  0.00000000000E+00 0. -1.
</event>
<event>
 4    1  0.5953944E+003  0.2634688E+02  0.7546771E-02  0.1454281E+00
          2   -1    0    0  501    0  0.00000000000E+00  0.00000000000E+00  0.85347257041E+03  0.85347257041E+03  0.00000000000E+00 0.  1.
         -2   -1    0    0    0  501 -0.00000000000E+00 -0.00000000000E+00 -0.26524444146E+02  0.26524444146E+02  0.00000000000E+00 0. -1.
          2    1    1    2  502    0  0.24432839362E+02  0.98587272929E+01  0.84667408809E+03  0.84708392121E+03  0.00000000000E+00 0.  1.
         -2    1    1    2    0  502 -0.24432839362E+02 -0.98587272929E+01 -0.19725961826E+02  0.32913093338E+02  0.00000000000E+00 0. -1.
</event>
<event>
 4    1  0.5953944E+003  0.2956878E+02  0.7546771E-02  0.1423381E+00
          2   -1    0    0  501    0  0.00000000000E+00  0.00000000000E+00  0.47316020955E+02  0.47316020955E+02  0.00000000000E+00 0. -1.
         -2   -1    0    0    0  501 -0.00000000000E+00 -0.00000000000E+00 -0.28304877392E+02  0.28304877392E+02  0.00000000000E+00 0.  1.
          2    1    1    2  502    0  0.23322286535E+02 -0.18176452868E+02  0.31784057720E+02  0.43411275185E+02  0.00000000000E+00 0. -1.
         -2    1    1    2    0  502 -0.23322286535E+02  0.18176452868E+02 -0.12772914157E+02  0.32209623161E+02  0.00000000000E+00 0.  1.
</event>
<event>
 4    1  0.5953944E+003  0.2397506E+02  0.7546771E-02  0.1480604E+00
          2   -1    0    0  501    0  0.00000000000E+00  0.00000000000E+00  0.26581968746E+03  0.26581968746E+03  0.00000000000E+00 0. -1.
         -2   -1    0    0    0  501 -0.00000000000E+00 -0.00000000000E+00 -0.12872188996E+02  0.12872188996E+02  0.00000000000E+00 0. -1.
          2    1    1    2  502    0  0.22150546653E+02  0.91736934610E+01  0.25357767317E+03  0.25470853872E+03  0.00000000000E+00 0. -1.
         -2    1    1    2    0  502 -0.22150546653E+02 -0.91736934610E+01 -0.63017470325E+00  0.23983337734E+02  0.00000000000E+00 0. -1.
</event>
<event>
 4    1  0.5953944E+003  0.2205589E+02  0.7546771E-02  0.1504706E+00
          2   -1    0    0  501    0  0.00000000000E+00  0.00000000000E+00  0.31773939306E+02  0.31773939306E+02  0.00000000000E+00 0. -1.
         -2   -1    0    0    0  501 -0.00000000000E+00 -0.00000000000E+00 -0.26220353076E+02  0.26220353076E+02  0.00000000000E+00 0. -1.
          2    1    1    2  502    0  0.21054695974E+02  0.65697782895E+01  0.21481606920E+02  0.30788336188E+02  0.00000000000E+00 0. -1.
         -2    1    1    2    0  502 -0.21054695974E+02 -0.65697782895E+01 -0.15928020690E+02  0.27205956194E+02  0.00000000000E+00 0. -1.
</event>
<event>
 4    1  0.5953944E+003  0.2453575E+02  0.7546771E-02  0.1474064E+00
          2   -1    0    0  501    0  0.00000000000E+00  0.00000000000E+00  0.13456200954E+02  0.13456200954E+02  0.00000000000E+00 0. -1.
         -2   -1    0    0    0  501 -0.00000000000E+00 -0.00000000000E+00 -0.15317306177E+03  0.15317306177E+03  0.00000000000E+00 0.  1.
          2    1    1    2  502    0  0.14749947652E+02 -0.19607196705E+02  0.24108333323E+00  0.24536936229E+02  0.00000000000E+00 0. -1.
         -2    1    1    2    0  502 -0.14749947652E+02  0.19607196705E+02 -0.13995794415E+03  0.14209232649E+03  0.00000000000E+00 0.  1.
</event>
<event>
 4    1  0.5953944E+003  0.2104666E+02  0.7546771E-02  0.1518600E+00
          2   -1    0    0  501    0  0.00000000000E+00  0.00000000000E+00  0.91512462452E+02  0.91512462452E+02  0.00000000000E+00 0.  1.
         -2   -1    0    0    0  501 -0.00000000000E+00 -0.00000000000E+00 -0.16804312403E+02  0.16804312403E+02  0.00000000000E+00 0. -1.
          2    1    1    2  502    0 -0.14571159758E+02 -0.15186946333E+02  0.83051418045E+02  0.85676718395E+02  0.00000000000E+00 0.  1.
         -2    1    1    2    0  502  0.14571159758E+02  0.15186946333E+02 -0.83432679965E+01  0.22640056459E+02  0.00000000000E+00 0. -1.
</event>
<event>
 4    1  0.5953944E+003  0.3756598E+02  0.7546771E-02  0.1363371E+00
          2   -1    0    0  501    0  0.00000000000E+00  0.00000000000E+00  0.24917923169E+04  0.24917923169E+04  0.00000000000E+00 0. -1.
         -2   -1    0    0    0  501 -0.00000000000E+00 -0.00000000000E+00 -0.52835740588E+02  0.52835740588E+02  0.00000000000E+00 0. -1.
          2    1    1    2  502    0  0.25319339969E+02 -0.27751288334E+02  0.24849550480E+04  0.24852389812E+04  0.00000000000E+00 0. -1.
         -2    1    1    2    0  502 -0.25319339969E+02  0.27751288334E+02 -0.45998471720E+02  0.59389076279E+02  0.00000000000E+00 0. -1.
</event>
<event>
 4    1  0.5953944E+003  0.3938295E+02  0.7546771E-02  0.1352140E+00
          2   -1    0    0  501    0  0.00000000000E+00  0.00000000000E+00  0.86989034265E+02  0.86989034265E+02  0.00000000000E+00 0.  1.
         -2   -1    0    0    0  501 -0.00000000000E+00 -0.00000000000E+00 -0.19411839846E+03  0.19411839846E+03  0.00000000000E+00 0.  1.
          2    1    1    2  502    0  0.23932984214E+02  0.31276646922E+02  0.80378564910E+02  0.89508268183E+02  0.00000000000E+00 0.  1.
         -2    1    1    2    0  502 -0.23932984214E+02 -0.31276646922E+02 -0.18750792911E+03  0.19159916455E+03  0.00000000000E+00 0.  1.
</event>
<event>
 4    1  0.5953944E+003  0.4073047E+02  0.7546771E-02  0.1344258E+00
          2   -1    0    0  501    0  0.00000000000E+00  0.00000000000E+00  0.12176800460E+04  0.12176800460E+04  0.00000000000E+00 0.  1.
         -2   -1    0    0    0  501 -0.00000000000E+00 -0.00000000000E+00 -0.35872878190E+01  0.35872878190E+01  0.00000000000E+00 0.  1.
          2    1    1    2  502    0 -0.39470358585E+02  0.10052939194E+02  0.10879426534E+04  0.10887048213E+04  0.00000000000E+00 0.  1.
         -2    1    1    2    0  502  0.39470358585E+02 -0.10052939194E+02  0.12615010472E+03  0.13256251247E+03  0.00000000000E+00 0.  1.
</event>
<event>
 4    1  0.5953944E+003  0.2160465E+02  0.7546771E-02  0.1510804E+00
          2   -1    0    0  501    0  0.00000000000E+00  0.00000000000E+00  0.12807527413E+04  0.12807527413E+04  0.00000000000E+00 0. -1.
         -2   -1    0    0    0  501 -0.00000000000E+00 -0.00000000000E+00 -0.48388582704E+02  0.48388582704E+02  0.00000000000E+00 0.  1.
          2    1    1    2  502    0  0.12964769745E+02 -0.17282229887E+02  0.12782453776E+04  0.12784279433E+04  0.00000000000E+00 0. -1.
         -2    1    1    2    0  502 -0.12964769745E+02  0.17282229887E+02 -0.45881219035E+02  0.50713380725E+02  0.00000000000E+00 0.  1.
</event>
<event>
 4    1  0.5953944E+003  0.4636564E+02  0.7546771E-02  0.1314749E+00
          2   -1    0    0  501    0  0.00000000000E+00  0.00000000000E+00  0.46718664917E+03  0.46718664917E+03  0.00000000000E+00 0.  1.
         -2   -1    0    0    0  501 -0.00000000000E+00 -0.00000000000E+00 -0.11942421847E+03  0.11942421847E+03  0.00000000000E+00 0. -1.
          2    1    1    2  502    0 -0.38574207295E+02 -0.25725541153E+02  0.46148047409E+03  0.46380383882E+03  0.00000000000E+00 0.  1.
         -2    1    1    2    0  502  0.38574207295E+02  0.25725541153E+02 -0.11371804339E+03  0.12280702883E+03  0.00000000000E+00 0. -1.
</event>
<event>
 4    1  0.5953944E+003  0.6451533E+02  0.7546771E-02  0.1245217E+00
          2   -1    0    0  501    0  0.00000000000E+00  0.00000000000E+00  0.98556560364E+02  0.98556560364E+02  0.00000000000E+00 0.  1.
         -2   -1    0    0    0  501 -0.00000000000E+00 -0.00000000000E+00 -0.12181223670E+03  0.12181223670E+03  0.00000000000E+00 0.  1.
          2    1    1    2  502    0  0.63898019650E+02 -0.89034183770E+01  0.77431121242E+02  0.10078594302E+03  0.00000000000E+00 0.  1.
         -2    1    1    2    0  502 -0.63898019650E+02  0.89034183770E+01 -0.10068679758E+03  0.11958285404E+03  0.00000000000E+00 0.  1.
</event>
<event>
 4    1  0.5953944E+003  0.2082633E+02  0.7546771E-02  0.1521759E+00
          2   -1    0    0  501    0  0.00000000000E+00  0.00000000000E+00  0.94285458850E+01  0.94285458850E+01  0.00000000000E+00 0. -1.
         -2   -1    0    0    0  501 -0.00000000000E+00 -0.00000000000E+00 -0.46170544203E+02  0.46170544203E+02  0.00000000000E+00 0. -1.
          2    1    1    2  502    0  0.20746827189E+02  0.18179729834E+01 -0.16693435446E+02  0.26690946989E+02  0.00000000000E+00 0. -1.
         -2    1    1    2    0  502 -0.20746827189E+02 -0.18179729834E+01 -0.20048562872E+02  0.28908143099E+02  0.00000000000E+00 0. -1.
</event>
<event>
 4    1  0.5953944E+003  0.2251119E+02  0.7546771E-02  0.1498729E+00
          2   -1    0    0  501    0  0.00000000000E+00  0.00000000000E+00  0.33598892531E+02  0.33598892531E+02  0.00000000000E+00 0. -1.
         -2   -1    0    0    0  501 -0.00000000000E+00 -0.00000000000E+00 -0.17044876781E+03  0.17044876781E+03  0.00000000000E+00 0. -1.
          2    1    1    2  502    0 -0.30899146550E+01 -0.22298118839E+02  0.28980482691E+02  0.36696349319E+02  0.00000000000E+00 0. -1.
         -2    1    1    2    0  502  0.30899146550E+01  0.22298118839E+02 -0.16583035797E+03  0.16735131102E+03  0.00000000000E+00 0. -1.
</event>
<event>
 4    1  0.5953944E+003  0.2485366E+02  0.7546771E-02  0.1470447E+00
          2   -1    0    0  501    0  0.00000000000E+00  0.00000000000E+00  0.19320872766E+01  0.19320872766E+01  0.00000000000E+00 0. -1.
         -2   -1    0    0    0  501 -0.00000000000E+00 -0.00000000000E+00 -0.34047055220E+03  0.34047055220E+03  0.00000000000E+00 0.  1.
          2    1    1    2  502    0 -0.47887376087E+01 -0.24387955474E+02 -0.12699221539E+03  0.12940141865E+03  0.00000000000E+00 0.  1.
         -2    1    1    2    0  502  0.47887376087E+01  0.24387955474E+02 -0.21154624954E+03  0.21300122083E+03  0.00000000000E+00 0. -1.
</event>
<event>
 4    1  0.5953944E+003  0.2966473E+02  0.7546771E-02  0.1422533E+00
          2   -1    0    0  501    0  0.00000000000E+00  0.00000000000E+00  0.29067556893E+03  0.29067556893E+03  0.00000000000E+00 0.  1.
         -2   -1    0    0    0  501 -0.00000000000E+00 -0.00000000000E+00 -0.22148991706E+02  0.22148991706E+02  0.00000000000E+00 0. -1.
          2    1    1    2  502    0 -0.10802566208E+02  0.27627900825E+02  0.27959342714E+03  0.28116273018E+03  0.00000000000E+00 0.  1.
         -2    1    1    2    0  502  0.10802566208E+02 -0.27627900825E+02 -0.11066849920E+02  0.31661830456E+02  0.00000000000E+00 0. -1.
</event>
<event>
 4    1  0.5953944E+003  0.3424075E+02  0.7546771E-02  0.1385981E+00
          2   -1    0    0  501    0  0.00000000000E+00  0.00000000000E+00  0.36190613838E+03  0.36190613838E+03  0.00000000000E+00 0.  1.
         -2   -1    0    0    0  501 -0.00000000000E+00 -0.00000000000E+00 -0.72315266600E+01  0.72315266600E+01  0.00000000000E+00 0. -1.
          2    1    1    2  502    0 -0.24983254512E+02  0.23415077616E+02  0.31446809837E+03  0.31632675157E+03  0.00000000000E+00 0.  1.
         -2    1    1    2    0  502  0.24983254512E+02 -0.23415077616E+02  0.40206513346E+02  0.52810913467E+02  0.00000000000E+00 0. -1.
</event>
<event>
 4    1  0.5953944E+003  0.2090354E+02  0.7546771E-02  0.1520647E+00
          2   -1    0    0  501    0  0.00000000000E+00  0.00000000000E+00  0.62202499391E+02  0.62202499391E+02  0.00000000000E+00 0. -1.
         -2   -1    0    0    0  501 -0.00000000000E+00 -0.00000000000E+00 -0.81779977981E+01  0.81779977981E+01  0.00000000000E+00 0.  1.
          2    1    1    2  502    0 -0.18405198398E+02 -0.99099171947E+01  0.40226965707E+02  0.45333944863E+02  0.00000000000E+00 0. -1.
         -2    1    1    2    0  502  0.18405198398E+02  0.99099171947E+01  0.13797535887E+02  0.25046552326E+02  0.00000000000E+00 0.  1.
</event>
<event>
 4    1  0.5953944E+003  0.2307048E+02  0.7546771E-02  0.1491615E+00
          2   -1    0    0  501    0  0.00000000000E+00  0.00000000000E+00  0.12754543141E+01  0.12754543141E+01  0.00000000000E+00 0. -1.
         -2   -1    0    0    0  501 -0.00000000000E+00 -0.00000000000E+00 -0.47900591265E+03  0.47900591265E+03  0.00000000000E+00 0.  1.
          2    1    1    2  502    0 -0.18497190296E+02 -0.13787713933E+02 -0.15267487950E+03  0.15440811486E+03  0.00000000000E+00 0. -1.
         -2    1    1    2    0  502  0.18497190296E+02  0.13787713933E+02 -0.32505557884E+03  0.32587325211E+03  0.00000000000E+00 0.  1.
</event>
<event>
 4    1  0.5953944E+003  0.4117903E+02  0.7546771E-02  0.1341712E+00
          2   -1    0    0  501    0  0.00000000000E+00  0.00000000000E+00  0.67390823072E+03  0.67390823072E+03  0.00000000000E+00 0. -1.
         -2   -1    0    0    0  501 -0.00000000000E+00 -0.00000000000E+00 -0.63747851815E+01  0.63747851815E+01  0.00000000000E+00 0. -1.
          2    1    1    2  502    0 -0.40455417733E+02  0.76858115860E+01  0.59839658121E+03  0.59981178792E+03  0.00000000000E+00 0. -1.
         -2    1    1    2    0  502  0.40455417733E+02 -0.76858115860E+01  0.69136864327E+02  0.80471227981E+02  0.00000000000E+00 0. -1.
</event>
<event>
 4    1  0.5953944E+003  0.2409032E+02  0.7546771E-02  0.1479243E+00
          2   -1    0    0  501    0  0.00000000000E+00  0.00000000000E+00  0.15281876778E+04  0.15281876778E+04  0.00000000000E+00 0. -1.
         -2   -1    0    0    0  501 -0.00000000000E+00 -0.00000000000E+00 -0.42086248927E+00  0.42086248927E+00  0.00000000000E+00 0. -1.
          2    1    1    2  502    0  0.29011148989E+01 -0.23914996061E+02  0.10027381467E+04  0.10030274844E+04  0.00000000000E+00 0. -1.
         -2    1    1    2    0  502 -0.29011148989E+01  0.23914996061E+02  0.52502866861E+03  0.52558105595E+03  0.00000000000E+00 0. -1.
</event>
<event>
 4    1  0.5953944E+003  0.2434321E+02  0.7546771E-02  0.1476287E+00
          2   -1    0    0  501    0  0.00000000000E+00  0.00000000000E+00  0.61305809179E+03  0.61305809179E+03  0.00000000000E+00 0.  1.
         -2   -1    0    0    0  501 -0.00000000000E+00 -0.00000000000E+00 -0.11641896060E+02  0.11641896060E+02  0.00000000000E+00 0.  1.
          2    1    1    2  502    0 -0.33002561942E+01  0.24118465387E+02  0.59981006662E+03  0.60030384647E+03  0.00000000000E+00 0.  1.
         -2    1    1    2    0  502  0.33002561942E+01 -0.24118465387E+02  0.16061291072E+01  0.24396141381E+02  0.00000000000E+00 0.  1.
</event>
<event>
 4    1  0.5953944E+003  0.2029951E+02  0.7546771E-02  0.1529505E+00
          2   -1    0    0  501    0  0.00000000000E+00  0.00000000000E+00  0.79809355396E+03  0.79809355396E+03  0.00000000000E+00 0.  1.
         -2   -1    0    0    0  501 -0.00000000000E+00 -0.00000000000E+00 -0.11042846278E+02  0.11042846278E+02  0.00000000000E+00 0.  1.
          2    1    1    2  502    0  0.18985726259E+02  0.71841671675E+01  0.78852236641E+03  0.78878361569E+03  0.00000000000E+00 0.  1.
         -2    1    1    2    0  502 -0.18985726259E+02 -0.71841671675E+01 -0.14716587231E+01  0.20352784548E+02  0.00000000000E+00 0.  1.
</event>
<event>
 4    1  0.5953944E+003  0.3270975E+02  0.7546771E-02  0.1397421E+00
          2   -1    0    0  501    0  0.00000000000E+00  0.00000000000E+00  0.20997586386E+04  0.20997586386E+04  0.00000000000E+00 0. -1.
         -2   -1    0    0    0  501 -0.00000000000E+00 -0.00000000000E+00 -0.51328781440E+01  0.51328781440E+01  0.00000000000E+00 0. -1.
          2    1    1    2  502    0 -0.16996712698E+02  0.27947082123E+02  0.20461546658E+04  0.20464160975E+04  0.00000000000E+00 0. -1.
         -2    1    1    2    0  502  0.16996712698E+02 -0.27947082123E+02  0.48471094684E+02  0.58475419294E+02  0.00000000000E+00 0. -1.
</event>
<event>
 4    1  0.5953944E+003  0.4039951E+02  0.7546771E-02  0.1346160E+00
          2   -1    0    0  501    0  0.00000000000E+00  0.00000000000E+00  0.47560447883E+03  0.47560447883E+03  0.00000000000E+00 0.  1.
         -2   -1    0    0    0  501 -0.00000000000E+00 -0.00000000000E+00 -0.17821920201E+02  0.17821920201E+02  0.00000000000E+00 0.  1.
          2    1    1    2  502    0 -0.26221533431E+02 -0.30733558507E+02  0.45058287095E+03  0.45239036686E+03  0.00000000000E+00 0.  1.
         -2    1    1    2    0  502  0.26221533431E+02  0.30733558507E+02  0.71996876832E+01  0.41036032175E+02  0.00000000000E+00 0.  1.
</event>
<event>
 4    1  0.5953944E+003  0.2491728E+02  0.7546771E-02  0.1469731E+00
          2   -1    0    0  501    0  0.00000000000E+00  0.00000000000E+00  0.22580314220E+04  0.22580314220E+04  0.00000000000E+00 0.  1.
         -2   -1    0    0    0  501 -0.00000000000E+00 -0.00000000000E+00 -0.28543417612E+00  0.28543417612E+00  0.00000000000E+00 0.  1.
          2    1    1    2  502    0 -0.14346320885E+02  0.20372853843E+02  0.91257847398E+03  0.91291858414E+03  0.00000000000E+00 0.  1.
         -2    1    1    2    0  502  0.14346320885E+02 -0.20372853843E+02  0.13451675139E+04  0.13453982721E+04  0.00000000000E+00 0.  1.
</event>
<event>
 4    1  0.5953944E+003  0.2071500E+02  0.7546771E-02  0.1523373E+00
          2   -1    0    0  501    0  0.00000000000E+00  0.00000000000E+00  0.14080529203E+02  0.14080529203E+02  0.00000000000E+00 0.  1.
         -2   -1    0    0    0  501 -0.00000000000E+00 -0.00000000000E+00 -0.84847005367E+02  0.84847005367E+02  0.00000000000E+00 0.  1.
          2    1    1    2  502    0 -0.19077980729E+02  0.80710437238E+01  0.42130641095E+01  0.21139087130E+02  0.00000000000E+00 0.  1.
         -2    1    1    2    0  502  0.19077980729E+02 -0.80710437238E+01 -0.74979540274E+02  0.77788447440E+02  0.00000000000E+00 0.  1.
</event>
<event>
 4    1  0.5953944E+003  0.2334149E+02  0.7546771E-02  0.1488254E+00
          2   -1    0    0  501    0  0.00000000000E+00  0.00000000000E+00  0.13417808778E+03  0.13417808778E+03  0.00000000000E+00 0. -1.
         -2   -1    0    0    0  501 -0.00000000000E+00 -0.00000000000E+00 -0.37856463751E+02  0.37856463751E+02  0.00000000000E+00 0.  1.
          2    1    1    2  502    0  0.23341405594E+02 -0.61594804878E-01  0.12943419269E+03  0.13152199530E+03  0.00000000000E+00 0. -1.
         -2    1    1    2    0  502 -0.23341405594E+02  0.61594804878E-01 -0.33112568664E+02  0.40512556234E+02  0.00000000000E+00 0.  1.
</event>
<event>
 4    1  0.5953944E+003  0.3118254E+02  0.7546771E-02  0.1409591E+00
          2   -1    0    0  501    0  0.00000000000E+00  0.00000000000E+00  0.81470174887E+03  0.81470174887E+03  0.00000000000E+00 0.  1.
         -2   -1    0    0    0  501 -0.00000000000E+00 -0.00000000000E+00 -0.17060801226E+01  0.17060801226E+01  0.00000000000E+00 0.  1.
          2    1    1    2  502    0  0.29289483897E+02 -0.10699379838E+02  0.63024432042E+03  0.63101525656E+03  0.00000000000E+00 0.  1.
         -2    1    1    2    0  502 -0.29289483897E+02  0.10699379838E+02  0.18275134833E+03  0.18539257243E+03  0.00000000000E+00 0.  1.
</event>
<event>
 4    1  0.5953944E+003  0.2022889E+02  0.7546771E-02  0.1530565E+00
          2   -1    0    0  501    0  0.00000000000E+00  0.00000000000E+00  0.57645921799E+01  0.57645921799E+01  0.00000000000E+00 0. -1.
         -2   -1    0    0    0  501 -0.00000000000E+00 -0.00000000000E+00 -0.12677765522E+03  0.12677765522E+03  0.00000000000E+00 0. -1.
          2    1    1    2  502    0 -0.12777705197E+02  0.15682408042E+02 -0.10446940045E+03  0.10640988349E+03  0.00000000000E+00 0. -1.
         -2    1    1    2    0  502  0.12777705197E+02 -0.15682408042E+02 -0.16543662589E+02  0.26132363918E+02  0.00000000000E+00 0. -1.
</event>
<event>
 4    1  0.5953944E+003  0.2608646E+02  0.7546771E-02  0.1457007E+00
          2   -1    0    0  501    0  0.00000000000E+00  0.00000000000E+00  0.19107388947E+02  0.19107388947E+02  0.00000000000E+00 0.  1.
         -2   -1    0    0    0  501 -0.00000000000E+00 -0.00000000000E+00 -0.25221946934E+03  0.25221946934E+03  0.00000000000E+00 0.  1.
          2    1    1    2  502    0 -0.23210054600E+02 -0.11907840987E+02  0.91648728254E+01  0.27649560673E+02  0.00000000000E+00 0.  1.
         -2    1    1    2    0  502  0.23210054600E+02  0.11907840987E+02 -0.24227695322E+03  0.24367729761E+03  0.00000000000E+00 0.  1.
</event>
<event>
 4    1  0.5953944E+003  0.3299605E+02  0.7546771E-02  0.1395227E+00
          2   -1    0    0  501    0  0.00000000000E+00  0.00000000000E+00  0.65615366790E+02  0.65615366790E+02  0.00000000000E+00 0.  1.
         -2   -1    0    0    0  501 -0.00000000000E+00 -0.00000000000E+00 -0.84845698240E+02  0.84845698240E+02  0.00000000000E+00 0. -1.
          2    1    1    2  502    0 -0.32192898765E+02 -0.72357905580E+01  0.57859373723E+02  0.66606655249E+02  0.00000000000E+00 0.  1.
         -2    1    1    2    0  502  0.32192898765E+02  0.72357905580E+01 -0.77089705174E+02  0.83854409781E+02  0.00000000000E+00 0. -1.
</event>
<event>
 4    1  0.5953944E+003  0.2598121E+02  0.7546771E-02  0.1458119E+00
          2   -1    0    0  501    0  0.00000000000E+00  0.00000000000E+00  0.55380810001E+02  0.55380810001E+02  0.00000000000E+00 0.  1.
         -2   -1    0    0    0  501 -0.00000000000E+00 -0.00000000000E+00 -0.19782512299E+02  0.19782512299E+02  0.00000000000E+00 0.  1.
          2    1    1    2  502    0  0.25916500630E+02 -0.18325585913E+01  0.41083467209E+02  0.48609408079E+02  0.00000000000E+00 0.  1.
         -2    1    1    2    0  502 -0.25916500630E+02  0.18325585913E+01 -0.54851695075E+01  0.26553914221E+02  0.00000000000E+00 0.  1.
</event>
<event>
 4    1  0.5953944E+003  0.3032765E+02  0.7546771E-02  0.1416770E+00
          2   -1    0    0  501    0  0.00000000000E+00  0.00000000000E+00  0.51700708454E+03  0.51700708454E+03  0.00000000000E+00 0. -1.
         -2   -1    0    0    0  501 -0.00000000000E+00 -0.00000000000E+00 -0.12219317234E+02  0.12219317234E+02  0.00000000000E+00 0.  1.
          2    1    1    2  502    0  0.27398221399E+02  0.13003988290E+02  0.49698712685E+03  0.49791160913E+03  0.00000000000E+00 0. -1.
         -2    1    1    2    0  502 -0.27398221399E+02 -0.13003988290E+02  0.78006404594E+01  0.31314792652E+02  0.00000000000E+00 0.  1.
</event>
<event>
 4    1  0.5953944E+003  0.2617470E+02  0.7546771E-02  0.1456079E+00
          2   -1    0    0  501    0  0.00000000000E+00  0.00000000000E+00  0.18569841027E+01  0.18569841027E+01  0.00000000000E+00 0.  1.
         -2   -1    0    0    0  501 -0.00000000000E+00 -0.00000000000E+00 -0.38928181393E+03  0.38928181393E+03  0.00000000000E+00 0.  1.
          2    1    1    2  502    0 -0.19623071421E+02  0.17321950899E+02 -0.14900616100E+03  0.15128764302E+03  0.00000000000E+00 0.  1.
         -2    1    1    2    0  502  0.19623071421E+02 -0.17321950899E+02 -0.23841866883E+03  0.23985115501E+03  0.00000000000E+00 0.  1.
</event>
<event>
 4    1  0.5953944E+003  0.2483694E+02  0.7546771E-02  0.1470636E+00
          2   -1    0    0  501    0  0.00000000000E+00  0.00000000000E+00  0.17271155741E+03  0.17271155741E+03  0.00000000000E+00 0.  1.
         -2   -1    0    0    0  501 -0.00000000000E+00 -0.00000000000E+00 -0.62929061258E+01  0.62929061258E+01  0.00000000000E+00 0.  1.
          2    1    1    2  502    0 -0.15987957012E+02 -0.19006810463E+02  0.14206509979E+03  0.14421985366E+03  0.00000000000E+00 0.  1.
         -2    1    1    2    0  502  0.15987957012E+02  0.19006810463E+02  0.24353551497E+02  0.34784609871E+02  0.00000000000E+00 0.  1.
</event>
<event>
 4    1  0.5953944E+003  0.2376225E+02  0.7546771E-02  0.1483142E+00
          2   -1    0    0  501    0  0.00000000000E+00  0.00000000000E+00  0.19815074094E+03  0.19815074094E+03  0.00000000000E+00 0.  1.
         -2   -1    0    0    0  501 -0.00000000000E+00 -0.00000000000E+00 -0.29234385509E+02  0.29234385509E+02  0.00000000000E+00 0. -1.
          2    1    1    2  502    0  0.20622520943E+02  0.11804928931E+02  0.19246771140E+03  0.19392901961E+03  0.00000000000E+00 0.  1.
         -2    1    1    2    0  502 -0.20622520943E+02 -0.11804928931E+02 -0.23551355964E+02  0.33456106840E+02  0.00000000000E+00 0. -1.
</event>
<event>
 4    1  0.5953944E+003  0.2430408E+02  0.7546771E-02  0.1476741E+00
          2   -1    0    0  501    0  0.00000000000E+00  0.00000000000E+00  0.28965997088E+02  0.28965997088E+02  0.00000000000E+00 0.  1.
         -2   -1    0    0    0  501 -0.00000000000E+00 -0.00000000000E+00 -0.71088667535E+02  0.71088667535E+02  0.00000000000E+00 0.  1.
          2    1    1    2  502    0 -0.23785121021E+02 -0.49956249139E+01  0.21185564859E+02  0.32241532356E+02  0.00000000000E+00 0.  1.
         -2    1    1    2    0  502  0.23785121021E+02  0.49956249139E+01 -0.63308235306E+02  0.67813132267E+02  0.00000000000E+00 0.  1.
</event>
<event>
 4    1  0.5953944E+003  0.2740693E+02  0.7546771E-02  0.1443563E+00
          2   -1    0    0  501    0  0.00000000000E+00  0.00000000000E+00  0.13500466785E+03  0.13500466785E+03  0.00000000000E+00 0.  1.
         -2   -1    0    0    0  501 -0.00000000000E+00 -0.00000000000E+00 -0.18872629962E+03  0.18872629962E+03  0.00000000000E+00 0.  1.
          2    1    1    2  502    0  0.22782140504E+02  0.15235277259E+02  0.13260085574E+03  0.13540356916E+03  0.00000000000E+00 0.  1.
         -2    1    1    2    0  502 -0.22782140504E+02 -0.15235277259E+02 -0.18632248751E+03  0.18832739830E+03  0.00000000000E+00 0.  1.
</event>
<event>
 4    1  0.5953944E+003  0.3084414E+02  0.7546771E-02  0.1412400E+00
          2   -1    0    0  501    0  0.00000000000E+00  0.00000000000E+00  0.15173863516E+02  0.15173863516E+02  0.00000000000E+00 0. -1.
         -2   -1    0    0    0  501 -0.00000000000E+00 -0.00000000000E+00 -0.62782690062E+02  0.62782690062E+02  0.00000000000E+00 0. -1.
          2    1    1    2  502    0 -0.30586200919E+02 -0.39805946548E+01 -0.22367221982E+02  0.38100570070E+02  0.00000000000E+00 0. -1.
         -2    1    1    2    0  502  0.30586200919E+02  0.39805946548E+01 -0.25241604564E+02  0.39855983508E+02  0.00000000000E+00 0. -1.
</event>
<event>
 4    1  0.5953944E+003  0.2112946E+02  0.7546771E-02  0.1517424E+00
          2   -1    0    0  501    0  0.00000000000E+00  0.00000000000E+00  0.50101296204E+02  0.50101296204E+02  0.00000000000E+00 0. -1.
         -2   -1    0    0    0  501 -0.00000000000E+00 -0.00000000000E+00 -0.92104279088E+01  0.92104279088E+01  0.00000000000E+00 0. -1.
          2    1    1    2  502    0  0.12362112937E+02  0.17135705087E+02  0.25792234825E+02  0.33342069557E+02  0.00000000000E+00 0. -1.
         -2    1    1    2    0  502 -0.12362112937E+02 -0.17135705087E+02  0.15098633470E+02  0.25969654556E+02  0.00000000000E+00 0. -1.
</event>
<event>
 4    1  0.5953944E+003  0.2524157E+02  0.7546771E-02  0.1466119E+00
          2   -1    0    0  501    0  0.00000000000E+00  0.00000000000E+00  0.21745562100E+01  0.21745562100E+01  0.00000000000E+00 0. -1.
         -2   -1    0    0    0  501 -0.00000000000E+00 -0.00000000000E+00 -0.49048790674E+03  0.49048790674E+03  0.00000000000E+00 0. -1.
          2    1    1    2  502    0  0.16781674042E+02 -0.18855032604E+02 -0.87849220686E+02  0.91403623633E+02  0.00000000000E+00 0. -1.
         -2    1    1    2    0  502 -0.16781674042E+02  0.18855032604E+02 -0.40046412984E+03  0.40125883932E+03  0.00000000000E+00 0. -1.
</event>
<event>
 4    1  0.5953944E+003  0.2292987E+02  0.7546771E-02  0.1493381E+00
          2   -1    0    0  501    0  0.00000000000E+00  0.00000000000E+00  0.15671150113E+04  0.15671150113E+04  0.00000000000E+00 0.  1.
         -2   -1    0    0    0  501 -0.00000000000E+00 -0.00000000000E+00 -0.39850057304E+01  0.39850057304E+01  0.00000000000E+00 0. -1.
          2    1    1    2  502    0 -0.17003661946E+02 -0.15383575019E+02  0.15333193340E+04  0.15334907756E+04  0.00000000000E+00 0.  1.
         -2    1    1    2    0  502  0.17003661946E+02  0.15383575019E+02  0.29810671575E+02  0.37609241414E+02  0.00000000000E+00 0. -1.
</event>
<event>
 4    1  0.5953944E+003  0.2457197E+02  0.7546771E-02  0.1473649E+00
          2   -1    0    0  501    0  0.00000000000E+00  0.00000000000E+00  0.16173080111E+04  0.16173080111E+04  0.00000000000E+00 0.  1.
         -2   -1    0    0    0  501 -0.00000000000E+00 -0.00000000000E+00 -0.22221757307E+02  0.22221757307E+02  0.00000000000E+00 0.  1.
          2    1    1    2  502    0  0.13159138352E+02 -0.20751355956E+02  0.16103928269E+04  0.16105802801E+04  0.00000000000E+00 0.  1.
         -2    1    1    2    0  502 -0.13159138352E+02  0.20751355956E+02 -0.15306573075E+02  0.28949488346E+02  0.00000000000E+00 0.  1.
</event>
<event>
 4    1  0.5953944E+003  0.2554653E+02  0.7546771E-02  0.1462781E+00
          2   -1    0    0  501    0  0.00000000000E+00  0.00000000000E+00  0.28534876600E+04  0.28534876600E+04  0.00000000000E+00 0.  1.
         -2   -1    0    0    0  501 -0.00000000000E+00 -0.00000000000E+00 -0.23078396247E+00  0.23078396247E+00  0.00000000000E+00 0.  1.
          2    1    1    2  502    0  0.99496012770E+01  0.23529342215E+02  0.12914037832E+04  0.12916564387E+04  0.00000000000E+00 0.  1.
         -2    1    1    2    0  502 -0.99496012770E+01 -0.23529342215E+02  0.15618530929E+04  0.15620620053E+04  0.00000000000E+00 0.  1.
</event>
<event>
 4    1  0.5953944E+003  0.2420937E+02  0.7546771E-02  0.1477846E+00
          2   -1    0    0  501    0  0.00000000000E+00  0.00000000000E+00  0.97545142023E+01  0.97545142023E+01  0.00000000000E+00 0. -1.
         -2   -1    0    0    0  501 -0.00000000000E+00 -0.00000000000E+00 -0.71468533099E+02  0.71468533099E+02  0.00000000000E+00 0. -1.
          2    1    1    2  502    0  0.15337420505E+02  0.18731183680E+02 -0.14648515635E+02  0.28296160873E+02  0.00000000000E+00 0. -1.
         -2    1    1    2    0  502 -0.15337420505E+02 -0.18731183680E+02 -0.47065503261E+02  0.52926886428E+02  0.00000000000E+00 0. -1.
</event>
<event>
 4    1  0.5953944E+003  0.2995843E+02  0.7546771E-02  0.1419958E+00
          2   -1    0    0  501    0  0.00000000000E+00  0.00000000000E+00  0.60736982698E+03  0.60736982698E+03  0.00000000000E+00 0. -1.
         -2   -1    0    0    0  501 -0.00000000000E+00 -0.00000000000E+00 -0.35992970819E+02  0.35992970819E+02  0.00000000000E+00 0. -1.
          2    1    1    2  502    0  0.19746309492E+02 -0.22529779292E+02  0.60069729040E+03  0.60144388133E+03  0.00000000000E+00 0. -1.
         -2    1    1    2    0  502 -0.19746309492E+02  0.22529779292E+02 -0.29320434243E+02  0.41918916466E+02  0.00000000000E+00 0. -1.
</event>
<event>
 4    1  0.5953944E+003  0.2209895E+02  0.7546771E-02  0.1504134E+00
          2   -1    0    0  501    0  0.00000000000E+00  0.00000000000E+00  0.10775002013E+03  0.10775002013E+03  0.00000000000E+00 0.  1.
         -2   -1    0    0    0  501 -0.00000000000E+00 -0.00000000000E+00 -0.14407521339E+02  0.14407521339E+02  0.00000000000E+00 0.  1.
          2    1    1    2  502    0 -0.15373816172E+02  0.15874799742E+02  0.97238276725E+02  0.99717831660E+02  0.00000000000E+00 0.  1.
         -2    1    1    2    0  502  0.15373816172E+02 -0.15874799742E+02 -0.38957779354E+01  0.22439709808E+02  0.00000000000E+00 0.  1.
</event>
<event>
 4    1  0.5953944E+003  0.2010077E+02  0.7546771E-02  0.1532501E+00
          2   -1    0    0  501    0  0.00000000000E+00  0.00000000000E+00  0.62591104383E+03  0.62591104383E+03  0.00000000000E+00 0.  1.
         -2   -1    0    0    0  501 -0.00000000000E+00 -0.00000000000E+00 -0.46648445853E+03  0.46648445853E+03  0.00000000000E+00 0.  1.
          2    1    1    2  502    0 -0.14134377746E+02  0.14291960972E+02  0.62553299696E+03  0.62585587084E+03  0.00000000000E+00 0.  1.
         -2    1    1    2    0  502  0.14134377746E+02 -0.14291960972E+02 -0.46610641166E+03  0.46653963151E+03  0.00000000000E+00 0.  1.
</event>
<event>
 4    1  0.5953944E+003  0.2128260E+02  0.7546771E-02  0.1515268E+00
          2   -1    0    0  501    0  0.00000000000E+00  0.00000000000E+00  0.13208871005E+04  0.13208871005E+04  0.00000000000E+00 0. -1.
         -2   -1    0    0    0  501 -0.00000000000E+00 -0.00000000000E+00 -0.42732106811E+00  0.42732106811E+00  0.00000000000E+00 0. -1.
          2    1    1    2  502    0 -0.20987685685E+02  0.35307135721E+01  0.95385414046E+03  0.95409154181E+03  0.00000000000E+00 0. -1.
         -2    1    1    2    0  502  0.20987685685E+02 -0.35307135721E+01  0.36660563898E+03  0.36722287976E+03  0.00000000000E+00 0. -1.
</event>
<event>
 4    1  0.5953944E+003  0.4184053E+02  0.7546771E-02  0.1338025E+00
          2   -1    0    0  501    0  0.00000000000E+00  0.00000000000E+00  0.97006403101E+03  0.97006403101E+03  0.00000000000E+00 0.  1.
         -2   -1    0    0    0  501 -0.00000000000E+00 -0.00000000000E+00 -0.15465183947E+02  0.15465183947E+02  0.00000000000E+00 0. -1.
          2    1    1    2  502    0 -0.30353129608E+02  0.28797873876E+02  0.94042176773E+03  0.94135207613E+03  0.00000000000E+00 0.  1.
         -2    1    1    2    0  502  0.30353129608E+02 -0.28797873876E+02  0.14177079338E+02  0.44177138831E+02  0.00000000000E+00 0. -1.
</event>
<event>
 4    1  0.5953944E+003  0.2455544E+02  0.7546771E-02  0.1473839E+00
          2   -1    0    0  501    0  0.00000000000E+00  0.00000000000E+00  0.38379091404E+03  0.38379091404E+03  0.00000000000E+00 0.  1.
         -2   -1    0    0    0  501 -0.00000000000E+00 -0.00000000000E+00 -0.26268240766E+01  0.26268240766E+01  0.00000000000E+00 0.  1.
          2    1    1    2  502    0  0.14088114444E+02  0.20112050583E+02  0.31306879535E+03  0.31403031728E+03  0.00000000000E+00 0.  1.
         -2    1    1    2    0  502 -0.14088114444E+02 -0.20112050583E+02  0.68095294608E+02  0.72387420834E+02  0.00000000000E+00 0.  1.
</event>
<event>
 4    1  0.5953944E+003  0.2260185E+02  0.7546771E-02  0.1497559E+00
          2   -1    0    0  501    0  0.00000000000E+00  0.00000000000E+00  0.10113042419E+04  0.10113042419E+04  0.00000000000E+00 0.  1.
         -2   -1    0    0    0  501 -0.00000000000E+00 -0.00000000000E+00 -0.13898659431E+01  0.13898659431E+01  0.00000000000E+00 0.  1.
          2    1    1    2  502    0  0.22419297316E+02 -0.28667993134E+01  0.90894462608E+03  0.90922559176E+03  0.00000000000E+00 0.  1.
         -2    1    1    2    0  502 -0.22419297316E+02  0.28667993134E+01  0.10096974989E+03  0.10346851610E+03  0.00000000000E+00 0.  1.
</event>
<event>
 4    1  0.5953944E+003  0.3255543E+02  0.7546771E-02  0.1398615E+00
          2   -1    0    0  501    0  0.00000000000E+00  0.00000000000E+00  0.29419196319E+03  0.29419196319E+03  0.00000000000E+00 0.  1.
         -2   -1    0    0    0  501 -0.00000000000E+00 -0.00000000000E+00 -0.61816891358E+01  0.61816891358E+01  0.00000000000E+00 0.  1.
          2    1    1    2  502    0  0.10977984202E+02 -0.30648639621E+02  0.46996223506E+02  0.57170799116E+02  0.00000000000E+00 0.  1.
         -2    1    1    2    0  502 -0.10977984202E+02  0.30648639621E+02  0.24101405055E+03  0.24320285321E+03  0.00000000000E+00 0.  1.
</event>
<event>
 4    1  0.5953944E+003  0.2068169E+02  0.7546771E-02  0.1523858E+00
          2   -1    0    0  501    0  0.00000000000E+00  0.00000000000E+00  0.15226003408E+02  0.15226003408E+02  0.00000000000E+00 0.  1.
         -2   -1    0    0    0  501 -0.00000000000E+00 -0.00000000000E+00 -0.84468758380E+02  0.84468758380E+02  0.00000000000E+00 0. -1.
          2    1    1    2  502    0 -0.18190443421E+02 -0.98407300351E+01  0.61019729593E+01  0.21563076624E+02  0.00000000000E+00 0.  1.
         -2    1    1    2    0  502  0.18190443421E+02  0.98407300351E+01 -0.75344727931E+02  0.78131685164E+02  0.00000000000E+00 0. -1.
</event>
<event>
 4    1  0.5953944E+003  0.2165847E+02  0.7546771E-02  0.1510068E+00
          2   -1    0    0  501    0  0.00000000000E+00  0.00000000000E+00  0.32318529254E+03  0.32318529254E+03  0.00000000000E+00 0.  1.
         -2   -1    0    0    0  501 -0.00000000000E+00 -0.00000000000E+00 -0.20485473414E+02  0.20485473414E+02  0.00000000000E+00 0.  1.
          2    1    1    2  502    0 -0.21275510739E+02  0.40548573879E+01  0.31698594392E+03  0.31772500353E+03  0.00000000000E+00 0.  1.
         -2    1    1    2    0  502  0.21275510739E+02 -0.40548573879E+01 -0.14286124800E+02  0.25945762418E+02  0.00000000000E+00 0.  1.
</event>
<event>
 4    1  0.5953944E+003  0.2399972E+02  0.7546771E-02  0.1480312E+00
          2   -1    0    0  501    0  0.00000000000E+00  0.00000000000E+00  0.53872826037E+02  0.53872826037E+02  0.00000000000E+00 0.  1.
         -2   -1    0    0    0  501 -0.00000000000E+00 -0.00000000000E+00 -0.53088440234E+02  0.53088440234E+02  0.00000000000E+00 0.  1.
          2    1    1    2  502    0 -0.21920738406E+02  0.97707547401E+01  0.48185086964E+02  0.53831115781E+02  0.00000000000E+00 0.  1.
         -2    1    1    2    0  502  0.21920738406E+02 -0.97707547401E+01 -0.47400701162E+02  0.53130150490E+02  0.00000000000E+00 0.  1.
</event>
<event>
 4    1  0.5953944E+003  0.2347513E+02  0.7546771E-02  0.1486617E+00
          2   -1    0    0  501    0  0.00000000000E+00  0.00000000000E+00  0.84904964552E+03  0.84904964552E+03  0.00000000000E+00 0. -1.
         -2   -1    0    0    0  501 -0.00000000000E+00 -0.00000000000E+00 -0.10807543090E+01  0.10807543090E+01  0.00000000000E+00 0.  1.
          2    1    1    2  502    0 -0.23398172882E+02 -0.18993281829E+01  0.69263116436E+03  0.69302886793E+03  0.00000000000E+00 0. -1.
         -2    1    1    2    0  502  0.23398172882E+02  0.18993281829E+01  0.15533772685E+03  0.15710153190E+03  0.00000000000E+00 0.  1.
</event>
<event>
 4    1  0.5953944E+003  0.2992236E+02  0.7546771E-02  0.1420272E+00
          2   -1    0    0  501    0  0.00000000000E+00  0.00000000000E+00  0.13546441127E+04  0.13546441127E+04  0.00000000000E+00 0. -1.
         -2   -1    0    0    0  501 -0.00000000000E+00 -0.00000000000E+00 -0.45570882776E+01  0.45570882776E+01  0.00000000000E+00 0. -1.
          2    1    1    2  502    0 -0.29142836064E+02  0.67854609945E+01  0.13034308214E+04  0.13037742341E+04  0.00000000000E+00 0. -1.
         -2    1    1    2    0  502  0.29142836064E+02 -0.67854609945E+01  0.46656203021E+02  0.55426966858E+02  0.00000000000E+00 0. -1.
</event>
<event>
 4    1  0.5953944E+003  0.2937291E+02  0.7546771E-02  0.1425125E+00
          2   -1    0    0  501    0  0.00000000000E+00  0.00000000000E+00  0.17258411050E+02  0.17258411050E+02  0.00000000000E+00 0.  1.
         -2   -1    0    0    0  501 -0.00000000000E+00 -0.00000000000E+00 -0.17122101646E+03  0.17122101646E+03  0.00000000000E+00 0.  1.
          2    1    1    2  502    0  0.27861462071E+02 -0.93009090200E+01  0.23163294619E+01  0.29464102897E+02  0.00000000000E+00 0.  1.
         -2    1    1    2    0  502 -0.27861462071E+02  0.93009090200E+01 -0.15627893487E+03  0.15901532462E+03  0.00000000000E+00 0.  1.
</event>
<event>
 4    1  0.5953944E+003  0.4548859E+02  0.7546771E-02  0.1319014E+00
          2   -1    0    0  501    0  0.00000000000E+00  0.00000000000E+00  0.50824611911E+03  0.50824611911E+03  0.00000000000E+00 0.  1.
         -2   -1    0    0    0  501 -0.00000000000E+00 -0.00000000000E+00 -0.73366193486E+01  0.73366193486E+01  0.00000000000E+00 0.  1.
          2    1    1    2  502    0  0.70876991427E+01 -0.44933022195E+02  0.42243737733E+03  0.42487945317E+03  0.00000000000E+00 0.  1.
         -2    1    1    2    0  502 -0.70876991427E+01  0.44933022195E+02  0.78472122430E+02  0.90703285284E+02  0.00000000000E+00 0.  1.
</event>
<event>
 4    1  0.5953944E+003  0.2187946E+02  0.7546771E-02  0.1507069E+00
          2   -1    0    0  501    0  0.00000000000E+00  0.00000000000E+00  0.80745595892E+03  0.80745595892E+03  0.00000000000E+00 0.  1.
         -2   -1    0    0    0  501 -0.00000000000E+00 -0.00000000000E+00 -0.90360210842E+00  0.90360210842E+00  0.00000000000E+00 0. -1.
          2    1    1    2  502    0 -0.21056665140E+02 -0.59437200227E+01  0.64029550348E+03  0.64066921475E+03  0.00000000000E+00 0.  1.
         -2    1    1    2    0  502  0.21056665140E+02  0.59437200227E+01  0.16625685333E+03  0.16769034627E+03  0.00000000000E+00 0. -1.
</event>
<event>
 4    1  0.5953944E+003  0.2265830E+02  0.7546771E-02  0.1496834E+00
          2   -1    0    0  501    0  0.00000000000E+00  0.00000000000E+00  0.65532654621E+02  0.65532654621E+02  0.00000000000E+00 0.  1.
         -2   -1    0    0    0  501 -0.00000000000E+00 -0.00000000000E+00 -0.73445157387E+02  0.73445157387E+02  0.00000000000E+00 0.  1.
          2    1    1    2  502    0 -0.18785096736E+02 -0.12669597626E+02  0.61722055053E+02  0.65749605652E+02  0.00000000000E+00 0.  1.
         -2    1    1    2    0  502  0.18785096736E+02  0.12669597626E+02 -0.69634557820E+02  0.73228206356E+02  0.00000000000E+00 0.  1.
</event>
<event>
 4    1  0.5953944E+003  0.3343329E+02  0.7546771E-02  0.1391925E+00
          2   -1    0    0  501    0  0.00000000000E+00  0.00000000000E+00  0.74561925943E+01  0.74561925943E+01  0.00000000000E+00 0. -1.
         -2   -1    0    0    0  501 -0.00000000000E+00 -0.00000000000E+00 -0.38940035572E+03  0.38940035572E+03  0.00000000000E+00 0. -1.
          2    1    1    2  502    0  0.28000248340E+02 -0.18269405709E+02 -0.35359007287E+02  0.48662557355E+02  0.00000000000E+00 0. -1.
         -2    1    1    2    0  502 -0.28000248340E+02  0.18269405709E+02 -0.34658515584E+03  0.34819399096E+03  0.00000000000E+00 0. -1.
</event>
<event>
 4    1  0.5953944E+003  0.2526857E+02  0.7546771E-02  0.1465821E+00
          2   -1    0    0  501    0  0.00000000000E+00  0.00000000000E+00  0.10362078059E+04  0.10362078059E+04  0.00000000000E+00 0.  1.
         -2   -1    0    0    0  501 -0.00000000000E+00 -0.00000000000E+00 -0.76447100962E+00  0.76447100962E+00  0.00000000000E+00 0. -1.
          2    1    1    2  502    0 -0.14854465399E+02 -0.20441269154E+02  0.74607101546E+03  0.74649880156E+03  0.00000000000E+00 0.  1.
         -2    1    1    2    0  502  0.14854465399E+02  0.20441269154E+02  0.28937231945E+03  0.29047347537E+03  0.00000000000E+00 0. -1.
</event>
<event>
 4    1  0.5953944E+003  0.2576419E+02  0.7546771E-02  0.1460433E+00
          2   -1    0    0  501    0  0.00000000000E+00  0.00000000000E+00  0.19988277678E+04  0.19988277678E+04  0.00000000000E+00 0.  1.
         -2   -1    0    0    0  501 -0.00000000000E+00 -0.00000000000E+00 -0.88363093539E+00  0.88363093539E+00  0.00000000000E+00 0.  1.
          2    1    1    2  502    0 -0.15560010635E+02 -0.20534840305E+02  0.17889049248E+04  0.17890904459E+04  0.00000000000E+00 0.  1.
         -2    1    1    2    0  502  0.15560010635E+02  0.20534840305E+02  0.20903921205E+03  0.21062095283E+03  0.00000000000E+00 0.  1.
</event>
<event>
 4    1  0.5953944E+003  0.3935527E+02  0.7546771E-02  0.1352306E+00
          2   -1    0    0  501    0  0.00000000000E+00  0.00000000000E+00  0.16951948849E+04  0.16951948849E+04  0.00000000000E+00 0.  1.
         -2   -1    0    0    0  501 -0.00000000000E+00 -0.00000000000E+00 -0.46217486071E+02  0.46217486071E+02  0.00000000000E+00 0.  1.
          2    1    1    2  502    0 -0.33913223536E+02  0.19968246411E+02  0.16865455239E+04  0.16870046360E+04  0.00000000000E+00 0.  1.
         -2    1    1    2    0  502  0.33913223536E+02 -0.19968246411E+02 -0.37568125133E+02  0.54407734940E+02  0.00000000000E+00 0.  1.
</event>
<event>
 4    1  0.5953944E+003  0.2269951E+02  0.7546771E-02  0.1496306E+00
          2   -1    0    0  501    0  0.00000000000E+00  0.00000000000E+00  0.53198039385E+03  0.53198039385E+03  0.00000000000E+00 0. -1.
         -2   -1    0    0    0  501 -0.00000000000E+00 -0.00000000000E+00 -0.21144054861E+01  0.21144054861E+01  0.00000000000E+00 0. -1.
          2    1    1    2  502    0  0.16916350855E+02  0.15136209782E+02  0.46151903179E+03  0.46207692485E+03  0.00000000000E+00 0. -1.
         -2    1    1    2    0  502 -0.16916350855E+02 -0.15136209782E+02  0.68346956569E+02  0.72017874483E+02  0.00000000000E+00 0. -1.
</event>
<event>
 4    1  0.5953944E+003  0.3224596E+02  0.7546771E-02  0.1401033E+00
          2   -1    0    0  501    0  0.00000000000E+00  0.00000000000E+00  0.64684939158E+02  0.64684939158E+02  0.00000000000E+00 0. -1.
         -2   -1    0    0    0  501 -0.00000000000E+00 -0.00000000000E+00 -0.47281455041E+02  0.47281455041E+02  0.00000000000E+00 0.  1.
          2    1    1    2  502    0  0.19567752441E+02  0.25630154387E+02  0.54183310057E+02  0.63052619598E+02  0.00000000000E+00 0. -1.
         -2    1    1    2    0  502 -0.19567752441E+02 -0.25630154387E+02 -0.36779825940E+02  0.48913774600E+02  0.00000000000E+00 0.  1.
</event>
<event>
 4    1  0.5953944E+003  0.4436852E+02  0.7546771E-02  0.1324627E+00
          2   -1    0    0  501    0  0.00000000000E+00  0.00000000000E+00  0.10391597738E+03  0.10391597738E+03  0.00000000000E+00 0. -1.
         -2   -1    0    0    0  501 -0.00000000000E+00 -0.00000000000E+00 -0.25851706163E+03  0.25851706163E+03  0.00000000000E+00 0.  1.
          2    1    1    2  502    0 -0.40218734713E+02  0.18735491341E+02  0.97150005400E+02  0.10680210114E+03  0.00000000000E+00 0. -1.
         -2    1    1    2    0  502  0.40218734713E+02 -0.18735491341E+02 -0.25175108965E+03  0.25563093787E+03  0.00000000000E+00 0.  1.
</event>
<event>
 4    1  0.5953944E+003  0.2475204E+02  0.7546771E-02  0.1471597E+00
          2   -1    0    0  501    0  0.00000000000E+00  0.00000000000E+00  0.45529118732E+03  0.45529118732E+03  0.00000000000E+00 0.  1.
         -2   -1    0    0    0  501 -0.00000000000E+00 -0.00000000000E+00 -0.17950078239E+01  0.17950078239E+01  0.00000000000E+00 0.  1.
          2    1    1    2  502    0 -0.21423683462E+02  0.12397145807E+02  0.34109651470E+03  0.34199341482E+03  0.00000000000E+00 0.  1.
         -2    1    1    2    0  502  0.21423683462E+02 -0.12397145807E+02  0.11239966480E+03  0.11509278033E+03  0.00000000000E+00 0.  1.
</event>
<event>
 4    1  0.5953944E+003  0.2067184E+02  0.7546771E-02  0.1524002E+00
          2   -1    0    0  501    0  0.00000000000E+00  0.00000000000E+00  0.29633797605E+03  0.29633797605E+03  0.00000000000E+00 0. -1.
         -2   -1    0    0    0  501 -0.00000000000E+00 -0.00000000000E+00 -0.34582449779E+01  0.34582449779E+01  0.00000000000E+00 0.  1.
          2    1    1    2  502    0  0.18529803801E+02  0.91635779741E+01  0.26089570563E+03  0.26171338141E+03  0.00000000000E+00 0. -1.
         -2    1    1    2    0  502 -0.18529803801E+02 -0.91635779741E+01  0.31984025435E+02  0.38082839616E+02  0.00000000000E+00 0.  1.
</event>
<event>
 4    1  0.5953944E+003  0.3687292E+02  0.7546771E-02  0.1367853E+00
          2   -1    0    0  501    0  0.00000000000E+00  0.00000000000E+00  0.83519074964E+03  0.83519074964E+03  0.00000000000E+00 0. -1.
         -2   -1    0    0    0  501 -0.00000000000E+00 -0.00000000000E+00 -0.15019242818E+03  0.15019242818E+03  0.00000000000E+00 0.  1.
          2    1    1    2  502    0  0.23547662137E+02  0.28374637826E+02  0.83251338085E+03  0.83332955172E+03  0.00000000000E+00 0. -1.
         -2    1    1    2    0  502 -0.23547662137E+02 -0.28374637826E+02 -0.14751505939E+03  0.15205362610E+03  0.00000000000E+00 0.  1.
</event>
<event>
 4    1  0.5953944E+003  0.3012153E+02  0.7546771E-02  0.1418543E+00
          2   -1    0    0  501    0  0.00000000000E+00  0.00000000000E+00  0.15138785478E+04  0.15138785478E+04  0.00000000000E+00 0.  1.
         -2   -1    0    0    0  501 -0.00000000000E+00 -0.00000000000E+00 -0.43831031508E+02  0.43831031508E+02  0.00000000000E+00 0.  1.
          2    1    1    2  502    0 -0.23469304601E+02  0.18881155491E+02  0.15085353660E+04  0.15088360602E+04  0.00000000000E+00 0.  1.
         -2    1    1    2    0  502  0.23469304601E+02 -0.18881155491E+02 -0.38487849692E+02  0.48873519057E+02  0.00000000000E+00 0.  1.
</event>
<event>
 4    1  0.5953944E+003  0.2637141E+02  0.7546771E-02  0.1454027E+00
          2   -1    0    0  501    0  0.00000000000E+00  0.00000000000E+00  0.18010901031E+02  0.18010901031E+02  0.00000000000E+00 0. -1.
         -2   -1    0    0    0  501 -0.00000000000E+00 -0.00000000000E+00 -0.19564520896E+03  0.19564520896E+03  0.00000000000E+00 0. -1.
          2    1    1    2  502    0 -0.61432428330E+01 -0.25645895022E+02  0.68902102328E+01  0.27256675532E+02  0.00000000000E+00 0. -1.
         -2    1    1    2    0  502  0.61432428330E+01  0.25645895022E+02 -0.18452451816E+03  0.18639943446E+03  0.00000000000E+00 0. -1.
</event>
<event>
 4    1  0.5953944E+003  0.2217326E+02  0.7546771E-02  0.1503149E+00
          2   -1    0    0  501    0  0.00000000000E+00  0.00000000000E+00  0.29891957974E+01  0.29891957974E+01  0.00000000000E+00 0.  1.
         -2   -1    0    0    0  501 -0.00000000000E+00 -0.00000000000E+00 -0.36836378112E+03  0.36836378112E+03  0.00000000000E+00 0.  1.
          2    1    1    2  502    0  0.14372058465E+02  0.16884823053E+02 -0.44549275813E+02  0.49762348111E+02  0.00000000000E+00 0.  1.
         -2    1    1    2    0  502 -0.14372058465E+02 -0.16884823053E+02 -0.32082530951E+03  0.32159062880E+03  0.00000000000E+00 0.  1.
</event>
<event>
 4    1  0.5953944E+003  0.2069492E+02  0.7546771E-02  0.1523665E+00
          2   -1    0    0  501    0  0.00000000000E+00  0.00000000000E+00  0.47585184385E+03  0.47585184385E+03  0.00000000000E+00 0.  1.
         -2   -1    0    0    0  501 -0.00000000000E+00 -0.00000000000E+00 -0.33639619549E+01  0.33639619549E+01  0.00000000000E+00 0. -1.
          2    1    1    2  502    0 -0.75394284916E+01  0.19272695005E+02  0.44130829483E+03  0.44179326709E+03  0.00000000000E+00 0.  1.
         -2    1    1    2    0  502  0.75394284916E+01 -0.19272695005E+02  0.31179587062E+02  0.37422538718E+02  0.00000000000E+00 0. -1.
</event>
<event>
 4    1  0.5953944E+003  0.7523776E+02  0.7546771E-02  0.1215357E+00
          2   -1    0    0  501    0  0.00000000000E+00  0.00000000000E+00  0.13901614386E+04  0.13901614386E+04  0.00000000000E+00 0.  1.
         -2   -1    0    0    0  501 -0.00000000000E+00 -0.00000000000E+00 -0.19632607658E+02  0.19632607658E+02  0.00000000000E+00 0. -1.
          2    1    1    2  502    0  0.88042942677E+01 -0.74720842307E+02  0.13128170176E+04  0.13149711942E+04  0.00000000000E+00 0.  1.
         -2    1    1    2    0  502 -0.88042942677E+01  0.74720842307E+02  0.57711813333E+02  0.94822852049E+02  0.00000000000E+00 0. -1.
</event>
<event>
 4    1  0.5953944E+003  0.2105215E+02  0.7546771E-02  0.1518522E+00
          2   -1    0    0  501    0  0.00000000000E+00  0.00000000000E+00  0.22250167989E+02  0.22250167989E+02  0.00000000000E+00 0.  1.
         -2   -1    0    0    0  501 -0.00000000000E+00 -0.00000000000E+00 -0.21972160065E+02  0.21972160065E+02  0.00000000000E+00 0.  1.
          2    1    1    2  502    0  0.20970102219E+02 -0.18566628594E+01 -0.66207056722E+01  0.22068668461E+02  0.00000000000E+00 0.  1.
         -2    1    1    2    0  502 -0.20970102219E+02  0.18566628594E+01  0.68987135969E+01  0.22153659593E+02  0.00000000000E+00 0.  1.
</event>
<event>
 4    1  0.5953944E+003  0.2786346E+02  0.7546771E-02  0.1439122E+00
          2   -1    0    0  501    0  0.00000000000E+00  0.00000000000E+00  0.57304272249E+03  0.57304272249E+03  0.00000000000E+00 0.  1.
         -2   -1    0    0    0  501 -0.00000000000E+00 -0.00000000000E+00 -0.32978476507E+02  0.32978476507E+02  0.00000000000E+00 0.  1.
          2    1    1    2  502    0  0.80086898504E+01  0.26687702689E+02  0.56675329394E+03  0.56743781049E+03  0.00000000000E+00 0.  1.
         -2    1    1    2    0  502 -0.80086898504E+01 -0.26687702689E+02 -0.26689047953E+02  0.38583388506E+02  0.00000000000E+00 0.  1.
</event>
<event>
 4    1  0.5953944E+003  0.4116751E+02  0.7546771E-02  0.1341777E+00
          2   -1    0    0  501    0  0.00000000000E+00  0.00000000000E+00  0.34063763241E+03  0.34063763241E+03  0.00000000000E+00 0.  1.
         -2   -1    0    0    0  501 -0.00000000000E+00 -0.00000000000E+00 -0.81988039326E+02  0.81988039326E+02  0.00000000000E+00 0.  1.
          2    1    1    2  502    0 -0.35095581203E+02 -0.21518920854E+02  0.33412576301E+03  0.33665232701E+03  0.00000000000E+00 0.  1.
         -2    1    1    2    0  502  0.35095581203E+02  0.21518920854E+02 -0.75476169932E+02  0.85973344720E+02  0.00000000000E+00 0.  1.
</event>
<event>
 4    1  0.5953944E+003  0.2233270E+02  0.7546771E-02  0.1501052E+00
          2   -1    0    0  501    0  0.00000000000E+00  0.00000000000E+00  0.12230528899E+04  0.12230528899E+04  0.00000000000E+00 0.  1.
         -2   -1    0    0    0  501 -0.00000000000E+00 -0.00000000000E+00 -0.66022539771E+01  0.66022539771E+01  0.00000000000E+00 0. -1.
          2    1    1    2  502    0 -0.20411195733E+02 -0.90627137308E+01  0.12037627450E+04  0.12039698900E+04  0.00000000000E+00 0.  1.
         -2    1    1    2    0  502  0.20411195733E+02  0.90627137308E+01  0.12687890882E+02  0.25685253872E+02  0.00000000000E+00 0. -1.
</event>
<event>
 4    1  0.5953944E+003  0.2784555E+02  0.7546771E-02  0.1439294E+00
          2   -1    0    0  501    0  0.00000000000E+00  0.00000000000E+00  0.15119551834E+04  0.15119551834E+04  0.00000000000E+00 0. -1.
         -2   -1    0    0    0  501 -0.00000000000E+00 -0.00000000000E+00 -0.11283811982E+02  0.11283811982E+02  0.00000000000E+00 0. -1.
          2    1    1    2  502    0 -0.14649456092E+02 -0.23680545516E+02  0.14944468122E+04  0.14947062083E+04  0.00000000000E+00 0. -1.
         -2    1    1    2    0  502  0.14649456092E+02  0.23680545516E+02  0.62245592552E+01  0.28532787064E+02  0.00000000000E+00 0. -1.
</event>
<event>
 4    1  0.5953944E+003  0.3122307E+02  0.7546771E-02  0.1409257E+00
          2   -1    0    0  501    0  0.00000000000E+00  0.00000000000E+00  0.36749492274E+03  0.36749492274E+03  0.00000000000E+00 0.  1.
         -2   -1    0    0    0  501 -0.00000000000E+00 -0.00000000000E+00 -0.28450109006E+02  0.28450109006E+02  0.00000000000E+00 0.  1.
          2    1    1    2  502    0  0.30445925887E+02  0.69228540687E+01  0.35803934258E+03  0.35939817911E+03  0.00000000000E+00 0.  1.
         -2    1    1    2    0  502 -0.30445925887E+02 -0.69228540687E+01 -0.18994528846E+02  0.36546852637E+02  0.00000000000E+00 0.  1.
</event>
<event>
 4    1  0.5953944E+003  0.2320722E+02  0.7546771E-02  0.1489912E+00
          2   -1    0    0  501    0  0.00000000000E+00  0.00000000000E+00  0.42331005898E+02  0.42331005898E+02  0.00000000000E+00 0. -1.
         -2   -1    0    0    0  501 -0.00000000000E+00 -0.00000000000E+00 -0.14095570087E+02  0.14095570087E+02  0.00000000000E+00 0. -1.
          2    1    1    2  502    0 -0.82056162530E+01  0.21708118631E+02  0.53135109854E+01  0.23807728820E+02  0.00000000000E+00 0. -1.
         -2    1    1    2    0  502  0.82056162530E+01 -0.21708118631E+02  0.22921924826E+02  0.32618847164E+02  0.00000000000E+00 0. -1.
</event>
<event>
 4    1  0.5953944E+003  0.2529381E+02  0.7546771E-02  0.1465543E+00
          2   -1    0    0  501    0  0.00000000000E+00  0.00000000000E+00  0.39937022707E+03  0.39937022707E+03  0.00000000000E+00 0. -1.
         -2   -1    0    0    0  501 -0.00000000000E+00 -0.00000000000E+00 -0.36116175841E+03  0.36116175841E+03  0.00000000000E+00 0.  1.
          2    1    1    2  502    0 -0.22777264427E+02  0.10998780945E+02  0.39852593826E+03  0.39932781073E+03  0.00000000000E+00 0. -1.
         -2    1    1    2    0  502  0.22777264427E+02 -0.10998780945E+02 -0.36031746960E+03  0.36120417475E+03  0.00000000000E+00 0.  1.
</event>
<event>
 4    1  0.5953944E+003  0.2572037E+02  0.7546771E-02  0.1460904E+00
          2   -1    0    0  501    0  0.00000000000E+00  0.00000000000E+00  0.50885976742E+03  0.50885976742E+03  0.00000000000E+00 0.  1.
         -2   -1    0    0    0  501 -0.00000000000E+00 -0.00000000000E+00 -0.13312280196E+02  0.13312280196E+02  0.00000000000E+00 0.  1.
          2    1    1    2  502    0 -0.84701114289E+01  0.24285688411E+02  0.49578387618E+03  0.49645059103E+03  0.00000000000E+00 0.  1.
         -2    1    1    2    0  502  0.84701114289E+01 -0.24285688411E+02 -0.23638896047E+00  0.25721456587E+02  0.00000000000E+00 0.  1.
</event>
<event>
 4    1  0.5953944E+003  0.2185321E+02  0.7546771E-02  0.1507423E+00
          2   -1    0    0  501    0  0.00000000000E+00  0.00000000000E+00  0.74199145255E+02  0.74199145255E+02  0.00000000000E+00 0. -1.
         -2   -1    0    0    0  501 -0.00000000000E+00 -0.00000000000E+00 -0.21895991227E+02  0.21895991227E+02  0.00000000000E+00 0.  1.
          2    1    1    2  502    0 -0.21681102633E+02  0.27372729504E+01  0.66524526398E+02  0.70021964318E+02  0.00000000000E+00 0. -1.
         -2    1    1    2    0  502  0.21681102633E+02 -0.27372729504E+01 -0.14221372369E+02  0.26073172163E+02  0.00000000000E+00 0.  1.
</event>
<event>
 4    1  0.5953944E+003  0.3244883E+02  0.7546771E-02  0.1399444E+00
          2   -1    0    0  501    0  0.00000000000E+00  0.00000000000E+00  0.41240568526E+03  0.41240568526E+03  0.00000000000E+00 0. -1.
         -2   -1    0    0    0  501 -0.00000000000E+00 -0.00000000000E+00 -0.25601242396E+01  0.25601242396E+01  0.00000000000E+00 0. -1.
          2    1    1    2  502    0  0.83102001434E+01 -0.31366657668E+02  0.21576512553E+03  0.21819146645E+03  0.00000000000E+00 0. -1.
         -2    1    1    2    0  502 -0.83102001434E+01  0.31366657668E+02  0.19408043549E+03  0.19677434304E+03  0.00000000000E+00 0. -1.
</event>
<event>
 4    1  0.5953944E+003  0.2475331E+02  0.7546771E-02  0.1471582E+00
          2   -1    0    0  501    0  0.00000000000E+00  0.00000000000E+00  0.26851782526E+03  0.26851782526E+03  0.00000000000E+00 0.  1.
         -2   -1    0    0    0  501 -0.00000000000E+00 -0.00000000000E+00 -0.27124782079E+01  0.27124782079E+01  0.00000000000E+00 0. -1.
          2    1    1    2  502    0 -0.23686387675E+02  0.71889839361E+01  0.18693570374E+03  0.18856745155E+03  0.00000000000E+00 0.  1.
         -2    1    1    2    0  502  0.23686387675E+02 -0.71889839361E+01  0.78869643318E+02  0.82662851924E+02  0.00000000000E+00 0. -1.
</event>
<event>
 4    1  0.8006340E+003  0.2538122E+02  0.7546771E-02  0.1464584E+00
          2   -1    0    0  501    0  0.00000000000E+00  0.00000000000E+00  0.18649743274E+04  0.18649743274E+04  0.00000000000E+00 0. -1.
         -2   -1    0    0    0  501 -0.00000000000E+00 -0.00000000000E+00 -0.27664147853E+03  0.27664147853E+03  0.00000000000E+00 0.  1.
          2    1    1    2  502    0  0.22403074027E+02 -0.11929313757E+02  0.18643055956E+04  0.18644783614E+04  0.00000000000E+00 0. -1.
         -2    1    1    2    0  502 -0.22403074027E+02  0.11929313757E+02 -0.27597274671E+03  0.27713744457E+03  0.00000000000E+00 0.  1.
</event>
<event>
 4    1  0.5953944E+003  0.2354332E+02  0.7546771E-02  0.1485786E+00
          2   -1    0    0  501    0  0.00000000000E+00  0.00000000000E+00  0.13162463317E+02  0.13162463317E+02  0.00000000000E+00 0. -1.
         -2   -1    0    0    0  501 -0.00000000000E+00 -0.00000000000E+00 -0.13227140766E+03  0.13227140766E+03  0.00000000000E+00 0. -1.
          2    1    1    2  502    0  0.19168543652E+02 -0.13669491349E+02  0.48126686078E+00  0.23548241490E+02  0.00000000000E+00 0. -1.
         -2    1    1    2    0  502 -0.19168543652E+02  0.13669491349E+02 -0.11959021120E+03  0.12188562948E+03  0.00000000000E+00 0. -1.
</event>
<event>
 4    1  0.5953944E+003  0.2185724E+02  0.7546771E-02  0.1507369E+00
          2   -1    0    0  501    0  0.00000000000E+00  0.00000000000E+00  0.76141772974E+03  0.76141772974E+03  0.00000000000E+00 0. -1.
         -2   -1    0    0    0  501 -0.00000000000E+00 -0.00000000000E+00 -0.90482652390E+02  0.90482652390E+02  0.00000000000E+00 0. -1.
          2    1    1    2  502    0 -0.21460921466E+02  0.41434188536E+01  0.75993832802E+03  0.76025259056E+03  0.00000000000E+00 0. -1.
         -2    1    1    2    0  502  0.21460921466E+02 -0.41434188536E+01 -0.89003250666E+02  0.91647791567E+02  0.00000000000E+00 0. -1.
</event>
<event>
 4    1  0.5953944E+003  0.2181130E+02  0.7546771E-02  0.1507990E+00
          2   -1    0    0  501    0  0.00000000000E+00  0.00000000000E+00  0.11094971526E+04  0.11094971526E+04  0.00000000000E+00 0.  1.
         -2   -1    0    0    0  501 -0.00000000000E+00 -0.00000000000E+00 -0.65418632575E+00  0.65418632575E+00  0.00000000000E+00 0. -1.
          2    1    1    2  502    0  0.21085872252E+02 -0.55784418156E+01  0.88024471772E+03  0.88051490396E+03  0.00000000000E+00 0.  1.
         -2    1    1    2    0  502 -0.21085872252E+02  0.55784418156E+01  0.22859824855E+03  0.22963643496E+03  0.00000000000E+00 0. -1.
</event>
<event>
 4    1  0.5953944E+003  0.4409440E+02  0.7546771E-02  0.1326030E+00
          2   -1    0    0  501    0  0.00000000000E+00  0.00000000000E+00  0.31902606804E+03  0.31902606804E+03  0.00000000000E+00 0. -1.
         -2   -1    0    0    0  501 -0.00000000000E+00 -0.00000000000E+00 -0.25204835228E+02  0.25204835228E+02  0.00000000000E+00 0.  1.
          2    1    1    2  502    0 -0.61880407287E+01 -0.43658033782E+02  0.29677957050E+03  0.30003737972E+03  0.00000000000E+00 0. -1.
         -2    1    1    2    0  502  0.61880407287E+01  0.43658033782E+02 -0.29583376890E+01  0.44193523549E+02  0.00000000000E+00 0.  1.
</event>
<event>
 4    1  0.5953944E+003  0.2245783E+02  0.7546771E-02  0.1499421E+00
          2   -1    0    0  501    0  0.00000000000E+00  0.00000000000E+00  0.12662754674E+04  0.12662754674E+04  0.00000000000E+00 0. -1.
         -2   -1    0    0    0  501 -0.00000000000E+00 -0.00000000000E+00 -0.94656337434E+00  0.94656337434E+00  0.00000000000E+00 0.  1.
          2    1    1    2  502    0  0.19566250134E+02 -0.11023426087E+02  0.11148826189E+04  0.11151087875E+04  0.00000000000E+00 0. -1.
         -2    1    1    2    0  502 -0.19566250134E+02  0.11023426087E+02  0.15044628517E+03  0.15211324330E+03  0.00000000000E+00 0.  1.
</event>
<event>
 4    1  0.5953944E+003  0.3297175E+02  0.7546771E-02  0.1395412E+00
          2   -1    0    0  501    0  0.00000000000E+00  0.00000000000E+00  0.63631166702E+02  0.63631166702E+02  0.00000000000E+00 0.  1.
         -2   -1    0    0    0  501 -0.00000000000E+00 -0.00000000000E+00 -0.44503942144E+03  0.44503942144E+03  0.00000000000E+00 0.  1.
          2    1    1    2  502    0  0.11604373705E+02  0.30862191987E+02  0.58701452599E+02  0.67327534639E+02  0.00000000000E+00 0.  1.
         -2    1    1    2    0  502 -0.11604373705E+02 -0.30862191987E+02 -0.44010970734E+03  0.44134305350E+03  0.00000000000E+00 0.  1.
</event>
<event>
 4    1  0.5953944E+003  0.2740301E+02  0.7546771E-02  0.1443601E+00
          2   -1    0    0  501    0  0.00000000000E+00  0.00000000000E+00  0.23383728008E+03  0.23383728008E+03  0.00000000000E+00 0.  1.
         -2   -1    0    0    0  501 -0.00000000000E+00 -0.00000000000E+00 -0.14524253117E+04  0.14524253117E+04  0.00000000000E+00 0.  1.
          2    1    1    2  502    0  0.20045017218E+02  0.18684818379E+02  0.23290468191E+03  0.23451122789E+03  0.00000000000E+00 0.  1.
         -2    1    1    2    0  502 -0.20045017218E+02 -0.18684818379E+02 -0.14514927135E+04  0.14517513639E+04  0.00000000000E+00 0.  1.
</event>
<event>
 4    1  0.5953944E+003  0.2115559E+02  0.7546771E-02  0.1517055E+00
          2   -1    0    0  501    0  0.00000000000E+00  0.00000000000E+00  0.73453426118E+03  0.73453426118E+03  0.00000000000E+00 0.  1.
         -2   -1    0    0    0  501 -0.00000000000E+00 -0.00000000000E+00 -0.30884457309E+01  0.30884457309E+01  0.00000000000E+00 0. -1.
          2    1    1    2  502    0 -0.27049993088E+01  0.20981946813E+02  0.69615669031E+03  0.69647806611E+03  0.00000000000E+00 0.  1.
         -2    1    1    2    0  502  0.27049993088E+01 -0.20981946813E+02  0.35289125140E+02  0.41144640799E+02  0.00000000000E+00 0. -1.
</event>
<event>
 4    1  0.5953944E+003  0.4019739E+02  0.7546771E-02  0.1347333E+00
          2   -1    0    0  501    0  0.00000000000E+00  0.00000000000E+00  0.22513846168E+03  0.22513846168E+03  0.00000000000E+00 0. -1.
         -2   -1    0    0    0  501 -0.00000000000E+00 -0.00000000000E+00 -0.12153893835E+02  0.12153893835E+02  0.00000000000E+00 0. -1.
          2    1    1    2  502    0 -0.24451258752E+02 -0.31905575039E+02  0.18241523537E+03  0.18679172323E+03  0.00000000000E+00 0. -1.
         -2    1    1    2    0  502  0.24451258752E+02  0.31905575039E+02  0.30569332476E+02  0.50500632284E+02  0.00000000000E+00 0. -1.
</event>
<event>
 4    1  0.5953944E+003  0.2517155E+02  0.7546771E-02  0.1466893E+00
          2   -1    0    0  501    0  0.00000000000E+00  0.00000000000E+00  0.29757670657E+03  0.29757670657E+03  0.00000000000E+00 0.  1.
         -2   -1    0    0    0  501 -0.00000000000E+00 -0.00000000000E+00 -0.22399285640E+02  0.22399285640E+02  0.00000000000E+00 0.  1.
          2    1    1    2  502    0  0.24918613808E+02  0.35594632069E+01  0.28978282662E+03  0.29087401688E+03  0.00000000000E+00 0.  1.
         -2    1    1    2    0  502 -0.24918613808E+02 -0.35594632069E+01 -0.14605405694E+02  0.29101975326E+02  0.00000000000E+00 0.  1.
</event>
<event>
 4    1  0.5953944E+003  0.2943589E+02  0.7546771E-02  0.1424563E+00
          2   -1    0    0  501    0  0.00000000000E+00  0.00000000000E+00  0.15396364580E+03  0.15396364580E+03  0.00000000000E+00 0. -1.
         -2   -1    0    0    0  501 -0.00000000000E+00 -0.00000000000E+00 -0.27505178391E+03  0.27505178391E+03  0.00000000000E+00 0.  1.
          2    1    1    2  502    0  0.11447882477E+02 -0.27118582418E+02  0.15175780938E+03  0.15458623559E+03  0.00000000000E+00 0. -1.
         -2    1    1    2    0  502 -0.11447882477E+02  0.27118582418E+02 -0.27284594749E+03  0.27442919412E+03  0.00000000000E+00 0.  1.
</event>
<event>
 4    1  0.5953944E+003  0.3017481E+02  0.7546771E-02  0.1418083E+00
          2   -1    0    0  501    0  0.00000000000E+00  0.00000000000E+00  0.25154850611E+03  0.25154850611E+03  0.00000000000E+00 0. -1.
         -2   -1    0    0    0  501 -0.00000000000E+00 -0.00000000000E+00 -0.64935824533E+01  0.64935824533E+01  0.00000000000E+00 0.  1.
          2    1    1    2  502    0 -0.30130002104E+02  0.16438540427E+01  0.20836082523E+03  0.21053444557E+03  0.00000000000E+00 0. -1.
         -2    1    1    2    0  502  0.30130002104E+02 -0.16438540427E+01  0.36694098423E+02  0.47507642985E+02  0.00000000000E+00 0.  1.
</event>
<event>
 4    1  0.5953944E+003  0.2139730E+02  0.7546771E-02  0.1513667E+00
          2   -1    0    0  501    0  0.00000000000E+00  0.00000000000E+00  0.19079401217E+03  0.19079401217E+03  0.00000000000E+00 0.  1.
         -2   -1    0    0    0  501 -0.00000000000E+00 -0.00000000000E+00 -0.32128799572E+02  0.32128799572E+02  0.00000000000E+00 0. -1.
          2    1    1    2  502    0  0.19759124625E+02 -0.82110517455E+01  0.18655075357E+03  0.18777387474E+03  0.00000000000E+00 0.  1.
         -2    1    1    2    0  502 -0.19759124625E+02  0.82110517455E+01 -0.27885540976E+02  0.35148937000E+02  0.00000000000E+00 0. -1.
</event>
<event>
 4    1  0.5953944E+003  0.3573885E+02  0.7546771E-02  0.1375442E+00
          2   -1    0    0  501    0  0.00000000000E+00  0.00000000000E+00  0.58513999081E+03  0.58513999081E+03  0.00000000000E+00 0.  1.
         -2   -1    0    0    0  501 -0.00000000000E+00 -0.00000000000E+00 -0.16544877591E+02  0.16544877591E+02  0.00000000000E+00 0. -1.
          2    1    1    2  502    0 -0.38420544855E+01 -0.35531733018E+02  0.56459257827E+03  0.56572258649E+03  0.00000000000E+00 0.  1.
         -2    1    1    2    0  502  0.38420544855E+01  0.35531733018E+02  0.40025349503E+01  0.35962281907E+02  0.00000000000E+00 0. -1.
</event>
<event>
 4    1  0.5953944E+003  0.3285655E+02  0.7546771E-02  0.1396293E+00
          2   -1    0    0  501    0  0.00000000000E+00  0.00000000000E+00  0.21697342370E+04  0.21697342370E+04  0.00000000000E+00 0. -1.
         -2   -1    0    0    0  501 -0.00000000000E+00 -0.00000000000E+00 -0.27680787617E+01  0.27680787617E+01  0.00000000000E+00 0. -1.
          2    1    1    2  502    0 -0.14076990575E+02 -0.29688234466E+02  0.20672777404E+04  0.20675388289E+04  0.00000000000E+00 0. -1.
         -2    1    1    2    0  502  0.14076990575E+02  0.29688234466E+02  0.99688417829E+02  0.10496348688E+03  0.00000000000E+00 0. -1.
</event>
<event>
 4    1  0.5953944E+003  0.2091314E+02  0.7546771E-02  0.1520509E+00
          2   -1    0    0  501    0  0.00000000000E+00  0.00000000000E+00  0.98552048851E+03  0.98552048851E+03  0.00000000000E+00 0. -1.
         -2   -1    0    0    0  501 -0.00000000000E+00 -0.00000000000E+00 -0.16661416835E+01  0.16661416835E+01  0.00000000000E+00 0. -1.
          2    1    1    2  502    0  0.31137017891E+01  0.20680041181E+02  0.91470507064E+03  0.91494411059E+03  0.00000000000E+00 0. -1.
         -2    1    1    2    0  502 -0.31137017891E+01 -0.20680041181E+02  0.69149276189E+02  0.72242519609E+02  0.00000000000E+00 0. -1.
</event>
<event>
 4    1  0.5953944E+003  0.3156396E+02  0.7546771E-02  0.1406476E+00
          2   -1    0    0  501    0  0.00000000000E+00  0.00000000000E+00  0.76259883590E+03  0.76259883590E+03  0.00000000000E+00 0. -1.
         -2   -1    0    0    0  501 -0.00000000000E+00 -0.00000000000E+00 -0.35302206932E+01  0.35302206932E+01  0.00000000000E+00 0.  1.
          2    1    1    2  502    0 -0.90136430586E+01  0.30249593516E+02  0.68356522515E+03  0.68429357786E+03  0.00000000000E+00 0. -1.
         -2    1    1    2    0  502  0.90136430586E+01 -0.30249593516E+02  0.75503390056E+02  0.81835478730E+02  0.00000000000E+00 0.  1.
</event>
<event>
 4    1  0.5953944E+003  0.3139441E+02  0.7546771E-02  0.1407854E+00
          2   -1    0    0  501    0  0.00000000000E+00  0.00000000000E+00  0.10771077759E+04  0.10771077759E+04  0.00000000000E+00 0. -1.
         -2   -1    0    0    0  501 -0.00000000000E+00 -0.00000000000E+00 -0.15587508357E+01  0.15587508357E+01  0.00000000000E+00 0.  1.
          2    1    1    2  502    0  0.28314319251E+02  0.13561274471E+02  0.88436007221E+03  0.88491714084E+03  0.00000000000E+00 0. -1.
         -2    1    1    2    0  502 -0.28314319251E+02 -0.13561274471E+02  0.19118895286E+03  0.19374938590E+03  0.00000000000E+00 0.  1.
</event>
<event>
 4    1  0.5953944E+003  0.2405055E+02  0.7546771E-02  0.1479711E+00
          2   -1    0    0  501    0  0.00000000000E+00  0.00000000000E+00  0.73073919134E+02  0.73073919134E+02  0.00000000000E+00 0. -1.
         -2   -1    0    0    0  501 -0.00000000000E+00 -0.00000000000E+00 -0.35094303973E+02  0.35094303973E+02  0.00000000000E+00 0.  1.
          2    1    1    2  502    0 -0.10371897440E+02 -0.21699143701E+02  0.66585230320E+02  0.70795635393E+02  0.00000000000E+00 0. -1.
         -2    1    1    2    0  502  0.10371897440E+02  0.21699143701E+02 -0.28605615159E+02  0.37372587715E+02  0.00000000000E+00 0.  1.
</event>
<event>
 4    1  0.5953944E+003  0.2214830E+02  0.7546771E-02  0.1503479E+00
          2   -1    0    0  501    0  0.00000000000E+00  0.00000000000E+00  0.14805931306E+02  0.14805931306E+02  0.00000000000E+00 0. -1.
         -2   -1    0    0    0  501 -0.00000000000E+00 -0.00000000000E+00 -0.87240318285E+02  0.87240318285E+02  0.00000000000E+00 0. -1.
          2    1    1    2  502    0  0.12500142586E+02 -0.18283696323E+02  0.39657052532E+01  0.22500531861E+02  0.00000000000E+00 0. -1.
         -2    1    1    2    0  502 -0.12500142586E+02  0.18283696323E+02 -0.76400092233E+02  0.79545717729E+02  0.00000000000E+00 0. -1.
</event>
<event>
 4    1  0.5953944E+003  0.2822569E+02  0.7546771E-02  0.1435670E+00
          2   -1    0    0  501    0  0.00000000000E+00  0.00000000000E+00  0.12509508539E+03  0.12509508539E+03  0.00000000000E+00 0.  1.
         -2   -1    0    0    0  501 -0.00000000000E+00 -0.00000000000E+00 -0.14837884231E+02  0.14837884231E+02  0.00000000000E+00 0.  1.
          2    1    1    2  502    0  0.21217176530E+02  0.18615072573E+02  0.10798840920E+03  0.11161624446E+03  0.00000000000E+00 0.  1.
         -2    1    1    2    0  502 -0.21217176530E+02 -0.18615072573E+02  0.22687919616E+01  0.28316725159E+02  0.00000000000E+00 0.  1.
</event>
<event>
 4    1  0.5953944E+003  0.1304290E+03  0.7546771E-02  0.1119556E+00
          2   -1    0    0  501    0  0.00000000000E+00  0.00000000000E+00  0.68774014843E+03  0.68774014843E+03  0.00000000000E+00 0.  1.
         -2   -1    0    0    0  501 -0.00000000000E+00 -0.00000000000E+00 -0.26490074776E+02  0.26490074776E+02  0.00000000000E+00 0.  1.
          2    1    1    2  502    0 -0.14204282092E+02 -0.12965323718E+03  0.42252804009E+03  0.44220093646E+03  0.00000000000E+00 0.  1.
         -2    1    1    2    0  502  0.14204282092E+02  0.12965323718E+03  0.23872203356E+03  0.27202928675E+03  0.00000000000E+00 0.  1.
</event>
<event>
 4    1  0.5953944E+003  0.2211698E+02  0.7546771E-02  0.1503894E+00
          2   -1    0    0  501    0  0.00000000000E+00  0.00000000000E+00  0.39315946334E+01  0.39315946334E+01  0.00000000000E+00 0. -1.
         -2   -1    0    0    0  501 -0.00000000000E+00 -0.00000000000E+00 -0.15669187120E+03  0.15669187120E+03  0.00000000000E+00 0.  1.
          2    1    1    2  502    0  0.14084957857E+02 -0.17052112767E+02 -0.39931421648E+02  0.45647333136E+02  0.00000000000E+00 0. -1.
         -2    1    1    2    0  502 -0.14084957857E+02  0.17052112767E+02 -0.11282885492E+03  0.11497613269E+03  0.00000000000E+00 0.  1.
</event>
<event>
 4    1  0.5953944E+003  0.2778198E+02  0.7546771E-02  0.1439907E+00
          2   -1    0    0  501    0  0.00000000000E+00  0.00000000000E+00  0.49311177274E+02  0.49311177274E+02  0.00000000000E+00 0.  1.
         -2   -1    0    0    0  501 -0.00000000000E+00 -0.00000000000E+00 -0.40201758377E+02  0.40201758377E+02  0.00000000000E+00 0. -1.
          2    1    1    2  502    0 -0.26544698214E+02  0.81986384526E+01  0.39529351677E+02  0.48315715039E+02  0.00000000000E+00 0.  1.
         -2    1    1    2    0  502  0.26544698214E+02 -0.81986384526E+01 -0.30419932780E+02  0.41197220611E+02  0.00000000000E+00 0. -1.
</event>
<event>
 4    1  0.5953944E+003  0.3546357E+02  0.7546771E-02  0.1377333E+00
          2   -1    0    0  501    0  0.00000000000E+00  0.00000000000E+00  0.18330045166E+04  0.18330045166E+04  0.00000000000E+00 0. -1.
         -2   -1    0    0    0  501 -0.00000000000E+00 -0.00000000000E+00 -0.13315274442E+01  0.13315274442E+01  0.00000000000E+00 0. -1.
          2    1    1    2  502    0  0.23181494051E+02 -0.26838095796E+02  0.15543794166E+04  0.15547839193E+04  0.00000000000E+00 0. -1.
         -2    1    1    2    0  502 -0.23181494051E+02  0.26838095796E+02  0.27729357257E+03  0.27955212473E+03  0.00000000000E+00 0. -1.
</event>
<event>
 4    1  0.5953944E+003  0.2464388E+02  0.7546771E-02  0.1472827E+00
          2   -1    0    0  501    0  0.00000000000E+00  0.00000000000E+00  0.22656776160E+04  0.22656776160E+04  0.00000000000E+00 0. -1.
         -2   -1    0    0    0  501 -0.00000000000E+00 -0.00000000000E+00 -0.32806411184E+00  0.32806411184E+00  0.00000000000E+00 0. -1.
          2    1    1    2  502    0 -0.20263601558E+02 -0.14025237165E+02  0.16172585196E+04  0.16174462712E+04  0.00000000000E+00 0. -1.
         -2    1    1    2    0  502  0.20263601558E+02  0.14025237165E+02  0.64809103224E+03  0.64855940892E+03  0.00000000000E+00 0. -1.
</event>
<event>
 4    1  0.5953944E+003  0.2638406E+02  0.7546771E-02  0.1453895E+00
          2   -1    0    0  501    0  0.00000000000E+00  0.00000000000E+00  0.12972593688E+04  0.12972593688E+04  0.00000000000E+00 0.  1.
         -2   -1    0    0    0  501 -0.00000000000E+00 -0.00000000000E+00 -0.37131006132E+02  0.37131006132E+02  0.00000000000E+00 0. -1.
          2    1    1    2  502    0  0.25506401297E+02 -0.67485001976E+01  0.12924207616E+04  0.12926900417E+04  0.00000000000E+00 0.  1.
         -2    1    1    2    0  502 -0.25506401297E+02  0.67485001976E+01 -0.32292398967E+02  0.41700333249E+02  0.00000000000E+00 0. -1.
</event>
<event>
 4    1  0.5953944E+003  0.3077800E+02  0.7546771E-02  0.1412954E+00
          2   -1    0    0  501    0  0.00000000000E+00  0.00000000000E+00  0.19389691403E+04  0.19389691403E+04  0.00000000000E+00 0. -1.
         -2   -1    0    0    0  501 -0.00000000000E+00 -0.00000000000E+00 -0.75215601730E+01  0.75215601730E+01  0.00000000000E+00 0.  1.
          2    1    1    2  502    0  0.25708289047E+02 -0.16922439847E+02  0.19068307078E+04  0.19070790842E+04  0.00000000000E+00 0. -1.
         -2    1    1    2    0  502 -0.25708289047E+02  0.16922439847E+02  0.24616872333E+02  0.39411616302E+02  0.00000000000E+00 0.  1.
</event>
<event>
 4    1  0.5953944E+003  0.2393972E+02  0.7546771E-02  0.1481024E+00
          2   -1    0    0  501    0  0.00000000000E+00  0.00000000000E+00  0.21507171169E+03  0.21507171169E+03  0.00000000000E+00 0.  1.
         -2   -1    0    0    0  501 -0.00000000000E+00 -0.00000000000E+00 -0.82133203301E+01  0.82133203301E+01  0.00000000000E+00 0. -1.
          2    1    1    2  502    0  0.73477058320E+01 -0.22784236476E+02  0.19519083636E+03  0.19665343326E+03  0.00000000000E+00 0.  1.
         -2    1    1    2    0  502 -0.73477058320E+01  0.22784236476E+02  0.11667554992E+02  0.26631598755E+02  0.00000000000E+00 0. -1.
</event>
<event>
 4    1  0.5953944E+003  0.3114608E+02  0.7546771E-02  0.1409892E+00
          2   -1    0    0  501    0  0.00000000000E+00  0.00000000000E+00  0.19725718693E+04  0.19725718693E+04  0.00000000000E+00 0. -1.
         -2   -1    0    0    0  501 -0.00000000000E+00 -0.00000000000E+00 -0.18064884776E+01  0.18064884776E+01  0.00000000000E+00 0.  1.
          2    1    1    2  502    0 -0.71382802754E+01  0.30317040950E+02  0.18275472580E+04  0.18278126431E+04  0.00000000000E+00 0. -1.
         -2    1    1    2    0  502  0.71382802754E+01 -0.30317040950E+02  0.14321812285E+03  0.14656571472E+03  0.00000000000E+00 0.  1.
</event>
<event>
 4    1  0.5953944E+003  0.2480066E+02  0.7546771E-02  0.1471046E+00
          2   -1    0    0  501    0  0.00000000000E+00  0.00000000000E+00  0.17720681796E+02  0.17720681796E+02  0.00000000000E+00 0.  1.
         -2   -1    0    0    0  501 -0.00000000000E+00 -0.00000000000E+00 -0.17324980711E+03  0.17324980711E+03  0.00000000000E+00 0.  1.
          2    1    1    2  502    0 -0.16304667574E+02  0.18687705436E+02  0.76217512644E+01  0.25945396731E+02  0.00000000000E+00 0.  1.
         -2    1    1    2    0  502  0.16304667574E+02 -0.18687705436E+02 -0.16315087658E+03  0.16502509218E+03  0.00000000000E+00 0.  1.
</event>
<event>
 4    1  0.5953944E+003  0.2821098E+02  0.7546771E-02  0.1435809E+00
          2   -1    0    0  501    0  0.00000000000E+00  0.00000000000E+00  0.17495145338E+04  0.17495145338E+04  0.00000000000E+00 0.  1.
         -2   -1    0    0    0  501 -0.00000000000E+00 -0.00000000000E+00 -0.34709837617E+02  0.34709837617E+02  0.00000000000E+00 0.  1.
          2    1    1    2  502    0 -0.84068891811E+01  0.26929232122E+02  0.17436492956E+04  0.17438774973E+04  0.00000000000E+00 0.  1.
         -2    1    1    2    0  502  0.84068891811E+01 -0.26929232122E+02 -0.28844599504E+02  0.40346874091E+02  0.00000000000E+00 0.  1.
</event>
<event>
 4    1  0.5953944E+003  0.3333193E+02  0.7546771E-02  0.1392685E+00
          2   -1    0    0  501    0  0.00000000000E+00  0.00000000000E+00  0.38768251520E+02  0.38768251520E+02  0.00000000000E+00 0.  1.
         -2   -1    0    0    0  501 -0.00000000000E+00 -0.00000000000E+00 -0.10701006199E+03  0.10701006199E+03  0.00000000000E+00 0. -1.
          2    1    1    2  502    0  0.14611303482E+02 -0.29958756640E+02  0.28249141081E+02  0.43692462287E+02  0.00000000000E+00 0.  1.
         -2    1    1    2    0  502 -0.14611303482E+02  0.29958756640E+02 -0.96490951548E+02  0.10208585122E+03  0.00000000000E+00 0. -1.
</event>
<event>
 4    1  0.5953944E+003  0.2005853E+02  0.7546771E-02  0.1533143E+00
          2   -1    0    0  501    0  0.00000000000E+00  0.00000000000E+00  0.15527030390E+03  0.15527030390E+03  0.00000000000E+00 0. -1.
         -2   -1    0    0    0  501 -0.00000000000E+00 -0.00000000000E+00 -0.38639620209E+02  0.38639620209E+02  0.00000000000E+00 0. -1.
          2    1    1    2  502    0 -0.19572721208E+02 -0.43878367126E+01  0.15196289183E+03  0.15328100020E+03  0.00000000000E+00 0. -1.
         -2    1    1    2    0  502  0.19572721208E+02  0.43878367126E+01 -0.35332208140E+02  0.40628923916E+02  0.00000000000E+00 0. -1.
</event>
<event>
 4    1  0.5953944E+003  0.2473657E+02  0.7546771E-02  0.1471772E+00
          2   -1    0    0  501    0  0.00000000000E+00  0.00000000000E+00  0.68159918207E+02  0.68159918207E+02  0.00000000000E+00 0.  1.
         -2   -1    0    0    0  501 -0.00000000000E+00 -0.00000000000E+00 -0.93491565340E+01  0.93491565340E+01  0.00000000000E+00 0.  1.
          2    1    1    2  502    0  0.24335379261E+02  0.44370159751E+01  0.37133515637E+02  0.44618334551E+02  0.00000000000E+00 0.  1.
         -2    1    1    2    0  502 -0.24335379261E+02 -0.44370159751E+01  0.21677246035E+02  0.32890740189E+02  0.00000000000E+00 0.  1.
</event>
<event>
 4    1  0.5953944E+003  0.2400185E+02  0.7546771E-02  0.1480287E+00
          2   -1    0    0  501    0  0.00000000000E+00  0.00000000000E+00  0.16349480450E+04  0.16349480450E+04  0.00000000000E+00 0.  1.
         -2   -1    0    0    0  501 -0.00000000000E+00 -0.00000000000E+00 -0.43098977798E+01  0.43098977798E+01  0.00000000000E+00 0.  1.
          2    1    1    2  502    0  0.11098161495E+02  0.21281904351E+02  0.16007290369E+04  0.16009089725E+04  0.00000000000E+00 0.  1.
         -2    1    1    2    0  502 -0.11098161495E+02 -0.21281904351E+02  0.29909110300E+02  0.38348970264E+02  0.00000000000E+00 0.  1.
</event>
<event>
 4    1  0.5953944E+003  0.2801737E+02  0.7546771E-02  0.1437648E+00
          2   -1    0    0  501    0  0.00000000000E+00  0.00000000000E+00  0.36523901504E+03  0.36523901504E+03  0.00000000000E+00 0.  1.
         -2   -1    0    0    0  501 -0.00000000000E+00 -0.00000000000E+00 -0.40844825095E+01  0.40844825095E+01  0.00000000000E+00 0. -1.
          2    1    1    2  502    0  0.27100511112E+02  0.71088168320E+01  0.30768741117E+03  0.30896037929E+03  0.00000000000E+00 0.  1.
         -2    1    1    2    0  502 -0.27100511112E+02 -0.71088168320E+01  0.53467121363E+02  0.60363118260E+02  0.00000000000E+00 0. -1.
</event>
<event>
 4    1  0.5953944E+003  0.2453406E+02  0.7546771E-02  0.1474084E+00
          2   -1    0    0  501    0  0.00000000000E+00  0.00000000000E+00  0.17116761287E+03  0.17116761287E+03  0.00000000000E+00 0.  1.
         -2   -1    0    0    0  501 -0.00000000000E+00 -0.00000000000E+00 -0.79170054216E+02  0.79170054216E+02  0.00000000000E+00 0.  1.
          2    1    1    2  502    0 -0.23527971747E+02 -0.69537528172E+01  0.16835618137E+03  0.17013442902E+03  0.00000000000E+00 0.  1.
         -2    1    1    2    0  502  0.23527971747E+02  0.69537528172E+01 -0.76358622717E+02  0.80203238065E+02  0.00000000000E+00 0.  1.
</event>
<event>
 4    1  0.5953944E+003  0.4570304E+02  0.7546771E-02  0.1317961E+00
          2   -1    0    0  501    0  0.00000000000E+00  0.00000000000E+00  0.97136086378E+03  0.97136086378E+03  0.00000000000E+00 0.  1.
         -2   -1    0    0    0  501 -0.00000000000E+00 -0.00000000000E+00 -0.30723774949E+01  0.30723774949E+01  0.00000000000E+00 0.  1.
          2    1    1    2  502    0  0.36812933916E+02  0.27084609406E+02  0.75104891577E+03  0.75243819816E+03  0.00000000000E+00 0.  1.
         -2    1    1    2    0  502 -0.36812933916E+02 -0.27084609406E+02  0.21723957052E+03  0.22199504312E+03  0.00000000000E+00 0.  1.
</event>
<event>
 4    1  0.5953944E+003  0.2260307E+02  0.7546771E-02  0.1497544E+00
          2   -1    0    0  501    0  0.00000000000E+00  0.00000000000E+00  0.41963714679E+03  0.41963714679E+03  0.00000000000E+00 0.  1.
         -2   -1    0    0    0  501 -0.00000000000E+00 -0.00000000000E+00 -0.31060805746E+02  0.31060805746E+02  0.00000000000E+00 0. -1.
          2    1    1    2  502    0  0.39984457514E+01 -0.22246596990E+02  0.41517654589E+03  0.41579136944E+03  0.00000000000E+00 0.  1.
         -2    1    1    2    0  502 -0.39984457514E+01  0.22246596990E+02 -0.26600204841E+02  0.34906583099E+02  0.00000000000E+00 0. -1.
</event>
<event>
 4    1  0.5953944E+003  0.3704616E+02  0.7546771E-02  0.1366722E+00
          2   -1    0    0  501    0  0.00000000000E+00  0.00000000000E+00  0.13821979141E+02  0.13821979141E+02  0.00000000000E+00 0. -1.
         -2   -1    0    0    0  501 -0.00000000000E+00 -0.00000000000E+00 -0.14654566820E+03  0.14654566820E+03  0.00000000000E+00 0. -1.
          2    1    1    2  502    0  0.34461395254E+02  0.13595220906E+02 -0.20829911204E+02  0.42500623468E+02  0.00000000000E+00 0. -1.
         -2    1    1    2    0  502 -0.34461395254E+02 -0.13595220906E+02 -0.11189377786E+03  0.11786702387E+03  0.00000000000E+00 0. -1.
</event>
<event>
 4    1  0.5953944E+003  0.2043825E+02  0.7546771E-02  0.1527438E+00
          2   -1    0    0  501    0  0.00000000000E+00  0.00000000000E+00  0.10318823051E+04  0.10318823051E+04  0.00000000000E+00 0. -1.
         -2   -1    0    0    0  501 -0.00000000000E+00 -0.00000000000E+00 -0.10556220008E+02  0.10556220008E+02  0.00000000000E+00 0.  1.
          2    1    1    2  502    0  0.20257287944E+02  0.27137180950E+01  0.10217906125E+04  0.10219949989E+04  0.00000000000E+00 0. -1.
         -2    1    1    2    0  502 -0.20257287944E+02 -0.27137180950E+01 -0.46452734696E+00  0.20443526271E+02  0.00000000000E+00 0.  1.
</event>
<event>
 4    1  0.5953944E+003  0.2661450E+02  0.7546771E-02  0.1451519E+00
          2   -1    0    0  501    0  0.00000000000E+00  0.00000000000E+00  0.78611080458E+01  0.78611080458E+01  0.00000000000E+00 0. -1.
         -2   -1    0    0    0  501 -0.00000000000E+00 -0.00000000000E+00 -0.17992589212E+03  0.17992589212E+03  0.00000000000E+00 0.  1.
          2    1    1    2  502    0  0.10721821607E+02 -0.24359274688E+02 -0.19692409269E+02  0.33107743878E+02  0.00000000000E+00 0. -1.
         -2    1    1    2    0  502 -0.10721821607E+02  0.24359274688E+02 -0.15237237480E+03  0.15467925628E+03  0.00000000000E+00 0.  1.
</event>
<event>
 4    1  0.5953944E+003  0.2631468E+02  0.7546771E-02  0.1454616E+00
          2   -1    0    0  501    0  0.00000000000E+00  0.00000000000E+00  0.25567038049E+03  0.25567038049E+03  0.00000000000E+00 0.  1.
         -2   -1    0    0    0  501 -0.00000000000E+00 -0.00000000000E+00 -0.27177747635E+02  0.27177747635E+02  0.00000000000E+00 0. -1.
          2    1    1    2  502    0  0.13177750129E+02 -0.22777390628E+02  0.24843861924E+03  0.24982836139E+03  0.00000000000E+00 0.  1.
         -2    1    1    2    0  502 -0.13177750129E+02  0.22777390628E+02 -0.19945986389E+02  0.33019766736E+02  0.00000000000E+00 0. -1.
</event>
<event>
 4    1  0.5953944E+003  0.2201528E+02  0.7546771E-02  0.1505248E+00
          2   -1    0    0  501    0  0.00000000000E+00  0.00000000000E+00  0.19441213124E+03  0.19441213124E+03  0.00000000000E+00 0.  1.
         -2   -1    0    0    0  501 -0.00000000000E+00 -0.00000000000E+00 -0.17502220638E+02  0.17502220638E+02  0.00000000000E+00 0. -1.
          2    1    1    2  502    0  0.11939536775E+02 -0.18496491729E+02  0.18657610373E+03  0.18787047461E+03  0.00000000000E+00 0.  1.
         -2    1    1    2    0  502 -0.11939536775E+02  0.18496491729E+02 -0.96661931292E+01  0.24043877273E+02  0.00000000000E+00 0. -1.
</event>
<event>
 4    1  0.5953944E+003  0.2289360E+02  0.7546771E-02  0.1493839E+00
          2   -1    0    0  501    0  0.00000000000E+00  0.00000000000E+00  0.83042076147E+03  0.83042076147E+03  0.00000000000E+00 0.  1.
         -2   -1    0    0    0  501 -0.00000000000E+00 -0.00000000000E+00 -0.62819285890E+01  0.62819285890E+01  0.00000000000E+00 0. -1.
          2    1    1    2  502    0 -0.19036124734E+02 -0.12717823120E+02  0.80884866997E+03  0.80917259468E+03  0.00000000000E+00 0.  1.
         -2    1    1    2    0  502  0.19036124734E+02  0.12717823120E+02  0.15290162915E+02  0.27530095383E+02  0.00000000000E+00 0. -1.
</event>
<event>
 4    1  0.5953944E+003  0.2035287E+02  0.7546771E-02  0.1528708E+00
          2   -1    0    0  501    0  0.00000000000E+00  0.00000000000E+00  0.28107156697E+02  0.28107156697E+02  0.00000000000E+00 0. -1.
         -2   -1    0    0    0  501 -0.00000000000E+00 -0.00000000000E+00 -0.18550966737E+03  0.18550966737E+03  0.00000000000E+00 0. -1.
          2    1    1    2  502    0 -0.19565171991E+02  0.56074268372E+01  0.23776659276E+02  0.31298062514E+02  0.00000000000E+00 0. -1.
         -2    1    1    2    0  502  0.19565171991E+02 -0.56074268372E+01 -0.18117916995E+03  0.18231876155E+03  0.00000000000E+00 0. -1.
</event>
<event>
 4    1  0.5953944E+003  0.3079563E+02  0.7546771E-02  0.1412806E+00
          2   -1    0    0  501    0  0.00000000000E+00  0.00000000000E+00  0.12666178805E+03  0.12666178805E+03  0.00000000000E+00 0. -1.
         -2   -1    0    0    0  501 -0.00000000000E+00 -0.00000000000E+00 -0.80151377934E+01  0.80151377934E+01  0.00000000000E+00 0. -1.
          2    1    1    2  502    0 -0.29734445834E+02  0.80145965665E+01  0.76601793840E+02  0.82560316416E+02  0.00000000000E+00 0. -1.
         -2    1    1    2    0  502  0.29734445834E+02 -0.80145965665E+01  0.42044856419E+02  0.52116609430E+02  0.00000000000E+00 0. -1.
</event>
<event>
 4    1  0.5953944E+003  0.2022652E+02  0.7546771E-02  0.1530601E+00
          2   -1    0    0  501    0  0.00000000000E+00  0.00000000000E+00  0.63833543511E+03  0.63833543511E+03  0.00000000000E+00 0.  1.
         -2   -1    0    0    0  501 -0.00000000000E+00 -0.00000000000E+00 -0.68057900317E+00  0.68057900317E+00  0.00000000000E+00 0. -1.
          2    1    1    2  502    0  0.18665852554E+02  0.77909038902E+01  0.39597045219E+03  0.39648671004E+03  0.00000000000E+00 0.  1.
         -2    1    1    2    0  502 -0.18665852554E+02 -0.77909038902E+01  0.24168440392E+03  0.24252930407E+03  0.00000000000E+00 0. -1.
</event>
<event>
 4    1  0.5953944E+003  0.2709668E+02  0.7546771E-02  0.1446639E+00
          2   -1    0    0  501    0  0.00000000000E+00  0.00000000000E+00  0.27731117358E+02  0.27731117358E+02  0.00000000000E+00 0.  1.
         -2   -1    0    0    0  501 -0.00000000000E+00 -0.00000000000E+00 -0.10926527893E+03  0.10926527893E+03  0.00000000000E+00 0. -1.
          2    1    1    2  502    0 -0.25559899415E+02  0.89956563131E+01  0.18857192712E+02  0.33012482602E+02  0.00000000000E+00 0.  1.
         -2    1    1    2    0  502  0.25559899415E+02 -0.89956563131E+01 -0.10039135428E+03  0.10398391369E+03  0.00000000000E+00 0. -1.
</event>
<event>
 4    1  0.5953944E+003  0.2480951E+02  0.7546771E-02  0.1470946E+00
          2   -1    0    0  501    0  0.00000000000E+00  0.00000000000E+00  0.24420703714E+03  0.24420703714E+03  0.00000000000E+00 0.  1.
         -2   -1    0    0    0  501 -0.00000000000E+00 -0.00000000000E+00 -0.43731377002E+01  0.43731377002E+01  0.00000000000E+00 0.  1.
          2    1    1    2  502    0  0.24397490522E+02 -0.45026714168E+01  0.20081555648E+03  0.20234228258E+03  0.00000000000E+00 0.  1.
         -2    1    1    2    0  502 -0.24397490522E+02  0.45026714168E+01  0.39018342954E+02  0.46237892259E+02  0.00000000000E+00 0.  1.
</event>
<event>
 4    1  0.5953944E+003  0.3009084E+02  0.7546771E-02  0.1418809E+00
          2   -1    0    0  501    0  0.00000000000E+00  0.00000000000E+00  0.15570861920E+04  0.15570861920E+04  0.00000000000E+00 0.  1.
         -2   -1    0    0    0  501 -0.00000000000E+00 -0.00000000000E+00 -0.12451306452E+01  0.12451306452E+01  0.00000000000E+00 0. -1.
          2    1    1    2  502    0  0.27462400218E+02 -0.12299409287E+02  0.13467508940E+04  0.13470870162E+04  0.00000000000E+00 0.  1.
         -2    1    1    2    0  502 -0.27462400218E+02  0.12299409287E+02  0.20909016738E+03  0.21124430641E+03  0.00000000000E+00 0. -1.
</event>
<event>
 4    1  0.5953944E+003  0.2214649E+02  0.7546771E-02  0.1503503E+00
          2   -1    0    0  501    0  0.00000000000E+00  0.00000000000E+00  0.84953995445E+03  0.84953995445E+03  0.00000000000E+00 0. -1.
         -2   -1    0    0    0  501 -0.00000000000E+00 -0.00000000000E+00 -0.99932884733E+02  0.99932884733E+02  0.00000000000E+00 0. -1.
          2    1    1    2  502    0  0.71700280585E+01  0.20953700668E+02  0.84816664434E+03  0.84845572863E+03  0.00000000000E+00 0. -1.
         -2    1    1    2    0  502 -0.71700280585E+01 -0.20953700668E+02 -0.98559574625E+02  0.10101711055E+03  0.00000000000E+00 0. -1.
</event>
<event>
 4    1  0.5953944E+003  0.2133801E+02  0.7546771E-02  0.1514493E+00
          2   -1    0    0  501    0  0.00000000000E+00  0.00000000000E+00  0.48415966017E+01  0.48415966017E+01  0.00000000000E+00 0. -1.
         -2   -1    0    0    0  501 -0.00000000000E+00 -0.00000000000E+00 -0.38585250989E+03  0.38585250989E+03  0.00000000000E+00 0.  1.
          2    1    1    2  502    0 -0.12897295074E+02  0.16999135414E+02 -0.20623574349E+02  0.29675623734E+02  0.00000000000E+00 0. -1.
         -2    1    1    2    0  502  0.12897295074E+02 -0.16999135414E+02 -0.36038733894E+03  0.36101848276E+03  0.00000000000E+00 0.  1.
</event>
<event>
 4    1  0.5953944E+003  0.3353349E+02  0.7546771E-02  0.1391177E+00
          2   -1    0    0  501    0  0.00000000000E+00  0.00000000000E+00  0.12136999007E+03  0.12136999007E+03  0.00000000000E+00 0. -1.
         -2   -1    0    0    0  501 -0.00000000000E+00 -0.00000000000E+00 -0.18863118054E+02  0.18863118054E+02  0.00000000000E+00 0.  1.
          2    1    1    2  502    0  0.31963276303E+02 -0.10141190156E+02  0.10126915643E+03  0.10667678667E+03  0.00000000000E+00 0. -1.
         -2    1    1    2    0  502 -0.31963276303E+02  0.10141190156E+02  0.12377155868E+01  0.33556321456E+02  0.00000000000E+00 0.  1.
</event>
<event>
 4    1  0.5953944E+003  0.2613108E+02  0.7546771E-02  0.1456537E+00
          2   -1    0    0  501    0  0.00000000000E+00  0.00000000000E+00  0.12010435377E+03  0.12010435377E+03  0.00000000000E+00 0. -1.
         -2   -1    0    0    0  501 -0.00000000000E+00 -0.00000000000E+00 -0.30100807625E+02  0.30100807625E+02  0.00000000000E+00 0.  1.
          2    1    1    2  502    0 -0.79109445527E+01  0.24904829738E+02  0.11264095508E+03  0.11563225480E+03  0.00000000000E+00 0. -1.
         -2    1    1    2    0  502  0.79109445527E+01 -0.24904829738E+02 -0.22637408930E+02  0.34572906604E+02  0.00000000000E+00 0.  1.
</event>
<event>
 4    1  0.5953944E+003  0.2002213E+02  0.7546771E-02  0.1533698E+00
          2   -1    0    0  501    0  0.00000000000E+00  0.00000000000E+00  0.26563967222E+03  0.26563967222E+03  0.00000000000E+00 0. -1.
         -2   -1    0    0    0  501 -0.00000000000E+00 -0.00000000000E+00 -0.56533285278E+01  0.56533285278E+01  0.00000000000E+00 0. -1.
          2    1    1    2  502    0  0.94619842009E+01  0.17645299029E+02  0.24613176886E+03  0.24694479821E+03  0.00000000000E+00 0. -1.
         -2    1    1    2    0  502 -0.94619842009E+01 -0.17645299029E+02  0.13854574833E+02  0.24348202534E+02  0.00000000000E+00 0. -1.
</event>
<event>
 4    1  0.5953944E+003  0.2641801E+02  0.7546771E-02  0.1453544E+00
          2   -1    0    0  501    0  0.00000000000E+00  0.00000000000E+00  0.17010867820E+03  0.17010867820E+03  0.00000000000E+00 0.  1.
         -2   -1    0    0    0  501 -0.00000000000E+00 -0.00000000000E+00 -0.99450781981E+02  0.99450781981E+02  0.00000000000E+00 0.  1.
          2    1    1    2  502    0  0.13303447462E+02 -0.22823882693E+02  0.16729930016E+03  0.16937227391E+03  0.00000000000E+00 0.  1.
         -2    1    1    2    0  502 -0.13303447462E+02  0.22823882693E+02 -0.96641403945E+02  0.10018718627E+03  0.00000000000E+00 0.  1.
</event>
<event>
 4    1  0.5953944E+003  0.2713085E+02  0.7546771E-02  0.1446298E+00
          2   -1    0    0  501    0  0.00000000000E+00  0.00000000000E+00  0.57882036398E+02  0.57882036398E+02  0.00000000000E+00 0. -1.
         -2   -1    0    0    0  501 -0.00000000000E+00 -0.00000000000E+00 -0.12866962147E+03  0.12866962147E+03  0.00000000000E+00 0.  1.
          2    1    1    2  502    0  0.10078506287E+02 -0.25189417749E+02  0.53152724320E+02  0.59676588024E+02  0.00000000000E+00 0. -1.
         -2    1    1    2    0  502 -0.10078506287E+02  0.25189417749E+02 -0.12394030939E+03  0.12687506984E+03  0.00000000000E+00 0.  1.
</event>
<event>
 4    1  0.5953944E+003  0.2110281E+02  0.7546771E-02  0.1517802E+00
          2   -1    0    0  501    0  0.00000000000E+00  0.00000000000E+00  0.77453510191E+02  0.77453510191E+02  0.00000000000E+00 0.  1.
         -2   -1    0    0    0  501 -0.00000000000E+00 -0.00000000000E+00 -0.62361065410E+01  0.62361065410E+01  0.00000000000E+00 0.  1.
          2    1    1    2  502    0  0.57519568589E+01  0.20303786915E+02  0.47296083873E+02  0.51790426920E+02  0.00000000000E+00 0.  1.
         -2    1    1    2    0  502 -0.57519568589E+01 -0.20303786915E+02  0.23921319777E+02  0.31899189813E+02  0.00000000000E+00 0.  1.
</event>
<event>
 4    1  0.5953944E+003  0.9106580E+02  0.7546771E-02  0.1180260E+00
          2   -1    0    0  501    0  0.00000000000E+00  0.00000000000E+00  0.21823182238E+04  0.21823182238E+04  0.00000000000E+00 0. -1.
         -2   -1    0    0    0  501 -0.00000000000E+00 -0.00000000000E+00 -0.48294470149E+01  0.48294470149E+01  0.00000000000E+00 0. -1.
          2    1    1    2  502    0  0.84092524351E+02 -0.34948916847E+02  0.15936206561E+04  0.15962204657E+04  0.00000000000E+00 0. -1.
         -2    1    1    2    0  502 -0.84092524351E+02  0.34948916847E+02  0.58386812066E+03  0.59092720513E+03  0.00000000000E+00 0. -1.
</event>
<event>
 4    1  0.5953944E+003  0.2271576E+02  0.7546771E-02  0.1496099E+00
          2   -1    0    0  501    0  0.00000000000E+00  0.00000000000E+00  0.11915084244E+04  0.11915084244E+04  0.00000000000E+00 0.  1.
         -2   -1    0    0    0  501 -0.00000000000E+00 -0.00000000000E+00 -0.45925180718E+00  0.45925180718E+00  0.00000000000E+00 0.  1.
          2    1    1    2  502    0  0.11266190123E+01 -0.22687788977E+02  0.45321983643E+03  0.45378874510E+03  0.00000000000E+00 0.  1.
         -2    1    1    2    0  502 -0.11266190123E+01  0.22687788977E+02  0.73782933619E+03  0.73817893115E+03  0.00000000000E+00 0.  1.
</event>
<event>
 4    1  0.5953944E+003  0.2583390E+02  0.7546771E-02  0.1459687E+00
          2   -1    0    0  501    0  0.00000000000E+00  0.00000000000E+00  0.12978635904E+04  0.12978635904E+04  0.00000000000E+00 0.  1.
         -2   -1    0    0    0  501 -0.00000000000E+00 -0.00000000000E+00 -0.36756149607E+01  0.36756149607E+01  0.00000000000E+00 0. -1.
          2    1    1    2  502    0  0.12672653366E+02 -0.22512096259E+02  0.12506276004E+04  0.12508943942E+04  0.00000000000E+00 0.  1.
         -2    1    1    2    0  502 -0.12672653366E+02  0.22512096259E+02  0.43560375033E+02  0.50644811129E+02  0.00000000000E+00 0. -1.
</event>
<event>
 4    1  0.5953944E+003  0.2251087E+02  0.7546771E-02  0.1498733E+00
          2   -1    0    0  501    0  0.00000000000E+00  0.00000000000E+00  0.31803494638E+02  0.31803494638E+02  0.00000000000E+00 0. -1.
         -2   -1    0    0    0  501 -0.00000000000E+00 -0.00000000000E+00 -0.62034095049E+02  0.62034095049E+02  0.00000000000E+00 0.  1.
          2    1    1    2  502    0 -0.45293670200E+00 -0.22506312295E+02  0.25331590879E+02  0.33888475050E+02  0.00000000000E+00 0. -1.
         -2    1    1    2    0  502  0.45293670200E+00  0.22506312295E+02 -0.55562191290E+02  0.59949114637E+02  0.00000000000E+00 0.  1.
</event>
<event>
 4    1  0.5953944E+003  0.3696705E+02  0.7546771E-02  0.1367238E+00
          2   -1    0    0  501    0  0.00000000000E+00  0.00000000000E+00  0.76265078668E+03  0.76265078668E+03  0.00000000000E+00 0.  1.
         -2   -1    0    0    0  501 -0.00000000000E+00 -0.00000000000E+00 -0.37489128395E+01  0.37489128395E+01  0.00000000000E+00 0.  1.
          2    1    1    2  502    0 -0.22044588650E+02  0.29674885857E+02  0.65631974810E+03  0.65736000372E+03  0.00000000000E+00 0.  1.
         -2    1    1    2    0  502  0.22044588650E+02 -0.29674885857E+02  0.10258212573E+03  0.10903969580E+03  0.00000000000E+00 0.  1.
</event>
<event>
 4    1  0.5953944E+003  0.2863340E+02  0.7546771E-02  0.1431856E+00
          2   -1    0    0  501    0  0.00000000000E+00  0.00000000000E+00  0.53145422134E+03  0.53145422134E+03  0.00000000000E+00 0.  1.
         -2   -1    0    0    0  501 -0.00000000000E+00 -0.00000000000E+00 -0.24964267499E+02  0.24964267499E+02  0.00000000000E+00 0.  1.
          2    1    1    2  502    0 -0.25134659758E+02  0.13715697675E+02  0.52272102696E+03  0.52350467382E+03  0.00000000000E+00 0.  1.
         -2    1    1    2    0  502  0.25134659758E+02 -0.13715697675E+02 -0.16231073126E+02  0.32913815013E+02  0.00000000000E+00 0.  1.
</event>
<event>
 4    1  0.5953944E+003  0.3431065E+02  0.7546771E-02  0.1385475E+00
          2   -1    0    0  501    0  0.00000000000E+00  0.00000000000E+00  0.22685127086E+01  0.22685127086E+01  0.00000000000E+00 0.  1.
         -2   -1    0    0    0  501 -0.00000000000E+00 -0.00000000000E+00 -0.80145186544E+03  0.80145186544E+03  0.00000000000E+00 0. -1.
          2    1    1    2  502    0 -0.34298102336E+02  0.92786953770E+00 -0.16100014661E+03  0.16461551559E+03  0.00000000000E+00 0.  1.
         -2    1    1    2    0  502  0.34298102336E+02 -0.92786953770E+00 -0.63818320613E+03  0.63910486256E+03  0.00000000000E+00 0. -1.
</event>
<event>
 4    1  0.5953944E+003  0.3026835E+02  0.7546771E-02  0.1417278E+00
          2   -1    0    0  501    0  0.00000000000E+00  0.00000000000E+00  0.79064479638E+02  0.79064479638E+02  0.00000000000E+00 0.  1.
         -2   -1    0    0    0  501 -0.00000000000E+00 -0.00000000000E+00 -0.12538239271E+02  0.12538239271E+02  0.00000000000E+00 0. -1.
          2    1    1    2  502    0 -0.29993519285E+02  0.40696239974E+01  0.45874196431E+02  0.54960121332E+02  0.00000000000E+00 0.  1.
         -2    1    1    2    0  502  0.29993519285E+02 -0.40696239974E+01  0.20652043936E+02  0.36642597578E+02  0.00000000000E+00 0. -1.
</event>
<event>
 4    1  0.5953944E+003  0.2756336E+02  0.7546771E-02  0.1442030E+00
          2   -1    0    0  501    0  0.00000000000E+00  0.00000000000E+00  0.13261496803E+04  0.13261496803E+04  0.00000000000E+00 0.  1.
         -2   -1    0    0    0  501 -0.00000000000E+00 -0.00000000000E+00 -0.30223927243E+01  0.30223927243E+01  0.00000000000E+00 0. -1.
          2    1    1    2  502    0 -0.15890677191E+02  0.22521654914E+02  0.12598576928E+04  0.12601591743E+04  0.00000000000E+00 0.  1.
         -2    1    1    2    0  502  0.15890677191E+02 -0.22521654914E+02  0.63269594748E+02  0.69012898658E+02  0.00000000000E+00 0. -1.
</event>
<event>
 4    1  0.5953944E+003  0.2274115E+02  0.7546771E-02  0.1495774E+00
          2   -1    0    0  501    0  0.00000000000E+00  0.00000000000E+00  0.21953509046E+02  0.21953509046E+02  0.00000000000E+00 0.  1.
         -2   -1    0    0    0  501 -0.00000000000E+00 -0.00000000000E+00 -0.66877316587E+02  0.66877316587E+02  0.00000000000E+00 0. -1.
          2    1    1    2  502    0 -0.10594477569E+01 -0.22716458109E+02  0.13285116489E+02  0.26337316087E+02  0.00000000000E+00 0.  1.
         -2    1    1    2    0  502  0.10594477569E+01  0.22716458109E+02 -0.58208924031E+02  0.62493509546E+02  0.00000000000E+00 0. -1.
</event>
<event>
 4    1  0.5953944E+003  0.2511153E+02  0.7546771E-02  0.1467560E+00
          2   -1    0    0  501    0  0.00000000000E+00  0.00000000000E+00  0.56144104005E+02  0.56144104005E+02  0.00000000000E+00 0.  1.
         -2   -1    0    0    0  501 -0.00000000000E+00 -0.00000000000E+00 -0.60024760830E+02  0.60024760830E+02  0.00000000000E+00 0.  1.
          2    1    1    2  502    0  0.22358358440E+02 -0.11432091858E+02  0.50428630937E+02  0.56335031149E+02  0.00000000000E+00 0.  1.
         -2    1    1    2    0  502 -0.22358358440E+02  0.11432091858E+02 -0.54309287762E+02  0.59833833687E+02  0.00000000000E+00 0.  1.
</event>
<event>
 4    1  0.5953944E+003  0.2155365E+02  0.7546771E-02  0.1511505E+00
          2   -1    0    0  501    0  0.00000000000E+00  0.00000000000E+00  0.50755065770E+02  0.50755065770E+02  0.00000000000E+00 0. -1.
         -2   -1    0    0    0  501 -0.00000000000E+00 -0.00000000000E+00 -0.24212913721E+02  0.24212913721E+02  0.00000000000E+00 0.  1.
          2    1    1    2  502    0 -0.88922711098E+01 -0.19633832425E+02  0.42833080731E+02  0.47950314556E+02  0.00000000000E+00 0. -1.
         -2    1    1    2    0  502  0.88922711098E+01  0.19633832425E+02 -0.16290928682E+02  0.27017664934E+02  0.00000000000E+00 0.  1.
</event>
<event>
 4    1  0.5953944E+003  0.4420415E+02  0.7546771E-02  0.1325467E+00
          2   -1    0    0  501    0  0.00000000000E+00  0.00000000000E+00  0.11127039592E+04  0.11127039592E+04  0.00000000000E+00 0.  1.
         -2   -1    0    0    0  501 -0.00000000000E+00 -0.00000000000E+00 -0.30991162830E+01  0.30991162830E+01  0.00000000000E+00 0.  1.
          2    1    1    2  502    0  0.31649949104E+02  0.30859155520E+02  0.92206874022E+03  0.92312770971E+03  0.00000000000E+00 0.  1.
         -2    1    1    2    0  502 -0.31649949104E+02 -0.30859155520E+02  0.18753610266E+03  0.19267536573E+03  0.00000000000E+00 0.  1.
</event>
<event>
 4    1  0.5953944E+003  0.2576062E+02  0.7546771E-02  0.1460471E+00
          2   -1    0    0  501    0  0.00000000000E+00  0.00000000000E+00  0.83943920323E+01  0.83943920323E+01  0.00000000000E+00 0.  1.
         -2   -1    0    0    0  501 -0.00000000000E+00 -0.00000000000E+00 -0.11878287767E+03  0.11878287767E+03  0.00000000000E+00 0. -1.
          2    1    1    2  502    0 -0.13641423532E+02  0.21852251606E+02 -0.18418933438E+02  0.31668066648E+02  0.00000000000E+00 0.  1.
         -2    1    1    2    0  502  0.13641423532E+02 -0.21852251606E+02 -0.91969552196E+02  0.95509203051E+02  0.00000000000E+00 0. -1.
</event>
<event>
 4    1  0.5953944E+003  0.2430399E+02  0.7546771E-02  0.1476742E+00
          2   -1    0    0  501    0  0.00000000000E+00  0.00000000000E+00  0.42299495145E+01  0.42299495145E+01  0.00000000000E+00 0.  1.
         -2   -1    0    0    0  501 -0.00000000000E+00 -0.00000000000E+00 -0.14893884463E+03  0.14893884463E+03  0.00000000000E+00 0.  1.
          2    1    1    2  502    0  0.17048252314E+01 -0.24244108039E+02 -0.91487256178E+02  0.94660452390E+02  0.00000000000E+00 0.  1.
         -2    1    1    2    0  502 -0.17048252314E+01  0.24244108039E+02 -0.53221638939E+02  0.58508341756E+02  0.00000000000E+00 0.  1.
</event>
<event>
 4    1  0.5953944E+003  0.2193289E+02  0.7546771E-02  0.1506351E+00
          2   -1    0    0  501    0  0.00000000000E+00  0.00000000000E+00  0.18879783186E+03  0.18879783186E+03  0.00000000000E+00 0.  1.
         -2   -1    0    0    0  501 -0.00000000000E+00 -0.00000000000E+00 -0.26472592172E+01  0.26472592172E+01  0.00000000000E+00 0. -1.
          2    1    1    2  502    0 -0.18166581579E+02 -0.12289303279E+02  0.11161324195E+03  0.11374782390E+03  0.00000000000E+00 0.  1.
         -2    1    1    2    0  502  0.18166581579E+02  0.12289303279E+02  0.74537330686E+02  0.77697267180E+02  0.00000000000E+00 0. -1.
</event>
<event>
 4    1  0.5953944E+003  0.2215290E+02  0.7546771E-02  0.1503418E+00
          2   -1    0    0  501    0  0.00000000000E+00  0.00000000000E+00  0.71402902354E+03  0.71402902354E+03  0.00000000000E+00 0. -1.
         -2   -1    0    0    0  501 -0.00000000000E+00 -0.00000000000E+00 -0.26615573424E+01  0.26615573424E+01  0.00000000000E+00 0. -1.
          2    1    1    2  502    0  0.20281896628E+02  0.89104245793E+01  0.66431210346E+03  0.66468136863E+03  0.00000000000E+00 0. -1.
         -2    1    1    2    0  502 -0.20281896628E+02 -0.89104245793E+01  0.47055362735E+02  0.52009212253E+02  0.00000000000E+00 0. -1.
</event>
<event>
 4    1  0.5953944E+003  0.2812245E+02  0.7546771E-02  0.1436647E+00
          2   -1    0    0  501    0  0.00000000000E+00  0.00000000000E+00  0.10725737429E+03  0.10725737429E+03  0.00000000000E+00 0. -1.
         -2   -1    0    0    0  501 -0.00000000000E+00 -0.00000000000E+00 -0.11309105296E+02  0.11309105296E+02  0.00000000000E+00 0. -1.
          2    1    1    2  502    0 -0.46991325317E+01  0.27727072273E+02  0.82945964666E+02  0.87583705321E+02  0.00000000000E+00 0. -1.
         -2    1    1    2    0  502  0.46991325317E+01 -0.27727072273E+02  0.13002304329E+02  0.30982774266E+02  0.00000000000E+00 0. -1.
</event>
<event>
 4    1  0.5953944E+003  0.2140139E+02  0.7546771E-02  0.1513611E+00
          2   -1    0    0  501    0  0.00000000000E+00  0.00000000000E+00  0.10576603209E+03  0.10576603209E+03  0.00000000000E+00 0. -1.
         -2   -1    0    0    0  501 -0.00000000000E+00 -0.00000000000E+00 -0.61614931940E+02  0.61614931940E+02  0.00000000000E+00 0. -1.
          2    1    1    2  502    0 -0.36589797524E+01  0.21086280924E+02  0.10277143775E+03  0.10497612964E+03  0.00000000000E+00 0. -1.
         -2    1    1    2    0  502  0.36589797524E+01 -0.21086280924E+02 -0.58620337597E+02  0.62404834397E+02  0.00000000000E+00 0. -1.
</event>
<event>
 4    1  0.5953944E+003  0.2167866E+02  0.7546771E-02  0.1509792E+00
          2   -1    0    0  501    0  0.00000000000E+00  0.00000000000E+00  0.30058393247E+01  0.30058393247E+01  0.00000000000E+00 0.  1.
         -2   -1    0    0    0  501 -0.00000000000E+00 -0.00000000000E+00 -0.38373272555E+03  0.38373272555E+03  0.00000000000E+00 0. -1.
          2    1    1    2  502    0 -0.17307780571E+02 -0.13053924053E+02 -0.41512561290E+02  0.46832221241E+02  0.00000000000E+00 0.  1.
         -2    1    1    2    0  502  0.17307780571E+02  0.13053924053E+02 -0.33921432493E+03  0.33990634363E+03  0.00000000000E+00 0. -1.
</event>
<event>
 4    1  0.5953944E+003  0.3373487E+02  0.7546771E-02  0.1389682E+00
          2   -1    0    0  501    0  0.00000000000E+00  0.00000000000E+00  0.32499621298E+01  0.32499621298E+01  0.00000000000E+00 0. -1.
         -2   -1    0    0    0  501 -0.00000000000E+00 -0.00000000000E+00 -0.35777474553E+03  0.35777474553E+03  0.00000000000E+00 0. -1.
          2    1    1    2  502    0 -0.33519900600E+02  0.38023613327E+01 -0.15094620772E+03  0.15466996901E+03  0.00000000000E+00 0. -1.
         -2    1    1    2    0  502  0.33519900600E+02 -0.38023613327E+01 -0.20357857568E+03  0.20635473865E+03  0.00000000000E+00 0. -1.
</event>
<event>
 4    1  0.5953944E+003  0.4141836E+02  0.7546771E-02  0.1340369E+00
          2   -1    0    0  501    0  0.00000000000E+00  0.00000000000E+00  0.48440344859E+03  0.48440344859E+03  0.00000000000E+00 0. -1.
         -2   -1    0    0    0  501 -0.00000000000E+00 -0.00000000000E+00 -0.90551660002E+01  0.90551660002E+01  0.00000000000E+00 0. -1.
          2    1    1    2  502    0 -0.37181347229E+02 -0.18249047231E+02  0.43020287926E+03  0.43219208418E+03  0.00000000000E+00 0. -1.
         -2    1    1    2    0  502  0.37181347229E+02  0.18249047231E+02  0.45145403337E+02  0.61266530415E+02  0.00000000000E+00 0. -1.
</event>
<event>
 4    1  0.5970252E+003  0.2067509E+02  0.7546771E-02  0.1523955E+00
          2   -1    0    0  501    0  0.00000000000E+00  0.00000000000E+00  0.72559898787E+03  0.72559898787E+03  0.00000000000E+00 0. -1.
         -2   -1    0    0    0  501 -0.00000000000E+00 -0.00000000000E+00 -0.23074533068E+03  0.23074533068E+03  0.00000000000E+00 0. -1.
          2    1    1    2  502    0 -0.61365310976E+01  0.19743414020E+02  0.72498819066E+03  0.72528293514E+03  0.00000000000E+00 0. -1.
         -2    1    1    2    0  502  0.61365310976E+01 -0.19743414020E+02 -0.23013453346E+03  0.23106138341E+03  0.00000000000E+00 0. -1.
</event>
<event>
 4    1  0.5953944E+003  0.2280737E+02  0.7546771E-02  0.1494931E+00
          2   -1    0    0  501    0  0.00000000000E+00  0.00000000000E+00  0.18002967656E+03  0.18002967656E+03  0.00000000000E+00 0.  1.
         -2   -1    0    0    0  501 -0.00000000000E+00 -0.00000000000E+00 -0.37097543630E+03  0.37097543630E+03  0.00000000000E+00 0. -1.
          2    1    1    2  502    0 -0.12322569615E+02 -0.19191932455E+02  0.17895468561E+03  0.18040220479E+03  0.00000000000E+00 0.  1.
         -2    1    1    2    0  502  0.12322569615E+02  0.19191932455E+02 -0.36990044535E+03  0.37060290806E+03  0.00000000000E+00 0. -1.
</event>
<event>
 4    1  0.5953944E+003  0.3262186E+02  0.7546771E-02  0.1398100E+00
          2   -1    0    0  501    0  0.00000000000E+00  0.00000000000E+00  0.29876233225E+03  0.29876233225E+03  0.00000000000E+00 0.  1.
         -2   -1    0    0    0  501 -0.00000000000E+00 -0.00000000000E+00 -0.10105363379E+02  0.10105363379E+02  0.00000000000E+00 0. -1.
          2    1    1    2  502    0  0.30807838623E+02 -0.10726742560E+02  0.26859887275E+03  0.27057261570E+03  0.00000000000E+00 0.  1.
         -2    1    1    2    0  502 -0.30807838623E+02  0.10726742560E+02  0.20058096126E+02  0.38295079929E+02  0.00000000000E+00 0. -1.
</event>
<event>
 4    1  0.5953944E+003  0.2072680E+02  0.7546771E-02  0.1523201E+00
          2   -1    0    0  501    0  0.00000000000E+00  0.00000000000E+00  0.12680768105E+02  0.12680768105E+02  0.00000000000E+00 0. -1.
         -2   -1    0    0    0  501 -0.00000000000E+00 -0.00000000000E+00 -0.38608224608E+02  0.38608224608E+02  0.00000000000E+00 0. -1.
          2    1    1    2  502    0 -0.20088037734E+02  0.51059587353E+01 -0.39875498870E+01  0.21106885813E+02  0.00000000000E+00 0. -1.
         -2    1    1    2    0  502  0.20088037734E+02 -0.51059587353E+01 -0.21939906617E+02  0.30182106901E+02  0.00000000000E+00 0. -1.
</event>
<event>
 4    1  0.5953944E+003  0.2203387E+02  0.7546771E-02  0.1505000E+00
          2   -1    0    0  501    0  0.00000000000E+00  0.00000000000E+00  0.23420998314E+04  0.23420998314E+04  0.00000000000E+00 0.  1.
         -2   -1    0    0    0  501 -0.00000000000E+00 -0.00000000000E+00 -0.20734605307E+00  0.20734605307E+00  0.00000000000E+00 0.  1.
          2    1    1    2  502    0  0.12703981608E+02  0.18002776537E+02  0.11514887318E+04  0.11516995227E+04  0.00000000000E+00 0.  1.
         -2    1    1    2    0  502 -0.12703981608E+02 -0.18002776537E+02  0.11904037535E+04  0.11906076547E+04  0.00000000000E+00 0.  1.
</event>
<event>
 4    1  0.5953944E+003  0.2360986E+02  0.7546771E-02  0.1484979E+00
          2   -1    0    0  501    0  0.00000000000E+00  0.00000000000E+00  0.42587260048E+03  0.42587260048E+03  0.00000000000E+00 0.  1.
         -2   -1    0    0    0  501 -0.00000000000E+00 -0.00000000000E+00 -0.17380239534E+01  0.17380239534E+01  0.00000000000E+00 0.  1.
          2    1    1    2  502    0  0.20131369650E+02 -0.12335046067E+02  0.31830558271E+03  0.31917999528E+03  0.00000000000E+00 0.  1.
         -2    1    1    2    0  502 -0.20131369650E+02  0.12335046067E+02  0.10582899382E+03  0.10843062916E+03  0.00000000000E+00 0.  1.
</event>
<event>
 4    1  0.5953944E+003  0.2642325E+02  0.7546771E-02  0.1453489E+00
          2   -1    0    0  501    0  0.00000000000E+00  0.00000000000E+00  0.60133507557E+02  0.60133507557E+02  0.00000000000E+00 0. -1.
         -2   -1    0    0    0  501 -0.00000000000E+00 -0.00000000000E+00 -0.11778438604E+02  0.11778438604E+02  0.00000000000E+00 0. -1.
          2    1    1    2  502    0 -0.13589961660E+02  0.22660557470E+02  0.28469279929E+02  0.38841830833E+02  0.00000000000E+00 0. -1.
         -2    1    1    2    0  502  0.13589961660E+02 -0.22660557470E+02  0.19885789024E+02  0.33070115329E+02  0.00000000000E+00 0. -1.
</event>
<event>
 4    1  0.5953944E+003  0.2534893E+02  0.7546771E-02  0.1464938E+00
          2   -1    0    0  501    0  0.00000000000E+00  0.00000000000E+00  0.16114034885E+04  0.16114034885E+04  0.00000000000E+00 0. -1.
         -2   -1    0    0    0  501 -0.00000000000E+00 -0.00000000000E+00 -0.47523073079E+00  0.47523073079E+00  0.00000000000E+00 0. -1.
          2    1    1    2  502    0  0.11042806735E+02  0.22817197249E+02  0.11287518735E+04  0.11290364741E+04  0.00000000000E+00 0. -1.
         -2    1    1    2    0  502 -0.11042806735E+02 -0.22817197249E+02  0.48217638434E+03  0.48284224513E+03  0.00000000000E+00 0. -1.
</event>
<event>
 4    1  0.5953944E+003  0.2230959E+02  0.7546771E-02  0.1501354E+00
          2   -1    0    0  501    0  0.00000000000E+00  0.00000000000E+00  0.20809902255E+02  0.20809902255E+02  0.00000000000E+00 0.  1.
         -2   -1    0    0    0  501 -0.00000000000E+00 -0.00000000000E+00 -0.42229325197E+02  0.42229325197E+02  0.00000000000E+00 0. -1.
          2    1    1    2  502    0  0.16333565240E+02 -0.15196467285E+02  0.10046174004E+02  0.24467194026E+02  0.00000000000E+00 0.  1.
         -2    1    1    2    0  502 -0.16333565240E+02  0.15196467285E+02 -0.31465596947E+02  0.38572033426E+02  0.00000000000E+00 0. -1.
</event>
<event>
 4    1  0.5953944E+003  0.2179681E+02  0.7546771E-02  0.1508186E+00
          2   -1    0    0  501    0  0.00000000000E+00  0.00000000000E+00  0.37983774721E+02  0.37983774721E+02  0.00000000000E+00 0.  1.
         -2   -1    0    0    0  501 -0.00000000000E+00 -0.00000000000E+00 -0.12636769548E+02  0.12636769548E+02  0.00000000000E+00 0. -1.
          2    1    1    2  502    0 -0.12957530617E+02 -0.17527221179E+02  0.15228462772E+02  0.26589606246E+02  0.00000000000E+00 0.  1.
         -2    1    1    2    0  502  0.12957530617E+02  0.17527221179E+02  0.10118542401E+02  0.24030938023E+02  0.00000000000E+00 0. -1.
</event>
<event>
 4    1  0.5953944E+003  0.2401437E+02  0.7546771E-02  0.1480139E+00
          2   -1    0    0  501    0  0.00000000000E+00  0.00000000000E+00  0.11616095245E+04  0.11616095245E+04  0.00000000000E+00 0. -1.
         -2   -1    0    0    0  501 -0.00000000000E+00 -0.00000000000E+00 -0.75327490102E+00  0.75327490102E+00  0.00000000000E+00 0.  1.
          2    1    1    2  502    0  0.15185501913E+02 -0.18603510536E+02  0.91977742202E+03  0.92009086297E+03  0.00000000000E+00 0. -1.
         -2    1    1    2    0  502 -0.15185501913E+02  0.18603510536E+02  0.24107882755E+03  0.24227193640E+03  0.00000000000E+00 0.  1.
</event>
<event>
 4    1  0.5953944E+003  0.4254202E+02  0.7546771E-02  0.1334201E+00
          2   -1    0    0  501    0  0.00000000000E+00  0.00000000000E+00  0.13032108701E+03  0.13032108701E+03  0.00000000000E+00 0.  1.
         -2   -1    0    0    0  501 -0.00000000000E+00 -0.00000000000E+00 -0.24935141771E+03  0.24935141771E+03  0.00000000000E+00 0.  1.
          2    1    1    2  502    0  0.33406654240E+02 -0.26340449619E+02  0.12495897120E+03  0.13200215269E+03  0.00000000000E+00 0.  1.
         -2    1    1    2    0  502 -0.33406654240E+02  0.26340449619E+02 -0.24398930190E+03  0.24767035203E+03  0.00000000000E+00 0.  1.
</event>
<event>
 4    1  0.5953944E+003  0.2495692E+02  0.7546771E-02  0.1469286E+00
          2   -1    0    0  501    0  0.00000000000E+00  0.00000000000E+00  0.23430868741E+04  0.23430868741E+04  0.00000000000E+00 0. -1.
         -2   -1    0    0    0  501 -0.00000000000E+00 -0.00000000000E+00 -0.31405741041E+00  0.31405741041E+00  0.00000000000E+00 0. -1.
          2    1    1    2  502    0  0.22633553316E+02 -0.10515241593E+02  0.16305710765E+04  0.16307620561E+04  0.00000000000E+00 0. -1.
         -2    1    1    2    0  502 -0.22633553316E+02  0.10515241593E+02  0.71220174020E+03  0.71263887544E+03  0.00000000000E+00 0. -1.
</event>
<event>
 4    1  0.5953944E+003  0.2297564E+02  0.7546771E-02  0.1492804E+00
          2   -1    0    0  501    0  0.00000000000E+00  0.00000000000E+00  0.43369188737E+02  0.43369188737E+02  0.00000000000E+00 0. -1.
         -2   -1    0    0    0  501 -0.00000000000E+00 -0.00000000000E+00 -0.39646595325E+03  0.39646595325E+03  0.00000000000E+00 0. -1.
          2    1    1    2  502    0  0.73248098012E+01  0.21776761722E+02  0.39967062448E+02  0.46100393387E+02  0.00000000000E+00 0. -1.
         -2    1    1    2    0  502 -0.73248098012E+01 -0.21776761722E+02 -0.39306382696E+03  0.39373474860E+03  0.00000000000E+00 0. -1.
</event>
<event>
 4    1  0.5953944E+003  0.2196074E+02  0.7546771E-02  0.1505977E+00
          2   -1    0    0  501    0  0.00000000000E+00  0.00000000000E+00  0.25631940874E+03  0.25631940874E+03  0.00000000000E+00 0. -1.
         -2   -1    0    0    0  501 -0.00000000000E+00 -0.00000000000E+00 -0.65782765127E+02  0.65782765127E+02  0.00000000000E+00 0. -1.
          2    1    1    2  502    0  0.21355589797E+02 -0.51198660885E+01  0.25399948657E+03  0.25494707965E+03  0.00000000000E+00 0. -1.
         -2    1    1    2    0  502 -0.21355589797E+02  0.51198660885E+01 -0.63462842952E+02  0.67155094221E+02  0.00000000000E+00 0. -1.
</event>
<event>
 4    1  0.5953944E+003  0.2708956E+02  0.7546771E-02  0.1446710E+00
          2   -1    0    0  501    0  0.00000000000E+00  0.00000000000E+00  0.61851304032E+02  0.61851304032E+02  0.00000000000E+00 0. -1.
         -2   -1    0    0    0  501 -0.00000000000E+00 -0.00000000000E+00 -0.15066306377E+02  0.15066306377E+02  0.00000000000E+00 0.  1.
          2    1    1    2  502    0 -0.26512777942E+02 -0.55603156283E+01  0.41121296299E+02  0.49242314257E+02  0.00000000000E+00 0. -1.
         -2    1    1    2    0  502  0.26512777942E+02  0.55603156283E+01  0.56637013562E+01  0.27675296153E+02  0.00000000000E+00 0.  1.
</event>
<event>
 4    1  0.5953944E+003  0.2187537E+02  0.7546771E-02  0.1507124E+00
          2   -1    0    0  501    0  0.00000000000E+00  0.00000000000E+00  0.10601094310E+03  0.10601094310E+03  0.00000000000E+00 0.  1.
         -2   -1    0    0    0  501 -0.00000000000E+00 -0.00000000000E+00 -0.44625178153E+02  0.44625178153E+02  0.00000000000E+00 0. -1.
          2    1    1    2  502    0  0.55377460750E+01 -0.21162828834E+02  0.10210007033E+03  0.10441722232E+03  0.00000000000E+00 0.  1.
         -2    1    1    2    0  502 -0.55377460750E+01  0.21162828834E+02 -0.40714305382E+02  0.46218898933E+02  0.00000000000E+00 0. -1.
</event>
<event>
 4    1  0.5953944E+003  0.3161774E+02  0.7546771E-02  0.1406041E+00
          2   -1    0    0  501    0  0.00000000000E+00  0.00000000000E+00  0.13466861653E+04  0.13466861653E+04  0.00000000000E+00 0. -1.
         -2   -1    0    0    0  501 -0.00000000000E+00 -0.00000000000E+00 -0.31803403035E+01  0.31803403035E+01  0.00000000000E+00 0.  1.
          2    1    1    2  502    0  0.29595129038E+02  0.11126976462E+02  0.12626911331E+04  0.12630869245E+04  0.00000000000E+00 0. -1.
         -2    1    1    2    0  502 -0.29595129038E+02 -0.11126976462E+02  0.80814691907E+02  0.86779581100E+02  0.00000000000E+00 0.  1.
</event>
<event>
 4    1  0.5953944E+003  0.2404007E+02  0.7546771E-02  0.1479835E+00
          2   -1    0    0  501    0  0.00000000000E+00  0.00000000000E+00  0.16653327774E+02  0.16653327774E+02  0.00000000000E+00 0. -1.
         -2   -1    0    0    0  501 -0.00000000000E+00 -0.00000000000E+00 -0.20387249783E+03  0.20387249783E+03  0.00000000000E+00 0.  1.
          2    1    1    2  502    0  0.40509638273E+01  0.23696298376E+02  0.68313686363E+01  0.24991847913E+02  0.00000000000E+00 0. -1.
         -2    1    1    2    0  502 -0.40509638273E+01 -0.23696298376E+02 -0.19405053869E+03  0.19553397769E+03  0.00000000000E+00 0.  1.
</event>
<event>
 4    1  0.5953944E+003  0.2136029E+02  0.7546771E-02  0.1514183E+00
          2   -1    0    0  501    0  0.00000000000E+00  0.00000000000E+00  0.12134163274E+03  0.12134163274E+03  0.00000000000E+00 0. -1.
         -2   -1    0    0    0  501 -0.00000000000E+00 -0.00000000000E+00 -0.52280037567E+01  0.52280037567E+01  0.00000000000E+00 0. -1.
          2    1    1    2  502    0 -0.12165074339E+02 -0.17557703840E+02  0.91589928946E+02  0.94047738315E+02  0.00000000000E+00 0. -1.
         -2    1    1    2    0  502  0.12165074339E+02  0.17557703840E+02  0.24523700037E+02  0.32521898182E+02  0.00000000000E+00 0. -1.
</event>
<event>
 4    1  0.5953944E+003  0.2044236E+02  0.7546771E-02  0.1527377E+00
          2   -1    0    0  501    0  0.00000000000E+00  0.00000000000E+00  0.34737014473E+03  0.34737014473E+03  0.00000000000E+00 0.  1.
         -2   -1    0    0    0  501 -0.00000000000E+00 -0.00000000000E+00 -0.15240004839E+01  0.15240004839E+01  0.00000000000E+00 0.  1.
          2    1    1    2  502    0  0.20893840116E+01  0.20335299781E+02  0.25298330558E+03  0.25380788570E+03  0.00000000000E+00 0.  1.
         -2    1    1    2    0  502 -0.20893840116E+01 -0.20335299781E+02  0.92862838673E+02  0.95086259518E+02  0.00000000000E+00 0.  1.
</event>
<event>
 4    1  0.5953944E+003  0.2543833E+02  0.7546771E-02  0.1463959E+00
          2   -1    0    0  501    0  0.00000000000E+00  0.00000000000E+00  0.10841986998E+02  0.10841986998E+02  0.00000000000E+00 0.  1.
         -2   -1    0    0    0  501 -0.00000000000E+00 -0.00000000000E+00 -0.26499545495E+03  0.26499545495E+03  0.00000000000E+00 0.  1.
          2    1    1    2  502    0 -0.19191036496E+02  0.16697687080E+02 -0.56794170580E+01  0.26064619962E+02  0.00000000000E+00 0.  1.
         -2    1    1    2    0  502  0.19191036496E+02 -0.16697687080E+02 -0.24847405089E+03  0.24977282199E+03  0.00000000000E+00 0.  1.
</event>
<event>
 4    1  0.5953944E+003  0.2282382E+02  0.7546771E-02  0.1494722E+00
          2   -1    0    0  501    0  0.00000000000E+00  0.00000000000E+00  0.25800921438E+03  0.25800921438E+03  0.00000000000E+00 0. -1.
         -2   -1    0    0    0  501 -0.00000000000E+00 -0.00000000000E+00 -0.60562201981E+02  0.60562201981E+02  0.00000000000E+00 0. -1.
          2    1    1    2  502    0  0.80960460495E+01 -0.21339655347E+02  0.25533157291E+03  0.25634964205E+03  0.00000000000E+00 0. -1.
         -2    1    1    2    0  502 -0.80960460495E+01  0.21339655347E+02 -0.57884560517E+02  0.62221774310E+02  0.00000000000E+00 0. -1.
</event>
<event>
 4    1  0.5953944E+003  0.5354136E+02  0.7546771E-02  0.1283508E+00
          2   -1    0    0  501    0  0.00000000000E+00  0.00000000000E+00  0.59218105458E+03  0.59218105458E+03  0.00000000000E+00 0.  1.
         -2   -1    0    0    0  501 -0.00000000000E+00 -0.00000000000E+00 -0.44393055976E+03  0.44393055976E+03  0.00000000000E+00 0. -1.
          2    1    1    2  502    0 -0.46796718995E+02 -0.26014301166E+02  0.58934872004E+03  0.59177579419E+03  0.00000000000E+00 0.  1.
         -2    1    1    2    0  502  0.46796718995E+02  0.26014301166E+02 -0.44109822522E+03  0.44433582015E+03  0.00000000000E+00 0. -1.
</event>
<event>
 4    1  0.5953944E+003  0.2447904E+02  0.7546771E-02  0.1474716E+00
          2   -1    0    0  501    0  0.00000000000E+00  0.00000000000E+00  0.26660927616E+02  0.26660927616E+02  0.00000000000E+00 0. -1.
         -2   -1    0    0    0  501 -0.00000000000E+00 -0.00000000000E+00 -0.29433541713E+03  0.29433541713E+03  0.00000000000E+00 0.  1.
          2    1    1    2  502    0  0.14219961228E+02  0.19925263248E+02  0.20411361261E+02  0.31872356068E+02  0.00000000000E+00 0. -1.
         -2    1    1    2    0  502 -0.14219961228E+02 -0.19925263248E+02 -0.28808585078E+03  0.28912398868E+03  0.00000000000E+00 0.  1.
</event>
<event>
 4    1  0.5953944E+003  0.3102762E+02  0.7546771E-02  0.1410872E+00
          2   -1    0    0  501    0  0.00000000000E+00  0.00000000000E+00  0.43834941041E+03  0.43834941041E+03  0.00000000000E+00 0.  1.
         -2   -1    0    0    0  501 -0.00000000000E+00 -0.00000000000E+00 -0.24473374990E+01  0.24473374990E+01  0.00000000000E+00 0.  1.
          2    1    1    2  502    0 -0.23918825117E+02 -0.19763680399E+02  0.28854977682E+03  0.29021317503E+03  0.00000000000E+00 0.  1.
         -2    1    1    2    0  502  0.23918825117E+02  0.19763680399E+02  0.14735229609E+03  0.15058357288E+03  0.00000000000E+00 0.  1.
</event>
<event>
 4    1  0.5953944E+003  0.6194111E+02  0.7546771E-02  0.1253376E+00
          2   -1    0    0  501    0  0.00000000000E+00  0.00000000000E+00  0.41859871029E+03  0.41859871029E+03  0.00000000000E+00 0.  1.
         -2   -1    0    0    0  501 -0.00000000000E+00 -0.00000000000E+00 -0.19911247647E+04  0.19911247647E+04  0.00000000000E+00 0. -1.
          2    1    1    2  502    0 -0.52827343775E+02 -0.32341505566E+02  0.41582239048E+03  0.42041046806E+03  0.00000000000E+00 0.  1.
         -2    1    1    2    0  502  0.52827343775E+02  0.32341505566E+02 -0.19883484448E+04  0.19893130069E+04  0.00000000000E+00 0. -1.
</event>
<event>
 4    1  0.5953944E+003  0.2269301E+02  0.7546771E-02  0.1496389E+00
          2   -1    0    0  501    0  0.00000000000E+00  0.00000000000E+00  0.42041133341E+01  0.42041133341E+01  0.00000000000E+00 0. -1.
         -2   -1    0    0    0  501 -0.00000000000E+00 -0.00000000000E+00 -0.21338531813E+03  0.21338531813E+03  0.00000000000E+00 0. -1.
          2    1    1    2  502    0  0.93529383883E+01  0.20675952685E+02 -0.33585387074E+02  0.40533328273E+02  0.00000000000E+00 0. -1.
         -2    1    1    2    0  502 -0.93529383883E+01 -0.20675952685E+02 -0.17559581772E+03  0.17705610319E+03  0.00000000000E+00 0. -1.
</event>
<event>
 4    1  0.5953944E+003  0.3326619E+03  0.7546771E-02  0.9876809E-01
          2   -1    0    0  501    0  0.00000000000E+00  0.00000000000E+00  0.76346319778E+03  0.76346319778E+03  0.00000000000E+00 0. -1.
         -2   -1    0    0    0  501 -0.00000000000E+00 -0.00000000000E+00 -0.31247676530E+03  0.31247676530E+03  0.00000000000E+00 0.  1.
          2    1    1    2  502    0  0.22885286515E+03 -0.24143387930E+03  0.61939808130E+03  0.70307747445E+03  0.00000000000E+00 0. -1.
         -2    1    1    2    0  502 -0.22885286515E+03  0.24143387930E+03 -0.16841164883E+03  0.37286248863E+03  0.00000000000E+00 0.  1.
</event>
<event>
 4    1  0.5953944E+003  0.4411917E+02  0.7546771E-02  0.1325903E+00
          2   -1    0    0  501    0  0.00000000000E+00  0.00000000000E+00  0.16157472290E+04  0.16157472290E+04  0.00000000000E+00 0.  1.
         -2   -1    0    0    0  501 -0.00000000000E+00 -0.00000000000E+00 -0.34835880600E+01  0.34835880600E+01  0.00000000000E+00 0. -1.
          2    1    1    2  502    0  0.59402784620E+00  0.44115173493E+02  0.14609583002E+04  0.14616243212E+04  0.00000000000E+00 0.  1.
         -2    1    1    2    0  502 -0.59402784620E+00 -0.44115173493E+02  0.15130534080E+03  0.15760649592E+03  0.00000000000E+00 0. -1.
</event>
<event>
 4    1  0.5953944E+003  0.4017555E+02  0.7546771E-02  0.1347460E+00
          2   -1    0    0  501    0  0.00000000000E+00  0.00000000000E+00  0.19953942711E+04  0.19953942711E+04  0.00000000000E+00 0.  1.
         -2   -1    0    0    0  501 -0.00000000000E+00 -0.00000000000E+00 -0.57928427819E+01  0.57928427819E+01  0.00000000000E+00 0.  1.
          2    1    1    2  502    0 -0.39963695186E+02 -0.41204578718E+01  0.19229083380E+04  0.19233279885E+04  0.00000000000E+00 0.  1.
         -2    1    1    2    0  502  0.39963695186E+02  0.41204578718E+01  0.66693090376E+02  0.77859125412E+02  0.00000000000E+00 0.  1.
</event>
<event>
 4    1  0.5953944E+003  0.2693432E+02  0.7546771E-02  0.1448269E+00
          2   -1    0    0  501    0  0.00000000000E+00  0.00000000000E+00  0.18278239537E+03  0.18278239537E+03  0.00000000000E+00 0. -1.
         -2   -1    0    0    0  501 -0.00000000000E+00 -0.00000000000E+00 -0.40136213887E+02  0.40136213887E+02  0.00000000000E+00 0.  1.
          2    1    1    2  502    0  0.24763937901E+02  0.10592676439E+02  0.17712800742E+03  0.17916413823E+03  0.00000000000E+00 0. -1.
         -2    1    1    2    0  502 -0.24763937901E+02 -0.10592676439E+02 -0.34481825941E+02  0.43754471025E+02  0.00000000000E+00 0.  1.
</event>
<event>
 4    1  0.5953944E+003  0.2341020E+02  0.7546771E-02  0.1487411E+00
          2   -1    0    0  501    0  0.00000000000E+00  0.00000000000E+00  0.29698679872E+02  0.29698679872E+02  0.00000000000E+00 0. -1.
         -2   -1    0    0    0  501 -0.00000000000E+00 -0.00000000000E+00 -0.20862802729E+02  0.20862802729E+02  0.00000000000E+00 0.  1.
          2    1    1    2  502    0  0.15120934930E+02  0.17871613237E+02  0.13009487904E+02  0.26782158396E+02  0.00000000000E+00 0. -1.
         -2    1    1    2    0  502 -0.15120934930E+02 -0.17871613237E+02 -0.41736107608E+01  0.23779324205E+02  0.00000000000E+00 0.  1.
</event>
<event>
 4    1  0.5953944E+003  0.2549384E+02  0.7546771E-02  0.1463354E+00
          2   -1    0    0  501    0  0.00000000000E+00  0.00000000000E+00  0.72764163082E+02  0.72764163082E+02  0.00000000000E+00 0.  1.
         -2   -1    0    0    0  501 -0.00000000000E+00 -0.00000000000E+00 -0.20639843574E+02  0.20639843574E+02  0.00000000000E+00 0.  1.
          2    1    1    2  502    0 -0.79181025271E+00 -0.25481541027E+02  0.61235947299E+02  0.66330815902E+02  0.00000000000E+00 0.  1.
         -2    1    1    2    0  502  0.79181025271E+00  0.25481541027E+02 -0.91116277908E+01  0.27073190754E+02  0.00000000000E+00 0.  1.
</event>
<event>
 4    1  0.5953944E+003  0.2655632E+02  0.7546771E-02  0.1452117E+00
          2   -1    0    0  501    0  0.00000000000E+00  0.00000000000E+00  0.22524275943E+02  0.22524275943E+02  0.00000000000E+00 0. -1.
         -2   -1    0    0    0  501 -0.00000000000E+00 -0.00000000000E+00 -0.22460051620E+03  0.22460051620E+03  0.00000000000E+00 0.  1.
          2    1    1    2  502    0 -0.56166829452E+00  0.26550384460E+02  0.13588649744E+02  0.29831020568E+02  0.00000000000E+00 0. -1.
         -2    1    1    2    0  502  0.56166829452E+00 -0.26550384460E+02 -0.21566489001E+03  0.21729377158E+03  0.00000000000E+00 0.  1.
</event>
<event>
 4    1  0.5953944E+003  0.4750201E+02  0.7546771E-02  0.1309382E+00
          2   -1    0    0  501    0  0.00000000000E+00  0.00000000000E+00  0.26254103966E+03  0.26254103966E+03  0.00000000000E+00 0.  1.
         -2   -1    0    0    0  501 -0.00000000000E+00 -0.00000000000E+00 -0.18927084647E+02  0.18927084647E+02  0.00000000000E+00 0. -1.
          2    1    1    2  502    0  0.11405484364E+02  0.46112429647E+02  0.22578924015E+03  0.23073192715E+03  0.00000000000E+00 0.  1.
         -2    1    1    2    0  502 -0.11405484364E+02 -0.46112429647E+02  0.17824714864E+02  0.50736197152E+02  0.00000000000E+00 0. -1.
</event>
<event>
 4    1  0.5953944E+003  0.2416222E+02  0.7546771E-02  0.1478398E+00
          2   -1    0    0  501    0  0.00000000000E+00  0.00000000000E+00  0.12441469189E+02  0.12441469189E+02  0.00000000000E+00 0. -1.
         -2   -1    0    0    0  501 -0.00000000000E+00 -0.00000000000E+00 -0.14901473984E+03  0.14901473984E+03  0.00000000000E+00 0.  1.
          2    1    1    2  502    0  0.19052752564E+02  0.14859523834E+02 -0.14673660901E+01  0.24206734436E+02  0.00000000000E+00 0. -1.
         -2    1    1    2    0  502 -0.19052752564E+02 -0.14859523834E+02 -0.13510590456E+03  0.13724947459E+03  0.00000000000E+00 0.  1.
</event>
<event>
 4    1  0.5953944E+003  0.3197405E+02  0.7546771E-02  0.1403184E+00
          2   -1    0    0  501    0  0.00000000000E+00  0.00000000000E+00  0.58682142948E+03  0.58682142948E+03  0.00000000000E+00 0.  1.
         -2   -1    0    0    0  501 -0.00000000000E+00 -0.00000000000E+00 -0.31256774702E+02  0.31256774702E+02  0.00000000000E+00 0.  1.
          2    1    1    2  502    0 -0.34509026164E+01 -0.31787280417E+02  0.57808546670E+03  0.57896903780E+03  0.00000000000E+00 0.  1.
         -2    1    1    2    0  502  0.34509026164E+01  0.31787280417E+02 -0.22520811923E+02  0.39109166379E+02  0.00000000000E+00 0.  1.
</event>
<event>
 4    1  0.5953944E+003  0.3086805E+02  0.7546771E-02  0.1412200E+00
          2   -1    0    0  501    0  0.00000000000E+00  0.00000000000E+00  0.21120040901E+04  0.21120040901E+04  0.00000000000E+00 0.  1.
         -2   -1    0    0    0  501 -0.00000000000E+00 -0.00000000000E+00 -0.41353081958E+01  0.41353081958E+01  0.00000000000E+00 0. -1.
          2    1    1    2  502    0  0.16847177466E+02  0.25865214054E+02  0.20526211751E+04  0.20528532644E+04  0.00000000000E+00 0.  1.
         -2    1    1    2    0  502 -0.16847177466E+02 -0.25865214054E+02  0.55247606845E+02  0.63286133937E+02  0.00000000000E+00 0. -1.
</event>
<event>
 4    1  0.5953944E+003  0.2298249E+02  0.7546771E-02  0.1492718E+00
          2   -1    0    0  501    0  0.00000000000E+00  0.00000000000E+00  0.40348009003E+03  0.40348009003E+03  0.00000000000E+00 0.  1.
         -2   -1    0    0    0  501 -0.00000000000E+00 -0.00000000000E+00 -0.13732311639E+01  0.13732311639E+01  0.00000000000E+00 0.  1.
          2    1    1    2  502    0 -0.14585079630E+02  0.17761484150E+02  0.24479941013E+03  0.24587587533E+03  0.00000000000E+00 0.  1.
         -2    1    1    2    0  502  0.14585079630E+02 -0.17761484150E+02  0.15730744874E+03  0.15897744587E+03  0.00000000000E+00 0.  1.
</event>
<event>
 4    1  0.5953944E+003  0.2264502E+02  0.7546771E-02  0.1497004E+00
          2   -1    0    0  501    0  0.00000000000E+00  0.00000000000E+00  0.21533768905E+03  0.21533768905E+03  0.00000000000E+00 0.  1.
         -2   -1    0    0    0  501 -0.00000000000E+00 -0.00000000000E+00 -0.84772280961E+01  0.84772280961E+01  0.00000000000E+00 0.  1.
          2    1    1    2  502    0  0.22635825286E+02 -0.64512193480E+00  0.19832665389E+03  0.19961527600E+03  0.00000000000E+00 0.  1.
         -2    1    1    2    0  502 -0.22635825286E+02  0.64512193480E+00  0.85338070635E+01  0.24199641147E+02  0.00000000000E+00 0.  1.
</event>
<event>
 4    1  0.5953944E+003  0.2137695E+02  0.7546771E-02  0.1513951E+00
          2   -1    0    0  501    0  0.00000000000E+00  0.00000000000E+00  0.37314801472E+01  0.37314801472E+01  0.00000000000E+00 0. -1.
         -2   -1    0    0    0  501 -0.00000000000E+00 -0.00000000000E+00 -0.32531167149E+03  0.32531167149E+03  0.00000000000E+00 0.  1.
          2    1    1    2  502    0 -0.20032265829E+02 -0.74620508148E+01 -0.30875630825E+02  0.37553674327E+02  0.00000000000E+00 0. -1.
         -2    1    1    2    0  502  0.20032265829E+02  0.74620508148E+01 -0.29070456052E+03  0.29148947731E+03  0.00000000000E+00 0.  1.
</event>
<event>
 4    1  0.5953944E+003  0.2039952E+02  0.7546771E-02  0.1528013E+00
          2   -1    0    0  501    0  0.00000000000E+00  0.00000000000E+00  0.36104106243E+03  0.36104106243E+03  0.00000000000E+00 0.  1.
         -2   -1    0    0    0  501 -0.00000000000E+00 -0.00000000000E+00 -0.88512401127E+01  0.88512401127E+01  0.00000000000E+00 0. -1.
          2    1    1    2  502    0 -0.97080413165E+01  0.17941415417E+02  0.34857933906E+03  0.34917573809E+03  0.00000000000E+00 0.  1.
         -2    1    1    2    0  502  0.97080413165E+01 -0.17941415417E+02  0.36104832609E+01  0.20716564453E+02  0.00000000000E+00 0. -1.
</event>
<event>
 4    1  0.5953944E+003  0.2589347E+02  0.7546771E-02  0.1459052E+00
          2   -1    0    0  501    0  0.00000000000E+00  0.00000000000E+00  0.86393691584E+03  0.86393691584E+03  0.00000000000E+00 0. -1.
         -2   -1    0    0    0  501 -0.00000000000E+00 -0.00000000000E+00 -0.53018259099E+02  0.53018259099E+02  0.00000000000E+00 0.  1.
          2    1    1    2  502    0 -0.25731193472E+02  0.28943856602E+01  0.86056901582E+03  0.86095847912E+03  0.00000000000E+00 0. -1.
         -2    1    1    2    0  502  0.25731193472E+02 -0.28943856602E+01 -0.49650359078E+02  0.55996695817E+02  0.00000000000E+00 0.  1.
</event>
<event>
 4    1  0.5953944E+003  0.2853768E+02  0.7546771E-02  0.1432745E+00
          2   -1    0    0  501    0  0.00000000000E+00  0.00000000000E+00  0.44636555707E+03  0.44636555707E+03  0.00000000000E+00 0.  1.
         -2   -1    0    0    0  501 -0.00000000000E+00 -0.00000000000E+00 -0.89865225140E+01  0.89865225140E+01  0.00000000000E+00 0.  1.
          2    1    1    2  502    0 -0.31451651133E+01  0.28363830222E+02  0.42194346932E+03  0.42290742513E+03  0.00000000000E+00 0.  1.
         -2    1    1    2    0  502  0.31451651133E+01 -0.28363830222E+02  0.15435565235E+02  0.32444654453E+02  0.00000000000E+00 0.  1.
</event>
<event>
 4    1  0.5953944E+003  0.4299250E+02  0.7546771E-02  0.1331789E+00
          2   -1    0    0  501    0  0.00000000000E+00  0.00000000000E+00  0.11480857800E+04  0.11480857800E+04  0.00000000000E+00 0.  1.
         -2   -1    0    0    0  501 -0.00000000000E+00 -0.00000000000E+00 -0.28229087752E+01  0.28229087752E+01  0.00000000000E+00 0.  1.
          2    1    1    2  502    0  0.26784491705E+02 -0.33629537779E+02  0.94984420912E+03  0.95081668918E+03  0.00000000000E+00 0.  1.
         -2    1    1    2    0  502 -0.26784491705E+02  0.33629537779E+02  0.19541866214E+03  0.20009199964E+03  0.00000000000E+00 0.  1.
</event>
<event>
 4    1  0.5953944E+003  0.2575156E+02  0.7546771E-02  0.1460569E+00
          2   -1    0    0  501    0  0.00000000000E+00  0.00000000000E+00  0.54627487005E+02  0.54627487005E+02  0.00000000000E+00 0. -1.
         -2   -1    0    0    0  501 -0.00000000000E+00 -0.00000000000E+00 -0.22871311339E+02  0.22871311339E+02  0.00000000000E+00 0.  1.
          2    1    1    2  502    0 -0.18292946387E+02  0.18124872460E+02  0.42421620885E+02  0.49625969085E+02  0.00000000000E+00 0. -1.
         -2    1    1    2    0  502  0.18292946387E+02 -0.18124872460E+02 -0.10665445219E+02  0.27872829259E+02  0.00000000000E+00 0.  1.
</event>
<event>
 4    1  0.8444515E+003  0.3010691E+02  0.7546771E-02  0.1418670E+00
          2   -1    0    0  501    0  0.00000000000E+00  0.00000000000E+00  0.13976251259E+04  0.13976251259E+04  0.00000000000E+00 0. -1.
         -2   -1    0    0    0  501 -0.00000000000E+00 -0.00000000000E+00 -0.26681742575E+03  0.26681742575E+03  0.00000000000E+00 0.  1.
          2    1    1    2  502    0  0.19105392278E+01  0.30046230121E+02  0.13966130794E+04  0.13969375504E+04  0.00000000000E+00 0. -1.
         -2    1    1    2    0  502 -0.19105392278E+01 -0.30046230121E+02 -0.26580537921E+03  0.26750500130E+03  0.00000000000E+00 0.  1.
</event>
<event>
 4    1  0.5953944E+003  0.5259942E+02  0.7546771E-02  0.1287279E+00
          2   -1    0    0  501    0  0.00000000000E+00  0.00000000000E+00  0.16432541889E+04  0.16432541889E+04  0.00000000000E+00 0. -1.
         -2   -1    0    0    0  501 -0.00000000000E+00 -0.00000000000E+00 -0.42889475439E+01  0.42889475439E+01  0.00000000000E+00 0.  1.
          2    1    1    2  502    0  0.22056420639E+02  0.47751583478E+02  0.14615170920E+04  0.14624633020E+04  0.00000000000E+00 0. -1.
         -2    1    1    2    0  502 -0.22056420639E+02 -0.47751583478E+02  0.17744814929E+03  0.18507983440E+03  0.00000000000E+00 0.  1.
</event>
<event>
 4    1  0.5953944E+003  0.2930047E+02  0.7546771E-02  0.1425774E+00
          2   -1    0    0  501    0  0.00000000000E+00  0.00000000000E+00  0.49229296067E+01  0.49229296067E+01  0.00000000000E+00 0.  1.
         -2   -1    0    0    0  501 -0.00000000000E+00 -0.00000000000E+00 -0.25294261376E+03  0.25294261376E+03  0.00000000000E+00 0.  1.
          2    1    1    2  502    0  0.19275255322E+02 -0.22067649146E+02 -0.19586017031E+03  0.19803970036E+03  0.00000000000E+00 0.  1.
         -2    1    1    2    0  502 -0.19275255322E+02  0.22067649146E+02 -0.52159513845E+02  0.59825843004E+02  0.00000000000E+00 0.  1.
</event>
<event>
 4    1  0.5953944E+003  0.2088431E+02  0.7546771E-02  0.1520923E+00
          2   -1    0    0  501    0  0.00000000000E+00  0.00000000000E+00  0.29563265638E+03  0.29563265638E+03  0.00000000000E+00 0.  1.
         -2   -1    0    0    0  501 -0.00000000000E+00 -0.00000000000E+00 -0.14773855473E+01  0.14773855473E+01  0.00000000000E+00 0.  1.
          2    1    1    2  502    0 -0.17796978024E+02 -0.10928013473E+02  0.14152813197E+03  0.14306070755E+03  0.00000000000E+00 0.  1.
         -2    1    1    2    0  502  0.17796978024E+02  0.10928013473E+02  0.15262713886E+03  0.15404933437E+03  0.00000000000E+00 0.  1.
</event>
<event>
 4    1  0.5953944E+003  0.3118509E+02  0.7546771E-02  0.1409570E+00
          2   -1    0    0  501    0  0.00000000000E+00  0.00000000000E+00  0.11998219212E+04  0.11998219212E+04  0.00000000000E+00 0.  1.
         -2   -1    0    0    0  501 -0.00000000000E+00 -0.00000000000E+00 -0.13431249276E+02  0.13431249276E+02  0.00000000000E+00 0.  1.
          2    1    1    2  502    0 -0.24537978293E+02 -0.19245713212E+02  0.11812328419E+04  0.11816444206E+04  0.00000000000E+00 0.  1.
         -2    1    1    2    0  502  0.24537978293E+02  0.19245713212E+02  0.51578299313E+01  0.31608749823E+02  0.00000000000E+00 0.  1.
</event>
<event>
 4    1  0.5953944E+003  0.3218559E+02  0.7546771E-02  0.1401508E+00
          2   -1    0    0  501    0  0.00000000000E+00  0.00000000000E+00  0.62222358812E+01  0.62222358812E+01  0.00000000000E+00 0. -1.
         -2   -1    0    0    0  501 -0.00000000000E+00 -0.00000000000E+00 -0.16918544427E+03  0.16918544427E+03  0.00000000000E+00 0. -1.
          2    1    1    2  502    0  0.35671447259E+01 -0.31987308399E+02 -0.70402369794E+02  0.77410632944E+02  0.00000000000E+00 0. -1.
         -2    1    1    2    0  502 -0.35671447259E+01  0.31987308399E+02 -0.92560838596E+02  0.97997047209E+02  0.00000000000E+00 0. -1.
</event>
<event>
 4    1  0.5953944E+003  0.2208700E+02  0.7546771E-02  0.1504292E+00
          2   -1    0    0  501    0  0.00000000000E+00  0.00000000000E+00  0.11671890707E+03  0.11671890707E+03  0.00000000000E+00 0. -1.
         -2   -1    0    0    0  501 -0.00000000000E+00 -0.00000000000E+00 -0.33308541780E+02  0.33308541780E+02  0.00000000000E+00 0.  1.
          2    1    1    2  502    0  0.19329714577E+02  0.10686332575E+02  0.11185482313E+03  0.11401463514E+03  0.00000000000E+00 0. -1.
         -2    1    1    2    0  502 -0.19329714577E+02 -0.10686332575E+02 -0.28444457838E+02  0.36012813709E+02  0.00000000000E+00 0.  1.
</event>
<event>
 4    1  0.5953944E+003  0.2022041E+02  0.7546771E-02  0.1530693E+00
          2   -1    0    0  501    0  0.00000000000E+00  0.00000000000E+00  0.46654970526E+02  0.46654970526E+02  0.00000000000E+00 0. -1.
         -2   -1    0    0    0  501 -0.00000000000E+00 -0.00000000000E+00 -0.87445731132E+02  0.87445731132E+02  0.00000000000E+00 0. -1.
          2    1    1    2  502    0 -0.39764510657E+01  0.19825558217E+02  0.43206483039E+02  0.47703931686E+02  0.00000000000E+00 0. -1.
         -2    1    1    2    0  502  0.39764510657E+01 -0.19825558217E+02 -0.83997243645E+02  0.86396769972E+02  0.00000000000E+00 0. -1.
</event>
<event>
 4    1  0.5953944E+003  0.2422121E+02  0.7546771E-02  0.1477707E+00
          2   -1    0    0  501    0  0.00000000000E+00  0.00000000000E+00  0.13336296567E+04  0.13336296567E+04  0.00000000000E+00 0. -1.
         -2   -1    0    0    0  501 -0.00000000000E+00 -0.00000000000E+00 -0.21840590865E+01  0.21840590865E+01  0.00000000000E+00 0. -1.
          2    1    1    2  502    0  0.89909199191E+01 -0.22490677390E+02  0.12625882341E+04  0.12628205399E+04  0.00000000000E+00 0. -1.
         -2    1    1    2    0  502 -0.89909199191E+01  0.22490677390E+02  0.68857363583E+02  0.72993175914E+02  0.00000000000E+00 0. -1.
</event>
<event>
 4    1  0.5953944E+003  0.2226569E+02  0.7546771E-02  0.1501931E+00
          2   -1    0    0  501    0  0.00000000000E+00  0.00000000000E+00  0.68298736260E+02  0.68298736260E+02  0.00000000000E+00 0. -1.
         -2   -1    0    0    0  501 -0.00000000000E+00 -0.00000000000E+00 -0.29680664443E+02  0.29680664443E+02  0.00000000000E+00 0. -1.
          2    1    1    2  502    0  0.85608386258E+01  0.20554153143E+02  0.61888936457E+02  0.65772346964E+02  0.00000000000E+00 0. -1.
         -2    1    1    2    0  502 -0.85608386258E+01 -0.20554153143E+02 -0.23270864641E+02  0.32207053739E+02  0.00000000000E+00 0. -1.
</event>
<event>
 4    1  0.5953944E+003  0.3040017E+02  0.7546771E-02  0.1416150E+00
          2   -1    0    0  501    0  0.00000000000E+00  0.00000000000E+00  0.55779606048E+03  0.55779606048E+03  0.00000000000E+00 0. -1.
         -2   -1    0    0    0  501 -0.00000000000E+00 -0.00000000000E+00 -0.12305353016E+03  0.12305353016E+03  0.00000000000E+00 0.  1.
          2    1    1    2  502    0 -0.22719908093E+02 -0.20198420775E+02  0.55549650953E+03  0.55632772943E+03  0.00000000000E+00 0. -1.
         -2    1    1    2    0  502  0.22719908093E+02  0.20198420775E+02 -0.12075397921E+03  0.12452186122E+03  0.00000000000E+00 0.  1.
</event>
<event>
 4    1  0.5953944E+003  0.3265726E+02  0.7546771E-02  0.1397826E+00
          2   -1    0    0  501    0  0.00000000000E+00  0.00000000000E+00  0.12474478696E+04  0.12474478696E+04  0.00000000000E+00 0. -1.
         -2   -1    0    0    0  501 -0.00000000000E+00 -0.00000000000E+00 -0.29946330397E+02  0.29946330397E+02  0.00000000000E+00 0.  1.
          2    1    1    2  502    0  0.20521755330E+02  0.25403817418E+02  0.12382647186E+04  0.12386952853E+04  0.00000000000E+00 0. -1.
         -2    1    1    2    0  502 -0.20521755330E+02 -0.25403817418E+02 -0.20763179417E+02  0.38698914723E+02  0.00000000000E+00 0.  1.
</event>
<event>
 4    1  0.5953944E+003  0.3231417E+02  0.7546771E-02  0.1400497E+00
          2   -1    0    0  501    0  0.00000000000E+00  0.00000000000E+00  0.74851739182E+03  0.74851739182E+03  0.00000000000E+00 0. -1.
         -2   -1    0    0    0  501 -0.00000000000E+00 -0.00000000000E+00 -0.30128491784E+01  0.30128491784E+01  0.00000000000E+00 0. -1.
          2    1    1    2  502    0 -0.22562340069E+02 -0.23133237174E+02  0.64810695375E+03  0.64891203514E+03  0.00000000000E+00 0. -1.
         -2    1    1    2    0  502  0.22562340069E+02  0.23133237174E+02  0.97397588890E+02  0.10261820586E+03  0.00000000000E+00 0. -1.
</event>
<event>
 4    1  0.5953944E+003  0.2018620E+02  0.7546771E-02  0.1531208E+00
          2   -1    0    0  501    0  0.00000000000E+00  0.00000000000E+00  0.14829927188E+02  0.14829927188E+02  0.00000000000E+00 0. -1.
         -2   -1    0    0    0  501 -0.00000000000E+00 -0.00000000000E+00 -0.13305092581E+04  0.13305092581E+04  0.00000000000E+00 0. -1.
          2    1    1    2  502    0  0.20076232254E+02 -0.21041400670E+01  0.78478663746E+01  0.21658058859E+02  0.00000000000E+00 0. -1.
         -2    1    1    2    0  502 -0.20076232254E+02  0.21041400670E+01 -0.13235271973E+04  0.13236811264E+04  0.00000000000E+00 0. -1.
</event>
<event>
 4    1  0.5953944E+003  0.2846216E+02  0.7546771E-02  0.1433449E+00
          2   -1    0    0  501    0  0.00000000000E+00  0.00000000000E+00  0.18083792946E+04  0.18083792946E+04  0.00000000000E+00 0.  1.
         -2   -1    0    0    0  501 -0.00000000000E+00 -0.00000000000E+00 -0.93739829870E+00  0.93739829870E+00  0.00000000000E+00 0.  1.
          2    1    1    2  502    0  0.19635570540E+02  0.20604336957E+02  0.15574057120E+04  0.15576657685E+04  0.00000000000E+00 0.  1.
         -2    1    1    2    0  502 -0.19635570540E+02 -0.20604336957E+02  0.25003618429E+03  0.25165092447E+03  0.00000000000E+00 0.  1.
</event>
<event>
 4    1  0.5953944E+003  0.4314738E+02  0.7546771E-02  0.1330968E+00
          2   -1    0    0  501    0  0.00000000000E+00  0.00000000000E+00  0.64893071188E+03  0.64893071188E+03  0.00000000000E+00 0. -1.
         -2   -1    0    0    0  501 -0.00000000000E+00 -0.00000000000E+00 -0.36387229571E+01  0.36387229571E+01  0.00000000000E+00 0. -1.
          2    1    1    2  502    0  0.40326470257E+02  0.15345095836E+02  0.47272739003E+03  0.47469240720E+03  0.00000000000E+00 0. -1.
         -2    1    1    2    0  502 -0.40326470257E+02 -0.15345095836E+02  0.17256459889E+03  0.17787702764E+03  0.00000000000E+00 0. -1.
</event>
<event>
 4    1  0.5953944E+003  0.2540982E+02  0.7546771E-02  0.1464271E+00
          2   -1    0    0  501    0  0.00000000000E+00  0.00000000000E+00  0.18759877848E+04  0.18759877848E+04  0.00000000000E+00 0.  1.
         -2   -1    0    0    0  501 -0.00000000000E+00 -0.00000000000E+00 -0.59996664627E+01  0.59996664627E+01  0.00000000000E+00 0.  1.
          2    1    1    2  502    0  0.19844452421E+02  0.15869991011E+02  0.18485992061E+04  0.18487738325E+04  0.00000000000E+00 0.  1.
         -2    1    1    2    0  502 -0.19844452421E+02 -0.15869991011E+02  0.21388912292E+02  0.33213618827E+02  0.00000000000E+00 0.  1.
</event>
<event>
 4    1  0.5953944E+003  0.2123115E+02  0.7546771E-02  0.1515990E+00
          2   -1    0    0  501    0  0.00000000000E+00  0.00000000000E+00  0.16452017768E+02  0.16452017768E+02  0.00000000000E+00 0. -1.
         -2   -1    0    0    0  501 -0.00000000000E+00 -0.00000000000E+00 -0.27920738319E+02  0.27920738319E+02  0.00000000000E+00 0. -1.
          2    1    1    2  502    0  0.17911519811E+02 -0.11399070688E+02 -0.87685202880E+01  0.22970596477E+02  0.00000000000E+00 0. -1.
         -2    1    1    2    0  502 -0.17911519811E+02  0.11399070688E+02 -0.27002002636E+01  0.21402159609E+02  0.00000000000E+00 0. -1.
</event>
<event>
 4    1  0.5953944E+003  0.2558945E+02  0.7546771E-02  0.1462316E+00
          2   -1    0    0  501    0  0.00000000000E+00  0.00000000000E+00  0.73176612889E+02  0.73176612889E+02  0.00000000000E+00 0. -1.
         -2   -1    0    0    0  501 -0.00000000000E+00 -0.00000000000E+00 -0.88777502876E+02  0.88777502876E+02  0.00000000000E+00 0. -1.
          2    1    1    2  502    0  0.15392407785E+02 -0.20442451385E+02  0.68987123599E+02  0.73580182512E+02  0.00000000000E+00 0. -1.
         -2    1    1    2    0  502 -0.15392407785E+02  0.20442451385E+02 -0.84588013586E+02  0.88373933253E+02  0.00000000000E+00 0. -1.
</event>
<event>
 4    1  0.5953944E+003  0.2039095E+02  0.7546771E-02  0.1528141E+00
          2   -1    0    0  501    0  0.00000000000E+00  0.00000000000E+00  0.11414926983E+04  0.11414926983E+04  0.00000000000E+00 0. -1.
         -2   -1    0    0    0  501 -0.00000000000E+00 -0.00000000000E+00 -0.91154200733E+00  0.91154200733E+00  0.00000000000E+00 0. -1.
          2    1    1    2  502    0 -0.28456930766E+01 -0.20191395837E+02  0.12769158440E+03  0.12930943957E+03  0.00000000000E+00 0. -1.
         -2    1    1    2    0  502  0.28456930766E+01  0.20191395837E+02  0.10128895719E+04  0.10130948008E+04  0.00000000000E+00 0. -1.
</event>
<event>
 4    1  0.5953944E+003  0.2500600E+02  0.7546771E-02  0.1468736E+00
          2   -1    0    0  501    0  0.00000000000E+00  0.00000000000E+00  0.95261285605E+03  0.95261285605E+03  0.00000000000E+00 0.  1.
         -2   -1    0    0    0  501 -0.00000000000E+00 -0.00000000000E+00 -0.80919162631E+00  0.80919162631E+00  0.00000000000E+00 0.  1.
          2    1    1    2  502    0  0.21360274453E+02 -0.13001485694E+02  0.68304566458E+03  0.68350324056E+03  0.00000000000E+00 0.  1.
         -2    1    1    2    0  502 -0.21360274453E+02  0.13001485694E+02  0.26875799984E+03  0.26991880712E+03  0.00000000000E+00 0.  1.
</event>
<event>
 4    1  0.5953944E+003  0.2169183E+02  0.7546771E-02  0.1509612E+00
          2   -1    0    0  501    0  0.00000000000E+00  0.00000000000E+00  0.34616306772E+02  0.34616306772E+02  0.00000000000E+00 0.  1.
         -2   -1    0    0    0  501 -0.00000000000E+00 -0.00000000000E+00 -0.38855647009E+02  0.38855647009E+02  0.00000000000E+00 0. -1.
          2    1    1    2  502    0 -0.10297849108E+02 -0.19091610997E+02  0.27501688792E+02  0.35026821053E+02  0.00000000000E+00 0.  1.
         -2    1    1    2    0  502  0.10297849108E+02  0.19091610997E+02 -0.31741029029E+02  0.38445132728E+02  0.00000000000E+00 0. -1.
</event>
<event>
 4    1  0.5953944E+003  0.2507304E+02  0.7546771E-02  0.1467988E+00
          2   -1    0    0  501    0  0.00000000000E+00  0.00000000000E+00  0.82936874651E+02  0.82936874651E+02  0.00000000000E+00 0. -1.
         -2   -1    0    0    0  501 -0.00000000000E+00 -0.00000000000E+00 -0.19385099986E+02  0.19385099986E+02  0.00000000000E+00 0.  1.
          2    1    1    2  502    0  0.23365247079E+02  0.90951938548E+01  0.71700495080E+02  0.75958003640E+02  0.00000000000E+00 0. -1.
         -2    1    1    2    0  502 -0.23365247079E+02 -0.90951938548E+01 -0.81487204150E+01  0.26363970997E+02  0.00000000000E+00 0.  1.
</event>
<event>
 4    1  0.5953944E+003  0.4646948E+02  0.7546771E-02  0.1314251E+00
          2   -1    0    0  501    0  0.00000000000E+00  0.00000000000E+00  0.52759848764E+03  0.52759848764E+03  0.00000000000E+00 0. -1.
         -2   -1    0    0    0  501 -0.00000000000E+00 -0.00000000000E+00 -0.98248156955E+01  0.98248156955E+01  0.00000000000E+00 0. -1.
          2    1    1    2  502    0 -0.11676460585E+02  0.44978584183E+02  0.46413242687E+03  0.46645291557E+03  0.00000000000E+00 0. -1.
         -2    1    1    2    0  502  0.11676460585E+02 -0.44978584183E+02  0.53641245068E+02  0.70970387764E+02  0.00000000000E+00 0. -1.
</event>
<event>
 4    1  0.5953944E+003  0.3313227E+02  0.7546771E-02  0.1394192E+00
          2   -1    0    0  501    0  0.00000000000E+00  0.00000000000E+00  0.80967982254E+03  0.80967982254E+03  0.00000000000E+00 0.  1.
         -2   -1    0    0    0  501 -0.00000000000E+00 -0.00000000000E+00 -0.73197399683E+01  0.73197399683E+01  0.00000000000E+00 0.  1.
          2    1    1    2  502    0 -0.27680212716E+02  0.18208594071E+02  0.76991251773E+03  0.77062509175E+03  0.00000000000E+00 0.  1.
         -2    1    1    2    0  502  0.27680212716E+02 -0.18208594071E+02  0.32447564838E+02  0.46374470756E+02  0.00000000000E+00 0.  1.
</event>
<event>
 4    1  0.5953944E+003  0.2426722E+02  0.7546771E-02  0.1477170E+00
          2   -1    0    0  501    0  0.00000000000E+00  0.00000000000E+00  0.14044880074E+03  0.14044880074E+03  0.00000000000E+00 0. -1.
         -2   -1    0    0    0  501 -0.00000000000E+00 -0.00000000000E+00 -0.59330860968E+01  0.59330860968E+01  0.00000000000E+00 0. -1.
          2    1    1    2  502    0 -0.14836397800E+02  0.19203631403E+02  0.10689530144E+03  0.10961525272E+03  0.00000000000E+00 0. -1.
         -2    1    1    2    0  502  0.14836397800E+02 -0.19203631403E+02  0.27620413197E+02  0.36766634111E+02  0.00000000000E+00 0. -1.
</event>
<event>
 4    1  0.5953944E+003  0.2338303E+02  0.7546771E-02  0.1487744E+00
          2   -1    0    0  501    0  0.00000000000E+00  0.00000000000E+00  0.15991479806E+04  0.15991479806E+04  0.00000000000E+00 0.  1.
         -2   -1    0    0    0  501 -0.00000000000E+00 -0.00000000000E+00 -0.82790377891E+01  0.82790377891E+01  0.00000000000E+00 0. -1.
          2    1    1    2  502    0 -0.22256800867E+02  0.71694473977E+01  0.15823769645E+04  0.15825497224E+04  0.00000000000E+00 0.  1.
         -2    1    1    2    0  502  0.22256800867E+02 -0.71694473977E+01  0.84919783681E+01  0.24877296023E+02  0.00000000000E+00 0. -1.
</event>
<event>
 4    1  0.5953944E+003  0.3421662E+02  0.7546771E-02  0.1386156E+00
          2   -1    0    0  501    0  0.00000000000E+00  0.00000000000E+00  0.88972392319E+03  0.88972392319E+03  0.00000000000E+00 0.  1.
         -2   -1    0    0    0  501 -0.00000000000E+00 -0.00000000000E+00 -0.15176444885E+02  0.15176444885E+02  0.00000000000E+00 0.  1.
          2    1    1    2  502    0  0.32858504518E+02  0.95444130079E+01  0.86966417848E+03  0.87033703843E+03  0.00000000000E+00 0.  1.
         -2    1    1    2    0  502 -0.32858504518E+02 -0.95444130079E+01  0.48832998275E+01  0.34563329643E+02  0.00000000000E+00 0.  1.
</event>
<event>
 4    1  0.5953944E+003  0.2312477E+02  0.7546771E-02  0.1490937E+00
          2   -1    0    0  501    0  0.00000000000E+00  0.00000000000E+00  0.95128203795E+03  0.95128203795E+03  0.00000000000E+00 0. -1.
         -2   -1    0    0    0  501 -0.00000000000E+00 -0.00000000000E+00 -0.31621426234E+01  0.31621426234E+01  0.00000000000E+00 0. -1.
          2    1    1    2  502    0 -0.23100987783E+02 -0.10484324104E+01  0.90678954702E+03  0.90708436070E+03  0.00000000000E+00 0. -1.
         -2    1    1    2    0  502  0.23100987783E+02  0.10484324104E+01  0.41330348309E+02  0.47359819873E+02  0.00000000000E+00 0. -1.
</event>
<event>
 4    1  0.5953944E+003  0.2155676E+02  0.7546771E-02  0.1511462E+00
          2   -1    0    0  501    0  0.00000000000E+00  0.00000000000E+00  0.10013597797E+04  0.10013597797E+04  0.00000000000E+00 0. -1.
         -2   -1    0    0    0  501 -0.00000000000E+00 -0.00000000000E+00 -0.68023491986E+00  0.68023491986E+00  0.00000000000E+00 0. -1.
          2    1    1    2  502    0 -0.19458837411E+02  0.92761889235E+01  0.78277914400E+03  0.78307591095E+03  0.00000000000E+00 0. -1.
         -2    1    1    2    0  502  0.19458837411E+02 -0.92761889235E+01  0.21790040082E+03  0.21896410371E+03  0.00000000000E+00 0. -1.
</event>
<event>
 4    1  0.5953944E+003  0.2948373E+02  0.7546771E-02  0.1424137E+00
          2   -1    0    0  501    0  0.00000000000E+00  0.00000000000E+00  0.58154801380E+01  0.58154801380E+01  0.00000000000E+00 0.  1.
         -2   -1    0    0    0  501 -0.00000000000E+00 -0.00000000000E+00 -0.57539833950E+03  0.57539833950E+03  0.00000000000E+00 0.  1.
          2    1    1    2  502    0  0.29479332674E+02 -0.50944387457E+00 -0.34765269118E+02  0.45584147736E+02  0.00000000000E+00 0.  1.
         -2    1    1    2    0  502 -0.29479332674E+02  0.50944387457E+00 -0.53481759024E+03  0.53562967190E+03  0.00000000000E+00 0.  1.
</event>
<event>
 4    1  0.5953944E+003  0.3022309E+02  0.7546771E-02  0.1417667E+00
          2   -1    0    0  501    0  0.00000000000E+00  0.00000000000E+00  0.68446742838E+00  0.68446742838E+00  0.00000000000E+00 0. -1.
         -2   -1    0    0    0  501 -0.00000000000E+00 -0.00000000000E+00 -0.14362372974E+04  0.14362372974E+04  0.00000000000E+00 0. -1.
          2    1    1    2  502    0  0.28584363336E+02 -0.98168031399E+01 -0.52657658581E+03  0.52744320659E+03  0.00000000000E+00 0. -1.
         -2    1    1    2    0  502 -0.28584363336E+02  0.98168031399E+01 -0.90897624420E+03  0.90947855828E+03  0.00000000000E+00 0. -1.
</event>
<event>
 4    1  0.5953944E+003  0.2287945E+02  0.7546771E-02  0.1494017E+00
          2   -1    0    0  501    0  0.00000000000E+00  0.00000000000E+00  0.35956125724E+03  0.35956125724E+03  0.00000000000E+00 0. -1.
         -2   -1    0    0    0  501 -0.00000000000E+00 -0.00000000000E+00 -0.12454650589E+02  0.12454650589E+02  0.00000000000E+00 0.  1.
          2    1    1    2  502    0 -0.15297466282E+02 -0.17013426325E+02  0.34835204489E+03  0.34910258711E+03  0.00000000000E+00 0. -1.
         -2    1    1    2    0  502  0.15297466282E+02  0.17013426325E+02 -0.12454382356E+01  0.22913320719E+02  0.00000000000E+00 0.  1.
</event>
<event>
 4    1  0.5953944E+003  0.3345885E+02  0.7546771E-02  0.1391734E+00
          2   -1    0    0  501    0  0.00000000000E+00  0.00000000000E+00  0.11431383674E+03  0.11431383674E+03  0.00000000000E+00 0. -1.
         -2   -1    0    0    0  501 -0.00000000000E+00 -0.00000000000E+00 -0.13650974799E+02  0.13650974799E+02  0.00000000000E+00 0.  1.
          2    1    1    2  502    0 -0.28844250566E+02  0.16955939549E+02  0.84344744045E+02  0.90738803853E+02  0.00000000000E+00 0. -1.
         -2    1    1    2    0  502  0.28844250566E+02 -0.16955939549E+02  0.16318117900E+02  0.37226007690E+02  0.00000000000E+00 0.  1.
</event>
<event>
 4    1  0.5953944E+003  0.2778898E+02  0.7546771E-02  0.1439840E+00
          2   -1    0    0  501    0  0.00000000000E+00  0.00000000000E+00  0.50441036780E+03  0.50441036780E+03  0.00000000000E+00 0. -1.
         -2   -1    0    0    0  501 -0.00000000000E+00 -0.00000000000E+00 -0.16503199875E+02  0.16503199875E+02  0.00000000000E+00 0. -1.
          2    1    1    2  502    0  0.24395634887E+02 -0.13307152626E+02  0.49203550688E+03  0.49281960933E+03  0.00000000000E+00 0. -1.
         -2    1    1    2    0  502 -0.24395634887E+02  0.13307152626E+02 -0.41283389593E+01  0.28093958338E+02  0.00000000000E+00 0. -1.
</event>
<event>
 4    1  0.5953944E+003  0.4362202E+02  0.7546771E-02  0.1328475E+00
          2   -1    0    0  501    0  0.00000000000E+00  0.00000000000E+00  0.29885109543E+02  0.29885109543E+02  0.00000000000E+00 0.  1.
         -2   -1    0    0    0  501 -0.00000000000E+00 -0.00000000000E+00 -0.27336232709E+03  0.27336232709E+03  0.00000000000E+00 0.  1.
          2    1    1    2  502    0  0.21104015372E+02  0.38177238770E+02  0.11057622799E+02  0.45001689378E+02  0.00000000000E+00 0.  1.
         -2    1    1    2    0  502 -0.21104015372E+02 -0.38177238770E+02 -0.25453484035E+03  0.25824574725E+03  0.00000000000E+00 0.  1.
</event>
<event>
 4    1  0.5953944E+003  0.2979696E+02  0.7546771E-02  0.1421369E+00
          2   -1    0    0  501    0  0.00000000000E+00  0.00000000000E+00  0.13765944236E+04  0.13765944236E+04  0.00000000000E+00 0.  1.
         -2   -1    0    0    0  501 -0.00000000000E+00 -0.00000000000E+00 -0.49224543453E+02  0.49224543453E+02  0.00000000000E+00 0. -1.
          2    1    1    2  502    0  0.47247209902E+01  0.29419989643E+02  0.13719085537E+04  0.13722321008E+04  0.00000000000E+00 0.  1.
         -2    1    1    2    0  502 -0.47247209902E+01 -0.29419989643E+02 -0.44538673618E+02  0.53586866177E+02  0.00000000000E+00 0. -1.
</event>
<event>
 4    1  0.5953944E+003  0.2924934E+02  0.7546771E-02  0.1426234E+00
          2   -1    0    0  501    0  0.00000000000E+00  0.00000000000E+00  0.96378213180E+01  0.96378213180E+01  0.00000000000E+00 0.  1.
         -2   -1    0    0    0  501 -0.00000000000E+00 -0.00000000000E+00 -0.31803345366E+03  0.31803345366E+03  0.00000000000E+00 0.  1.
          2    1    1    2  502    0  0.32961427916E+01  0.29063021806E+02 -0.15093084106E+02  0.32913902559E+02  0.00000000000E+00 0.  1.
         -2    1    1    2    0  502 -0.32961427916E+01 -0.29063021806E+02 -0.29330254824E+03  0.29475737242E+03  0.00000000000E+00 0.  1.
</event>
<event>
 4    1  0.5953944E+003  0.3159509E+02  0.7546771E-02  0.1406224E+00
          2   -1    0    0  501    0  0.00000000000E+00  0.00000000000E+00  0.53655588424E+03  0.53655588424E+03  0.00000000000E+00 0.  1.
         -2   -1    0    0    0  501 -0.00000000000E+00 -0.00000000000E+00 -0.11326633983E+02  0.11326633983E+02  0.00000000000E+00 0. -1.
          2    1    1    2  502    0 -0.20953510368E+02 -0.23647410208E+02  0.51304896361E+03  0.51402090295E+03  0.00000000000E+00 0.  1.
         -2    1    1    2    0  502  0.20953510368E+02  0.23647410208E+02  0.12180286647E+02  0.33861615276E+02  0.00000000000E+00 0. -1.
</event>
<event>
 4    1  0.5953944E+003  0.2226924E+02  0.7546771E-02  0.1501884E+00
          2   -1    0    0  501    0  0.00000000000E+00  0.00000000000E+00  0.14774211330E+04  0.14774211330E+04  0.00000000000E+00 0.  1.
         -2   -1    0    0    0  501 -0.00000000000E+00 -0.00000000000E+00 -0.66822645859E+02  0.66822645859E+02  0.00000000000E+00 0. -1.
          2    1    1    2  502    0  0.84115861803E+01 -0.20619513172E+02  0.14754794195E+04  0.14756474634E+04  0.00000000000E+00 0.  1.
         -2    1    1    2    0  502 -0.84115861803E+01  0.20619513172E+02 -0.64880932338E+02  0.68596315401E+02  0.00000000000E+00 0. -1.
</event>
<event>
 4    1  0.5953944E+003  0.2259111E+02  0.7546771E-02  0.1497697E+00
          2   -1    0    0  501    0  0.00000000000E+00  0.00000000000E+00  0.56264652394E+03  0.56264652394E+03  0.00000000000E+00 0.  1.
         -2   -1    0    0    0  501 -0.00000000000E+00 -0.00000000000E+00 -0.90731238664E+00  0.90731238664E+00  0.00000000000E+00 0.  1.
          2    1    1    2  502    0  0.20115669027E+02  0.10281912541E+02  0.27623180892E+03  0.27715405486E+03  0.00000000000E+00 0.  1.
         -2    1    1    2    0  502 -0.20115669027E+02 -0.10281912541E+02  0.28550740263E+03  0.28639978147E+03  0.00000000000E+00 0.  1.
</event>
<event>
 4    1  0.5953944E+003  0.2142619E+02  0.7546771E-02  0.1513266E+00
          2   -1    0    0  501    0  0.00000000000E+00  0.00000000000E+00  0.71113463371E+02  0.71113463371E+02  0.00000000000E+00 0.  1.
         -2   -1    0    0    0  501 -0.00000000000E+00 -0.00000000000E+00 -0.31954139714E+02  0.31954139714E+02  0.00000000000E+00 0. -1.
          2    1    1    2  502    0  0.16181540243E+02 -0.14044188477E+02  0.65614445088E+02  0.69024176046E+02  0.00000000000E+00 0.  1.
         -2    1    1    2    0  502 -0.16181540243E+02  0.14044188477E+02 -0.26455121431E+02  0.34043427039E+02  0.00000000000E+00 0. -1.
</event>
<event>
 4    1  0.5953944E+003  0.2098989E+02  0.7546771E-02  0.1519409E+00
          2   -1    0    0  501    0  0.00000000000E+00  0.00000000000E+00  0.11587139987E+03  0.11587139987E+03  0.00000000000E+00 0.  1.
         -2   -1    0    0    0  501 -0.00000000000E+00 -0.00000000000E+00 -0.24406321966E+02  0.24406321966E+02  0.00000000000E+00 0. -1.
          2    1    1    2  502    0  0.67376366706E+01 -0.19879126173E+02  0.11017672792E+03  0.11215831125E+03  0.00000000000E+00 0.  1.
         -2    1    1    2    0  502 -0.67376366706E+01  0.19879126173E+02 -0.18711650022E+02  0.28119410588E+02  0.00000000000E+00 0. -1.
</event>
<event>
 4    1  0.5953944E+003  0.3242401E+02  0.7546771E-02  0.1399638E+00
          2   -1    0    0  501    0  0.00000000000E+00  0.00000000000E+00  0.53281403774E+03  0.53281403774E+03  0.00000000000E+00 0. -1.
         -2   -1    0    0    0  501 -0.00000000000E+00 -0.00000000000E+00 -0.44727276836E+01  0.44727276836E+01  0.00000000000E+00 0. -1.
          2    1    1    2  502    0  0.31934558233E+02  0.56125291037E+01  0.46499859755E+03  0.46612767802E+03  0.00000000000E+00 0. -1.
         -2    1    1    2    0  502 -0.31934558233E+02 -0.56125291037E+01  0.63342712505E+02  0.71159087403E+02  0.00000000000E+00 0. -1.
</event>
<event>
 4    1  0.5953944E+003  0.5149422E+02  0.7546771E-02  0.1291821E+00
          2   -1    0    0  501    0  0.00000000000E+00  0.00000000000E+00  0.39646969038E+03  0.39646969038E+03  0.00000000000E+00 0.  1.
         -2   -1    0    0    0  501 -0.00000000000E+00 -0.00000000000E+00 -0.74001929224E+01  0.74001929224E+01  0.00000000000E+00 0. -1.
          2    1    1    2  502    0  0.30738993951E+02 -0.41313031077E+02  0.13189639616E+03  0.14159206053E+03  0.00000000000E+00 0. -1.
         -2    1    1    2    0  502 -0.30738993951E+02  0.41313031077E+02  0.25717310129E+03  0.26227782276E+03  0.00000000000E+00 0.  1.
</event>
<event>
 4    1  0.5953944E+003  0.3560057E+02  0.7546771E-02  0.1376389E+00
          2   -1    0    0  501    0  0.00000000000E+00  0.00000000000E+00  0.98544577725E+03  0.98544577725E+03  0.00000000000E+00 0.  1.
         -2   -1    0    0    0  501 -0.00000000000E+00 -0.00000000000E+00 -0.16174021966E+01  0.16174021966E+01  0.00000000000E+00 0. -1.
          2    1    1    2  502    0 -0.31140934093E+02 -0.17252336166E+02  0.71527419649E+03  0.71615960305E+03  0.00000000000E+00 0.  1.
         -2    1    1    2    0  502  0.31140934093E+02  0.17252336166E+02  0.26855417856E+03  0.27090357639E+03  0.00000000000E+00 0. -1.
</event>
<event>
 4    1  0.5953944E+003  0.4111311E+02  0.7546771E-02  0.1342084E+00
          2   -1    0    0  501    0  0.00000000000E+00  0.00000000000E+00  0.33128256749E+03  0.33128256749E+03  0.00000000000E+00 0.  1.
         -2   -1    0    0    0  501 -0.00000000000E+00 -0.00000000000E+00 -0.96485252533E+01  0.96485252533E+01  0.00000000000E+00 0. -1.
          2    1    1    2  502    0 -0.12761634747E+02 -0.39082328386E+02  0.27782994494E+03  0.28085541835E+03  0.00000000000E+00 0.  1.
         -2    1    1    2    0  502  0.12761634747E+02  0.39082328386E+02  0.43804097303E+02  0.60075674395E+02  0.00000000000E+00 0. -1.
</event>
<event>
 4    1  0.5953944E+003  0.2881516E+02  0.7546771E-02  0.1430180E+00
          2   -1    0    0  501    0  0.00000000000E+00  0.00000000000E+00  0.19617894894E+04  0.19617894894E+04  0.00000000000E+00 0. -1.
         -2   -1    0    0    0  501 -0.00000000000E+00 -0.00000000000E+00 -0.51138334604E+00  0.51138334604E+00  0.00000000000E+00 0. -1.
          2    1    1    2  502    0  0.12215228099E+02 -0.26097922101E+02  0.13879725310E+04  0.13882716089E+04  0.00000000000E+00 0. -1.
         -2    1    1    2    0  502 -0.12215228099E+02  0.26097922101E+02  0.57330557506E+03  0.57402926383E+03  0.00000000000E+00 0. -1.
</event>
<event>
 4    1  0.5953944E+003  0.3254860E+02  0.7546771E-02  0.1398668E+00
          2   -1    0    0  501    0  0.00000000000E+00  0.00000000000E+00  0.36029188151E+02  0.36029188151E+02  0.00000000000E+00 0. -1.
         -2   -1    0    0    0  501 -0.00000000000E+00 -0.00000000000E+00 -0.95172059748E+02  0.95172059748E+02  0.00000000000E+00 0. -1.
          2    1    1    2  502    0 -0.25938785927E+02 -0.19661915938E+02  0.24961627985E+02  0.41018220651E+02  0.00000000000E+00 0. -1.
         -2    1    1    2    0  502  0.25938785927E+02  0.19661915938E+02 -0.84104499582E+02  0.90183027248E+02  0.00000000000E+00 0. -1.
</event>
<event>
 4    1  0.5953944E+003  0.2104591E+02  0.7546771E-02  0.1518610E+00
          2   -1    0    0  501    0  0.00000000000E+00  0.00000000000E+00  0.20959817559E+03  0.20959817559E+03  0.00000000000E+00 0.  1.
         -2   -1    0    0    0  501 -0.00000000000E+00 -0.00000000000E+00 -0.10371191650E+03  0.10371191650E+03  0.00000000000E+00 0.  1.
          2    1    1    2  502    0 -0.52905835921E+01  0.20370082400E+02  0.20799395808E+03  0.20905601434E+03  0.00000000000E+00 0.  1.
         -2    1    1    2    0  502  0.52905835921E+01 -0.20370082400E+02 -0.10210769900E+03  0.10425407775E+03  0.00000000000E+00 0.  1.
</event>
<event>
 4    1  0.5953944E+003  0.2176153E+02  0.7546771E-02  0.1508664E+00
          2   -1    0    0  501    0  0.00000000000E+00  0.00000000000E+00  0.58485617045E+02  0.58485617045E+02  0.00000000000E+00 0. -1.
         -2   -1    0    0    0  501 -0.00000000000E+00 -0.00000000000E+00 -0.32913978517E+02  0.32913978517E+02  0.00000000000E+00 0. -1.
          2    1    1    2  502    0  0.16984059372E+02 -0.13605359351E+02  0.52468192466E+02  0.56802071234E+02  0.00000000000E+00 0. -1.
         -2    1    1    2    0  502 -0.16984059372E+02  0.13605359351E+02 -0.26896553939E+02  0.34597524328E+02  0.00000000000E+00 0. -1.
</event>
<event>
 4    1  0.5953944E+003  0.3707802E+02  0.7546771E-02  0.1366515E+00
          2   -1    0    0  501    0  0.00000000000E+00  0.00000000000E+00  0.78517270994E+03  0.78517270994E+03  0.00000000000E+00 0.  1.
         -2   -1    0    0    0  501 -0.00000000000E+00 -0.00000000000E+00 -0.37146559242E+01  0.37146559242E+01  0.00000000000E+00 0. -1.
          2    1    1    2  502    0 -0.21617650125E+02  0.30124027426E+02  0.67752068560E+03  0.67853449378E+03  0.00000000000E+00 0.  1.
         -2    1    1    2    0  502  0.21617650125E+02 -0.30124027426E+02  0.10393736841E+03  0.11035287209E+03  0.00000000000E+00 0. -1.
</event>
<event>
 4    1  0.5953944E+003  0.2045707E+02  0.7546771E-02  0.1527159E+00
          2   -1    0    0  501    0  0.00000000000E+00  0.00000000000E+00  0.30699671848E+03  0.30699671848E+03  0.00000000000E+00 0.  1.
         -2   -1    0    0    0  501 -0.00000000000E+00 -0.00000000000E+00 -0.19177111737E+02  0.19177111737E+02  0.00000000000E+00 0.  1.
          2    1    1    2  502    0  0.10951262802E+02 -0.17278939665E+02  0.30109346639E+03  0.30178761971E+03  0.00000000000E+00 0.  1.
         -2    1    1    2    0  502 -0.10951262802E+02  0.17278939665E+02 -0.13273859642E+02  0.24386210503E+02  0.00000000000E+00 0.  1.
</event>
<event>
 4    1  0.5953944E+003  0.2427924E+02  0.7546771E-02  0.1477030E+00
          2   -1    0    0  501    0  0.00000000000E+00  0.00000000000E+00  0.57011537570E+02  0.57011537570E+02  0.00000000000E+00 0. -1.
         -2   -1    0    0    0  501 -0.00000000000E+00 -0.00000000000E+00 -0.12358416266E+03  0.12358416266E+03  0.00000000000E+00 0. -1.
          2    1    1    2  502    0  0.18980131825E+01  0.24204937940E+02  0.53151648247E+02  0.58434400708E+02  0.00000000000E+00 0. -1.
         -2    1    1    2    0  502 -0.18980131825E+01 -0.24204937940E+02 -0.11972427334E+03  0.12216129953E+03  0.00000000000E+00 0. -1.
</event>
<event>
 4    1  0.5953944E+003  0.2235097E+02  0.7546771E-02  0.1500813E+00
          2   -1    0    0  501    0  0.00000000000E+00  0.00000000000E+00  0.34259602783E+01  0.34259602783E+01  0.00000000000E+00 0. -1.
         -2   -1    0    0    0  501 -0.00000000000E+00 -0.00000000000E+00 -0.64622563038E+03  0.64622563038E+03  0.00000000000E+00 0. -1.
          2    1    1    2  502    0 -0.21980792906E+02 -0.40510094393E+01 -0.35561497942E+02  0.42002215062E+02  0.00000000000E+00 0. -1.
         -2    1    1    2    0  502  0.21980792906E+02  0.40510094393E+01 -0.60723817216E+03  0.60764937559E+03  0.00000000000E+00 0. -1.
</event>
<event>
 4    1  0.5953944E+003  0.2147931E+02  0.7546771E-02  0.1512530E+00
          2   -1    0    0  501    0  0.00000000000E+00  0.00000000000E+00  0.79446636423E+02  0.79446636423E+02  0.00000000000E+00 0. -1.
         -2   -1    0    0    0  501 -0.00000000000E+00 -0.00000000000E+00 -0.65251425962E+01  0.65251425962E+01  0.00000000000E+00 0. -1.
          2    1    1    2  502    0 -0.17122181044E+02  0.12968869117E+02  0.50719542577E+02  0.55080238281E+02  0.00000000000E+00 0. -1.
         -2    1    1    2    0  502  0.17122181044E+02 -0.12968869117E+02  0.22201951250E+02  0.30891540738E+02  0.00000000000E+00 0. -1.
</event>
<event>
 4    1  0.5953944E+003  0.3349138E+02  0.7546771E-02  0.1391491E+00
          2   -1    0    0  501    0  0.00000000000E+00  0.00000000000E+00  0.20027521808E+03  0.20027521808E+03  0.00000000000E+00 0. -1.
         -2   -1    0    0    0  501 -0.00000000000E+00 -0.00000000000E+00 -0.66650938980E+01  0.66650938980E+01  0.00000000000E+00 0. -1.
          2    1    1    2  502    0  0.31036739880E+02 -0.12585438854E+02  0.13815475060E+03  0.14215627882E+03  0.00000000000E+00 0. -1.
         -2    1    1    2    0  502 -0.31036739880E+02  0.12585438854E+02  0.55455373580E+02  0.64784033159E+02  0.00000000000E+00 0. -1.
</event>
<event>
 4    1  0.5953944E+003  0.2574235E+02  0.7546771E-02  0.1460667E+00
          2   -1    0    0  501    0  0.00000000000E+00  0.00000000000E+00  0.11321008524E+03  0.11321008524E+03  0.00000000000E+00 0.  1.
         -2   -1    0    0    0  501 -0.00000000000E+00 -0.00000000000E+00 -0.91673608077E+01  0.91673608077E+01  0.00000000000E+00 0. -1.
          2    1    1    2  502    0 -0.25687215014E+02  0.16839443910E+01  0.88810545797E+02  0.92466111245E+02  0.00000000000E+00 0.  1.
         -2    1    1    2    0  502  0.25687215014E+02 -0.16839443910E+01  0.15232178640E+02  0.29911334808E+02  0.00000000000E+00 0. -1.
</event>
<event>
 4    1  0.5953944E+003  0.5078218E+02  0.7546771E-02  0.1294816E+00
          2   -1    0    0  501    0  0.00000000000E+00  0.00000000000E+00  0.38872143686E+04  0.38872143686E+04  0.00000000000E+00 0.  1.
         -2   -1    0    0    0  501 -0.00000000000E+00 -0.00000000000E+00 -0.18100683328E+01  0.18100683328E+01  0.00000000000E+00 0.  1.
          2    1    1    2  502    0  0.36073251987E+02 -0.35742830939E+02  0.34903765310E+04  0.34907459314E+04  0.00000000000E+00 0.  1.
         -2    1    1    2    0  502 -0.36073251987E+02  0.35742830939E+02  0.39502776927E+03  0.39827850553E+03  0.00000000000E+00 0.  1.
</event>
<event>
 4    1  0.5953944E+003  0.2265388E+02  0.7546771E-02  0.1496891E+00
          2   -1    0    0  501    0  0.00000000000E+00  0.00000000000E+00  0.26846124805E+04  0.26846124805E+04  0.00000000000E+00 0.  1.
         -2   -1    0    0    0  501 -0.00000000000E+00 -0.00000000000E+00 -0.19117047842E+00  0.19117047842E+00  0.00000000000E+00 0. -1.
          2    1    1    2  502    0  0.17049030745E+02  0.14917402637E+02  0.13506536202E+04  0.13508435883E+04  0.00000000000E+00 0.  1.
         -2    1    1    2    0  502 -0.17049030745E+02 -0.14917402637E+02  0.13337676899E+04  0.13339600627E+04  0.00000000000E+00 0. -1.
</event>
<event>
 4    1  0.5953944E+003  0.2445287E+02  0.7546771E-02  0.1475018E+00
          2   -1    0    0  501    0  0.00000000000E+00  0.00000000000E+00  0.16241972538E+04  0.16241972538E+04  0.00000000000E+00 0.  1.
         -2   -1    0    0    0  501 -0.00000000000E+00 -0.00000000000E+00 -0.28283057262E+02  0.28283057262E+02  0.00000000000E+00 0.  1.
          2    1    1    2  502    0  0.24430291134E+02  0.10505676076E+01  0.16188022590E+04  0.16189869353E+04  0.00000000000E+00 0.  1.
         -2    1    1    2    0  502 -0.24430291134E+02 -0.10505676076E+01 -0.22888062478E+02  0.33493375781E+02  0.00000000000E+00 0.  1.
</event>
<event>
 4    1  0.5953944E+003  0.3679904E+02  0.7546771E-02  0.1368338E+00
          2   -1    0    0  501    0  0.00000000000E+00  0.00000000000E+00  0.14456949977E+04  0.14456949977E+04  0.00000000000E+00 0. -1.
         -2   -1    0    0    0  501 -0.00000000000E+00 -0.00000000000E+00 -0.95226537876E+00  0.95226537876E+00  0.00000000000E+00 0. -1.
          2    1    1    2  502    0  0.25842729796E+02  0.26197754013E+02  0.81487606454E+03  0.81570654623E+03  0.00000000000E+00 0. -1.
         -2    1    1    2    0  502 -0.25842729796E+02 -0.26197754013E+02  0.62986666779E+03  0.63094071686E+03  0.00000000000E+00 0. -1.
</event>
<event>
 4    1  0.5953944E+003  0.3044059E+02  0.7546771E-02  0.1415806E+00
          2   -1    0    0  501    0  0.00000000000E+00  0.00000000000E+00  0.14645014939E+03  0.14645014939E+03  0.00000000000E+00 0. -1.
         -2   -1    0    0    0  501 -0.00000000000E+00 -0.00000000000E+00 -0.11068134420E+03  0.11068134420E+03  0.00000000000E+00 0.  1.
          2    1    1    2  502    0  0.65488166026E+01 -0.29727811306E+02  0.14272124273E+03  0.14593143216E+03  0.00000000000E+00 0. -1.
         -2    1    1    2    0  502 -0.65488166026E+01  0.29727811306E+02 -0.10695243754E+03  0.11120006142E+03  0.00000000000E+00 0.  1.
</event>
<event>
 4    1  0.5953944E+003  0.3292643E+02  0.7546771E-02  0.1395758E+00
          2   -1    0    0  501    0  0.00000000000E+00  0.00000000000E+00  0.86587053357E+03  0.86587053357E+03  0.00000000000E+00 0.  1.
         -2   -1    0    0    0  501 -0.00000000000E+00 -0.00000000000E+00 -0.91776246050E+01  0.91776246050E+01  0.00000000000E+00 0. -1.
          2    1    1    2  502    0  0.60620897632E+01 -0.32363571106E+02  0.83493116199E+03  0.83558015470E+03  0.00000000000E+00 0.  1.
         -2    1    1    2    0  502 -0.60620897632E+01  0.32363571106E+02  0.21761746980E+02  0.39468003480E+02  0.00000000000E+00 0. -1.
</event>
<event>
 4    1  0.5953944E+003  0.3099539E+02  0.7546771E-02  0.1411139E+00
          2   -1    0    0  501    0  0.00000000000E+00  0.00000000000E+00  0.83408002480E+03  0.83408002480E+03  0.00000000000E+00 0.  1.
         -2   -1    0    0    0  501 -0.00000000000E+00 -0.00000000000E+00 -0.11638617818E+02  0.11638617818E+02  0.00000000000E+00 0. -1.
          2    1    1    2  502    0 -0.26407979207E+02  0.16227527066E+02  0.81261070883E+03  0.81320162205E+03  0.00000000000E+00 0.  1.
         -2    1    1    2    0  502  0.26407979207E+02 -0.16227527066E+02  0.98306981535E+01  0.32517020568E+02  0.00000000000E+00 0. -1.
</event>
<event>
 4    1  0.5953944E+003  0.2855472E+02  0.7546771E-02  0.1432586E+00
          2   -1    0    0  501    0  0.00000000000E+00  0.00000000000E+00  0.11820578537E+04  0.11820578537E+04  0.00000000000E+00 0. -1.
         -2   -1    0    0    0  501 -0.00000000000E+00 -0.00000000000E+00 -0.57064228132E+02  0.57064228132E+02  0.00000000000E+00 0. -1.
          2    1    1    2  502    0 -0.16557276142E+02 -0.23264317517E+02  0.11783018539E+04  0.11786477976E+04  0.00000000000E+00 0. -1.
         -2    1    1    2    0  502  0.16557276142E+02  0.23264317517E+02 -0.53308228261E+02  0.60474284312E+02  0.00000000000E+00 0. -1.
</event>
<event>
 4    1  0.5953944E+003  0.2179073E+02  0.7546771E-02  0.1508268E+00
          2   -1    0    0  501    0  0.00000000000E+00  0.00000000000E+00  0.66062575362E+03  0.66062575362E+03  0.00000000000E+00 0.  1.
         -2   -1    0    0    0  501 -0.00000000000E+00 -0.00000000000E+00 -0.21605169300E+01  0.21605169300E+01  0.00000000000E+00 0. -1.
          2    1    1    2  502    0 -0.62117601272E+01  0.20886601076E+02  0.59994593697E+03  0.60034153893E+03  0.00000000000E+00 0.  1.
         -2    1    1    2    0  502  0.62117601272E+01 -0.20886601076E+02  0.58519299720E+02  0.62444731628E+02  0.00000000000E+00 0. -1.
</event>
<event>
 4    1  0.5953944E+003  0.7252659E+02  0.7546771E-02  0.1222348E+00
          2   -1    0    0  501    0  0.00000000000E+00  0.00000000000E+00  0.75687458704E+03  0.75687458704E+03  0.00000000000E+00 0. -1.
         -2   -1    0    0    0  501 -0.00000000000E+00 -0.00000000000E+00 -0.77665593552E+02  0.77665593552E+02  0.00000000000E+00 0.  1.
          2    1    1    2  502    0  0.44567070644E+02 -0.57217853868E+02  0.73776778598E+03  0.74132409418E+03  0.00000000000E+00 0. -1.
         -2    1    1    2    0  502 -0.44567070644E+02  0.57217853868E+02 -0.58558792492E+02  0.93216086408E+02  0.00000000000E+00 0.  1.
</event>
<event>
 4    1  0.5953944E+003  0.2150623E+02  0.7546771E-02  0.1512158E+00
          2   -1    0    0  501    0  0.00000000000E+00  0.00000000000E+00  0.49545301980E+02  0.49545301980E+02  0.00000000000E+00 0. -1.
         -2   -1    0    0    0  501 -0.00000000000E+00 -0.00000000000E+00 -0.30270200194E+03  0.30270200194E+03  0.00000000000E+00 0. -1.
          2    1    1    2  502    0 -0.19549208520E+02 -0.89636191617E+01  0.46808229123E+02  0.51512409533E+02  0.00000000000E+00 0. -1.
         -2    1    1    2    0  502  0.19549208520E+02  0.89636191617E+01 -0.29996492908E+03  0.30073489439E+03  0.00000000000E+00 0. -1.
</event>
<event>
 4    1  0.5953944E+003  0.2987228E+02  0.7546771E-02  0.1420710E+00
          2   -1    0    0  501    0  0.00000000000E+00  0.00000000000E+00  0.50498626173E+03  0.50498626173E+03  0.00000000000E+00 0. -1.
         -2   -1    0    0    0  501 -0.00000000000E+00 -0.00000000000E+00 -0.28913786555E+02  0.28913786555E+02  0.00000000000E+00 0. -1.
          2    1    1    2  502    0 -0.10982633530E+02 -0.27780121365E+02  0.49670025445E+03  0.49759772522E+03  0.00000000000E+00 0. -1.
         -2    1    1    2    0  502  0.10982633530E+02  0.27780121365E+02 -0.20627779268E+02  0.36302323064E+02  0.00000000000E+00 0. -1.
</event>
<event>
 4    1  0.5953944E+003  0.2340155E+02  0.7546771E-02  0.1487516E+00
          2   -1    0    0  501    0  0.00000000000E+00  0.00000000000E+00  0.92054457169E+01  0.92054457169E+01  0.00000000000E+00 0.  1.
         -2   -1    0    0    0  501 -0.00000000000E+00 -0.00000000000E+00 -0.26667521355E+03  0.26667521355E+03  0.00000000000E+00 0. -1.
          2    1    1    2  502    0  0.40607453489E+01 -0.23046537360E+02 -0.71500943897E+01  0.24469499113E+02  0.00000000000E+00 0.  1.
         -2    1    1    2    0  502 -0.40607453489E+01  0.23046537360E+02 -0.25031967344E+03  0.25141116015E+03  0.00000000000E+00 0. -1.
</event>
<event>
 4    1  0.5953944E+003  0.3196201E+02  0.7546771E-02  0.1403279E+00
          2   -1    0    0  501    0  0.00000000000E+00  0.00000000000E+00  0.84210052454E+03  0.84210052454E+03  0.00000000000E+00 0. -1.
         -2   -1    0    0    0  501 -0.00000000000E+00 -0.00000000000E+00 -0.26153188568E+01  0.26153188568E+01  0.00000000000E+00 0. -1.
          2    1    1    2  502    0 -0.31425596686E+02  0.58311187818E+01  0.72900201528E+03  0.72970234229E+03  0.00000000000E+00 0. -1.
         -2    1    1    2    0  502  0.31425596686E+02 -0.58311187818E+01  0.11048319041E+03  0.11501350110E+03  0.00000000000E+00 0. -1.
</event>
<event>
 4    1  0.5953944E+003  0.2531073E+02  0.7546771E-02  0.1465357E+00
          2   -1    0    0  501    0  0.00000000000E+00  0.00000000000E+00  0.16851899567E+04  0.16851899567E+04  0.00000000000E+00 0.  1.
         -2   -1    0    0    0  501 -0.00000000000E+00 -0.00000000000E+00 -0.20927857498E+02  0.20927857498E+02  0.00000000000E+00 0. -1.
          2    1    1    2  502    0  0.21548377352E+02 -0.13277828565E+02  0.16774065323E+04  0.16775974809E+04  0.00000000000E+00 0.  1.
         -2    1    1    2    0  502 -0.21548377352E+02  0.13277828565E+02 -0.13144433007E+02  0.28520333396E+02  0.00000000000E+00 0. -1.
</event>
<event>
 4    1  0.5953944E+003  0.2944306E+02  0.7546771E-02  0.1424499E+00
          2   -1    0    0  501    0  0.00000000000E+00  0.00000000000E+00  0.14301382995E+02  0.14301382995E+02  0.00000000000E+00 0. -1.
         -2   -1    0    0    0  501 -0.00000000000E+00 -0.00000000000E+00 -0.13902424152E+03  0.13902424152E+03  0.00000000000E+00 0.  1.
          2    1    1    2  502    0  0.19167966449E+02 -0.22349110875E+02 -0.47882608482E+01  0.29829869873E+02  0.00000000000E+00 0. -1.
         -2    1    1    2    0  502 -0.19167966449E+02  0.22349110875E+02 -0.11993459768E+03  0.12349575464E+03  0.00000000000E+00 0.  1.
</event>
<event>
 4    1  0.5953944E+003  0.2349606E+02  0.7546771E-02  0.1486361E+00
          2   -1    0    0  501    0  0.00000000000E+00  0.00000000000E+00  0.69318137313E+03  0.69318137313E+03  0.00000000000E+00 0.  1.
         -2   -1    0    0    0  501 -0.00000000000E+00 -0.00000000000E+00 -0.21157895092E+02  0.21157895092E+02  0.00000000000E+00 0. -1.
          2    1    1    2  502    0  0.14868694416E+02  0.18193037444E+02  0.68639463656E+03  0.68679666699E+03  0.00000000000E+00 0.  1.
         -2    1    1    2    0  502 -0.14868694416E+02 -0.18193037444E+02 -0.14371158528E+02  0.27542601230E+02  0.00000000000E+00 0. -1.
</event>
<event>
 4    1  0.5953944E+003  0.3205368E+02  0.7546771E-02  0.1402551E+00
          2   -1    0    0  501    0  0.00000000000E+00  0.00000000000E+00  0.33528944183E+02  0.33528944183E+02  0.00000000000E+00 0.  1.
         -2   -1    0    0    0  501 -0.00000000000E+00 -0.00000000000E+00 -0.12302811529E+03  0.12302811529E+03  0.00000000000E+00 0.  1.
          2    1    1    2  502    0 -0.29015948787E+02 -0.13620331178E+02  0.23083361708E+02  0.39500383456E+02  0.00000000000E+00 0.  1.
         -2    1    1    2    0  502  0.29015948787E+02  0.13620331178E+02 -0.11258253281E+03  0.11705667602E+03  0.00000000000E+00 0.  1.
</event>
<event>
 4    1  0.5953944E+003  0.2176059E+02  0.7546771E-02  0.1508677E+00
          2   -1    0    0  501    0  0.00000000000E+00  0.00000000000E+00  0.69905197243E+03  0.69905197243E+03  0.00000000000E+00 0. -1.
         -2   -1    0    0    0  501 -0.00000000000E+00 -0.00000000000E+00 -0.31410121591E+01  0.31410121591E+01  0.00000000000E+00 0. -1.
          2    1    1    2  502    0 -0.17787690133E+02  0.12534809114E+02  0.65889768423E+03  0.65925691626E+03  0.00000000000E+00 0. -1.
         -2    1    1    2    0  502  0.17787690133E+02 -0.12534809114E+02  0.37013276038E+02  0.42936068321E+02  0.00000000000E+00 0. -1.
</event>
<event>
 4    1  0.5953944E+003  0.2074324E+02  0.7546771E-02  0.1522963E+00
          2   -1    0    0  501    0  0.00000000000E+00  0.00000000000E+00  0.50979015315E+03  0.50979015315E+03  0.00000000000E+00 0.  1.
         -2   -1    0    0    0  501 -0.00000000000E+00 -0.00000000000E+00 -0.15150533005E+01  0.15150533005E+01  0.00000000000E+00 0. -1.
          2    1    1    2  502    0  0.49253932126E+01 -0.20149995951E+02  0.42427610709E+03  0.42478288205E+03  0.00000000000E+00 0.  1.
         -2    1    1    2    0  502 -0.49253932126E+01  0.20149995951E+02  0.83998992764E+02  0.86522324406E+02  0.00000000000E+00 0. -1.
</event>
<event>
 4    1  0.5953944E+003  0.4134316E+02  0.7546771E-02  0.1340790E+00
          2   -1    0    0  501    0  0.00000000000E+00  0.00000000000E+00  0.22359932151E+04  0.22359932151E+04  0.00000000000E+00 0.  1.
         -2   -1    0    0    0  501 -0.00000000000E+00 -0.00000000000E+00 -0.15463924584E+01  0.15463924584E+01  0.00000000000E+00 0.  1.
          2    1    1    2  502    0 -0.29378298647E+02 -0.29089049039E+02  0.19127857388E+04  0.19132324845E+04  0.00000000000E+00 0.  1.
         -2    1    1    2    0  502  0.29378298647E+02  0.29089049039E+02  0.32166108381E+03  0.32430712303E+03  0.00000000000E+00 0.  1.
</event>
<event>
 4    1  0.5953944E+003  0.2162090E+02  0.7546771E-02  0.1510582E+00
          2   -1    0    0  501    0  0.00000000000E+00  0.00000000000E+00  0.20797871057E+03  0.20797871057E+03  0.00000000000E+00 0. -1.
         -2   -1    0    0    0  501 -0.00000000000E+00 -0.00000000000E+00 -0.11139054658E+02  0.11139054658E+02  0.00000000000E+00 0. -1.
          2    1    1    2  502    0 -0.21613340033E+02  0.57167687970E+00  0.19630313247E+03  0.19749021014E+03  0.00000000000E+00 0. -1.
         -2    1    1    2    0  502  0.21613340033E+02 -0.57167687970E+00  0.53652344260E+00  0.21627555092E+02  0.00000000000E+00 0. -1.
</event>
<event>
 4    1  0.5953944E+003  0.3203819E+02  0.7546771E-02  0.1402674E+00
          2   -1    0    0  501    0  0.00000000000E+00  0.00000000000E+00  0.98050437799E+03  0.98050437799E+03  0.00000000000E+00 0. -1.
         -2   -1    0    0    0  501 -0.00000000000E+00 -0.00000000000E+00 -0.15384105194E+01  0.15384105194E+01  0.00000000000E+00 0.  1.
          2    1    1    2  502    0  0.22782742027E+02  0.22525370921E+02  0.76703902964E+03  0.76770783418E+03  0.00000000000E+00 0. -1.
         -2    1    1    2    0  502 -0.22782742027E+02 -0.22525370921E+02  0.21192693783E+03  0.21433495433E+03  0.00000000000E+00 0.  1.
</event>
<event>
 4    1  0.5953944E+003  0.2151839E+02  0.7546771E-02  0.1511991E+00
          2   -1    0    0  501    0  0.00000000000E+00  0.00000000000E+00  0.64219666631E+03  0.64219666631E+03  0.00000000000E+00 0. -1.
         -2   -1    0    0    0  501 -0.00000000000E+00 -0.00000000000E+00 -0.21877942987E+02  0.21877942987E+02  0.00000000000E+00 0.  1.
          2    1    1    2  502    0  0.21374603857E+02  0.24833914569E+01  0.63667938644E+03  0.63704292009E+03  0.00000000000E+00 0. -1.
         -2    1    1    2    0  502 -0.21374603857E+02 -0.24833914569E+01 -0.16360663123E+02  0.27031689199E+02  0.00000000000E+00 0.  1.
</event>
<event>
 4    1  0.5953944E+003  0.2396304E+02  0.7546771E-02  0.1480747E+00
          2   -1    0    0  501    0  0.00000000000E+00  0.00000000000E+00  0.26317699395E+03  0.26317699395E+03  0.00000000000E+00 0.  1.
         -2   -1    0    0    0  501 -0.00000000000E+00 -0.00000000000E+00 -0.22030071315E+01  0.22030071315E+01  0.00000000000E+00 0.  1.
          2    1    1    2  502    0 -0.30709416008E+01  0.23765452182E+02  0.14347329714E+03  0.14546069707E+03  0.00000000000E+00 0.  1.
         -2    1    1    2    0  502  0.30709416008E+01 -0.23765452182E+02  0.11750068968E+03  0.11991930401E+03  0.00000000000E+00 0.  1.
</event>
<event>
 4    1  0.5953944E+003  0.2653170E+02  0.7546771E-02  0.1452370E+00
          2   -1    0    0  501    0  0.00000000000E+00  0.00000000000E+00  0.48484304493E+03  0.48484304493E+03  0.00000000000E+00 0. -1.
         -2   -1    0    0    0  501 -0.00000000000E+00 -0.00000000000E+00 -0.11548576622E+02  0.11548576622E+02  0.00000000000E+00 0. -1.
          2    1    1    2  502    0 -0.37891657120E+01  0.26259725160E+02  0.46871776863E+03  0.46946807940E+03  0.00000000000E+00 0. -1.
         -2    1    1    2    0  502  0.37891657120E+01 -0.26259725160E+02  0.45766996786E+01  0.26923542156E+02  0.00000000000E+00 0. -1.
</event>
<event>
 4    1  0.5953944E+003  0.3010685E+02  0.7546771E-02  0.1418670E+00
          2   -1    0    0  501    0  0.00000000000E+00  0.00000000000E+00  0.53993941419E+03  0.53993941419E+03  0.00000000000E+00 0.  1.
         -2   -1    0    0    0  501 -0.00000000000E+00 -0.00000000000E+00 -0.17695893982E+01  0.17695893982E+01  0.00000000000E+00 0.  1.
          2    1    1    2  502    0  0.70532235678E+01 -0.29269005269E+02  0.33045261259E+03  0.33182126484E+03  0.00000000000E+00 0.  1.
         -2    1    1    2    0  502 -0.70532235678E+01  0.29269005269E+02  0.20771721220E+03  0.20988773875E+03  0.00000000000E+00 0.  1.
</event>
<event>
 4    1  0.5953944E+003  0.2168204E+02  0.7546771E-02  0.1509746E+00
          2   -1    0    0  501    0  0.00000000000E+00  0.00000000000E+00  0.19678283189E+04  0.19678283189E+04  0.00000000000E+00 0. -1.
         -2   -1    0    0    0  501 -0.00000000000E+00 -0.00000000000E+00 -0.24542615886E+00  0.24542615886E+00  0.00000000000E+00 0. -1.
          2    1    1    2  502    0  0.37933948269E+01  0.21347612281E+02  0.82330296845E+03  0.82358842163E+03  0.00000000000E+00 0. -1.
         -2    1    1    2    0  502 -0.37933948269E+01 -0.21347612281E+02  0.11442799243E+04  0.11444853235E+04  0.00000000000E+00 0. -1.
</event>
<event>
 4    1  0.5953944E+003  0.2097621E+02  0.7546771E-02  0.1519605E+00
          2   -1    0    0  501    0  0.00000000000E+00  0.00000000000E+00  0.14758002075E+04  0.14758002075E+04  0.00000000000E+00 0.  1.
         -2   -1    0    0    0  501 -0.00000000000E+00 -0.00000000000E+00 -0.72398312115E+00  0.72398312115E+00  0.00000000000E+00 0. -1.
          2    1    1    2  502    0 -0.19449369605E+02  0.78564159421E+01  0.13037370296E+04  0.13039057648E+04  0.00000000000E+00 0.  1.
         -2    1    1    2    0  502  0.19449369605E+02 -0.78564159421E+01  0.17133919477E+03  0.17261842577E+03  0.00000000000E+00 0. -1.
</event>
<event>
 4    1  0.5953944E+003  0.2088493E+02  0.7546771E-02  0.1520914E+00
          2   -1    0    0  501    0  0.00000000000E+00  0.00000000000E+00  0.47313801174E+02  0.47313801174E+02  0.00000000000E+00 0. -1.
         -2   -1    0    0    0  501 -0.00000000000E+00 -0.00000000000E+00 -0.17474098900E+02  0.17474098900E+02  0.00000000000E+00 0. -1.
          2    1    1    2  502    0  0.20857742872E+02  0.10653713711E+01  0.37185261296E+02  0.42648846544E+02  0.00000000000E+00 0. -1.
         -2    1    1    2    0  502 -0.20857742872E+02 -0.10653713711E+01 -0.73455590217E+01  0.22139053531E+02  0.00000000000E+00 0. -1.
</event>
<event>
 4    1  0.5953944E+003  0.3714794E+02  0.7546771E-02  0.1366061E+00
          2   -1    0    0  501    0  0.00000000000E+00  0.00000000000E+00  0.64499476781E+03  0.64499476781E+03  0.00000000000E+00 0. -1.
         -2   -1    0    0    0  501 -0.00000000000E+00 -0.00000000000E+00 -0.73608747573E+02  0.73608747573E+02  0.00000000000E+00 0. -1.
          2    1    1    2  502    0  0.17096704323E+02  0.32979877266E+02  0.63973454669E+03  0.64081218764E+03  0.00000000000E+00 0. -1.
         -2    1    1    2    0  502 -0.17096704323E+02 -0.32979877266E+02 -0.68348526454E+02  0.77791327740E+02  0.00000000000E+00 0. -1.
</event>
<event>
 4    1  0.5953944E+003  0.3433730E+02  0.7546771E-02  0.1385283E+00
          2   -1    0    0  501    0  0.00000000000E+00  0.00000000000E+00  0.14985443186E+02  0.14985443186E+02  0.00000000000E+00 0. -1.
         -2   -1    0    0    0  501 -0.00000000000E+00 -0.00000000000E+00 -0.13850541125E+03  0.13850541125E+03  0.00000000000E+00 0.  1.
          2    1    1    2  502    0 -0.17788473044E+02 -0.29370402631E+02 -0.11321382535E+02  0.36155553190E+02  0.00000000000E+00 0. -1.
         -2    1    1    2    0  502  0.17788473044E+02  0.29370402631E+02 -0.11219858553E+03  0.11733530125E+03  0.00000000000E+00 0.  1.
</event>
<event>
 4    1  0.5953944E+003  0.2004652E+02  0.7546771E-02  0.1533326E+00
          2   -1    0    0  501    0  0.00000000000E+00  0.00000000000E+00  0.24932237314E+02  0.24932237314E+02  0.00000000000E+00 0.  1.
         -2   -1    0    0    0  501 -0.00000000000E+00 -0.00000000000E+00 -0.41809829492E+02  0.41809829492E+02  0.00000000000E+00 0.  1.
          2    1    1    2  502    0  0.49066586314E+01  0.19436757374E+02  0.17720512804E+02  0.26755922899E+02  0.00000000000E+00 0.  1.
         -2    1    1    2    0  502 -0.49066586314E+01 -0.19436757374E+02 -0.34598104982E+02  0.39986143906E+02  0.00000000000E+00 0.  1.
</event>
<event>
 4    1  0.5953944E+003  0.2467987E+02  0.7546771E-02  0.1472417E+00
          2   -1    0    0  501    0  0.00000000000E+00  0.00000000000E+00  0.14449219159E+03  0.14449219159E+03  0.00000000000E+00 0. -1.
         -2   -1    0    0    0  501 -0.00000000000E+00 -0.00000000000E+00 -0.88675842511E+02  0.88675842511E+02  0.00000000000E+00 0.  1.
          2    1    1    2  502    0 -0.20244153800E+02 -0.14116302461E+02  0.14168739919E+03  0.14382077335E+03  0.00000000000E+00 0. -1.
         -2    1    1    2    0  502  0.20244153800E+02  0.14116302461E+02 -0.85871050105E+02  0.89347260755E+02  0.00000000000E+00 0.  1.
</event>
<event>
 4    1  0.5953944E+003  0.3825578E+02  0.7546771E-02  0.1359021E+00
          2   -1    0    0  501    0  0.00000000000E+00  0.00000000000E+00  0.20978263608E+02  0.20978263608E+02  0.00000000000E+00 0. -1.
         -2   -1    0    0    0  501 -0.00000000000E+00 -0.00000000000E+00 -0.23812402287E+03  0.23812402287E+03  0.00000000000E+00 0.  1.
          2    1    1    2  502    0  0.24064137780E+02 -0.29739236091E+02  0.36038708024E+00  0.38257479912E+02  0.00000000000E+00 0. -1.
         -2    1    1    2    0  502 -0.24064137780E+02  0.29739236091E+02 -0.21750614634E+03  0.22084480657E+03  0.00000000000E+00 0.  1.
</event>
<event>
 4    1  0.5953944E+003  0.2222630E+02  0.7546771E-02  0.1502449E+00
          2   -1    0    0  501    0  0.00000000000E+00  0.00000000000E+00  0.72324542410E+03  0.72324542410E+03  0.00000000000E+00 0.  1.
         -2   -1    0    0    0  501 -0.00000000000E+00 -0.00000000000E+00 -0.12713802768E+02  0.12713802768E+02  0.00000000000E+00 0.  1.
          2    1    1    2  502    0  0.21618114502E+02  0.51638845270E+01  0.71322418744E+03  0.71357042408E+03  0.00000000000E+00 0.  1.
         -2    1    1    2    0  502 -0.21618114502E+02 -0.51638845270E+01 -0.26925661053E+01  0.22388802788E+02  0.00000000000E+00 0.  1.
</event>
<event>
 4    1  0.5953944E+003  0.2691899E+02  0.7546771E-02  0.1448424E+00
          2   -1    0    0  501    0  0.00000000000E+00  0.00000000000E+00  0.28662186513E+03  0.28662186513E+03  0.00000000000E+00 0.  1.
         -2   -1    0    0    0  501 -0.00000000000E+00 -0.00000000000E+00 -0.87152950242E+02  0.87152950242E+02  0.00000000000E+00 0. -1.
          2    1    1    2  502    0 -0.24643944317E+02 -0.10830889028E+02  0.28389124920E+03  0.28516464283E+03  0.00000000000E+00 0.  1.
         -2    1    1    2    0  502  0.24643944317E+02  0.10830889028E+02 -0.84422334307E+02  0.88610172545E+02  0.00000000000E+00 0. -1.
</event>
<event>
 4    1  0.5953944E+003  0.4160875E+02  0.7546771E-02  0.1339308E+00
          2   -1    0    0  501    0  0.00000000000E+00  0.00000000000E+00  0.99546559980E+02  0.99546559980E+02  0.00000000000E+00 0. -1.
         -2   -1    0    0    0  501 -0.00000000000E+00 -0.00000000000E+00 -0.19114030277E+03  0.19114030277E+03  0.00000000000E+00 0.  1.
          2    1    1    2  502    0  0.73560654711E+01  0.40953344370E+02  0.92776531502E+02  0.10167975665E+03  0.00000000000E+00 0. -1.
         -2    1    1    2    0  502 -0.73560654711E+01 -0.40953344370E+02 -0.18437027429E+03  0.18900710610E+03  0.00000000000E+00 0.  1.
</event>
<event>
 4    1  0.5953944E+003  0.2761723E+02  0.7546771E-02  0.1441505E+00
          2   -1    0    0  501    0  0.00000000000E+00  0.00000000000E+00  0.12479343971E+03  0.12479343971E+03  0.00000000000E+00 0. -1.
         -2   -1    0    0    0  501 -0.00000000000E+00 -0.00000000000E+00 -0.27908890568E+03  0.27908890568E+03  0.00000000000E+00 0. -1.
          2    1    1    2  502    0 -0.25512950581E+02  0.10573577103E+02  0.12257003720E+03  0.12564284778E+03  0.00000000000E+00 0. -1.
         -2    1    1    2    0  502  0.25512950581E+02 -0.10573577103E+02 -0.27686550317E+03  0.27823949760E+03  0.00000000000E+00 0. -1.
</event>
<event>
 4    1  0.5953944E+003  0.3084219E+02  0.7546771E-02  0.1412416E+00
          2   -1    0    0  501    0  0.00000000000E+00  0.00000000000E+00  0.57089338594E+03  0.57089338594E+03  0.00000000000E+00 0.  1.
         -2   -1    0    0    0  501 -0.00000000000E+00 -0.00000000000E+00 -0.15719820514E+02  0.15719820514E+02  0.00000000000E+00 0.  1.
          2    1    1    2  502    0  0.30463976392E+02  0.48152485985E+01  0.55491347708E+03  0.55576992319E+03  0.00000000000E+00 0.  1.
         -2    1    1    2    0  502 -0.30463976392E+02 -0.48152485985E+01  0.26008834761E+00  0.30843283266E+02  0.00000000000E+00 0.  1.
</event>
<event>
 4    1  0.5953944E+003  0.2166970E+02  0.7546771E-02  0.1509914E+00
          2   -1    0    0  501    0  0.00000000000E+00  0.00000000000E+00  0.37908847040E+03  0.37908847040E+03  0.00000000000E+00 0.  1.
         -2   -1    0    0    0  501 -0.00000000000E+00 -0.00000000000E+00 -0.27906515186E+03  0.27906515186E+03  0.00000000000E+00 0. -1.
          2    1    1    2  502    0 -0.16382445881E+02  0.14184199053E+02  0.37835731488E+03  0.37897735257E+03  0.00000000000E+00 0.  1.
         -2    1    1    2    0  502  0.16382445881E+02 -0.14184199053E+02 -0.27833399635E+03  0.27917626969E+03  0.00000000000E+00 0. -1.
</event>
<event>
 4    1  0.5953944E+003  0.2217787E+02  0.7546771E-02  0.1503088E+00
          2   -1    0    0  501    0  0.00000000000E+00  0.00000000000E+00  0.15686591179E+04  0.15686591179E+04  0.00000000000E+00 0.  1.
         -2   -1    0    0    0  501 -0.00000000000E+00 -0.00000000000E+00 -0.22955608357E+02  0.22955608357E+02  0.00000000000E+00 0.  1.
          2    1    1    2  502    0 -0.17372293404E+02 -0.13786279306E+02  0.15632054204E+04  0.15633627360E+04  0.00000000000E+00 0.  1.
         -2    1    1    2    0  502  0.17372293404E+02  0.13786279306E+02 -0.17501910773E+02  0.28251990300E+02  0.00000000000E+00 0.  1.
</event>
<event>
 4    1  0.5953944E+003  0.2372408E+02  0.7546771E-02  0.1483601E+00
          2   -1    0    0  501    0  0.00000000000E+00  0.00000000000E+00  0.38380066631E+03  0.38380066631E+03  0.00000000000E+00 0.  1.
         -2   -1    0    0    0  501 -0.00000000000E+00 -0.00000000000E+00 -0.47140259568E+01  0.47140259568E+01  0.00000000000E+00 0. -1.
          2    1    1    2  502    0 -0.67697959075E+01 -0.22737673490E+02  0.35077850811E+03  0.35157985392E+03  0.00000000000E+00 0.  1.
         -2    1    1    2    0  502  0.67697959075E+01  0.22737673490E+02  0.28308132241E+02  0.36934838342E+02  0.00000000000E+00 0. -1.
</event>
<event>
 4    1  0.5953944E+003  0.2053639E+02  0.7546771E-02  0.1525988E+00
          2   -1    0    0  501    0  0.00000000000E+00  0.00000000000E+00  0.54982895659E+03  0.54982895659E+03  0.00000000000E+00 0. -1.
         -2   -1    0    0    0  501 -0.00000000000E+00 -0.00000000000E+00 -0.88114682102E+00  0.88114682102E+00  0.00000000000E+00 0.  1.
          2    1    1    2  502    0 -0.84163777739E+01  0.18732526877E+02  0.17538678991E+03  0.17658501933E+03  0.00000000000E+00 0.  1.
         -2    1    1    2    0  502  0.84163777739E+01 -0.18732526877E+02  0.37356101985E+03  0.37412508407E+03  0.00000000000E+00 0. -1.
</event>
<event>
 4    1  0.5953944E+003  0.2570842E+02  0.7546771E-02  0.1461032E+00
          2   -1    0    0  501    0  0.00000000000E+00  0.00000000000E+00  0.39464536293E+01  0.39464536293E+01  0.00000000000E+00 0. -1.
         -2   -1    0    0    0  501 -0.00000000000E+00 -0.00000000000E+00 -0.21998357748E+03  0.21998357748E+03  0.00000000000E+00 0.  1.
          2    1    1    2  502    0 -0.39253209967E+01 -0.25406977190E+02 -0.53315392260E+02  0.59189979614E+02  0.00000000000E+00 0. -1.
         -2    1    1    2    0  502  0.39253209967E+01  0.25406977190E+02 -0.16272173159E+03  0.16474005149E+03  0.00000000000E+00 0.  1.
</event>
<event>
 4    1  0.5953944E+003  0.2111760E+02  0.7546771E-02  0.1517592E+00
          2   -1    0    0  501    0  0.00000000000E+00  0.00000000000E+00  0.57780955431E+01  0.57780955431E+01  0.00000000000E+00 0.  1.
         -2   -1    0    0    0  501 -0.00000000000E+00 -0.00000000000E+00 -0.39746097792E+03  0.39746097792E+03  0.00000000000E+00 0.  1.
          2    1    1    2  502    0 -0.12220487834E+02 -0.17222452219E+02 -0.14852948085E+02  0.25817886245E+02  0.00000000000E+00 0.  1.
         -2    1    1    2    0  502  0.12220487834E+02  0.17222452219E+02 -0.37682993429E+03  0.37742118722E+03  0.00000000000E+00 0.  1.
</event>
<event>
 4    1  0.5953944E+003  0.2444892E+02  0.7546771E-02  0.1475064E+00
          2   -1    0    0  501    0  0.00000000000E+00  0.00000000000E+00  0.25617845965E+02  0.25617845965E+02  0.00000000000E+00 0.  1.
         -2   -1    0    0    0  501 -0.00000000000E+00 -0.00000000000E+00 -0.64313761500E+02  0.64313761500E+02  0.00000000000E+00 0. -1.
          2    1    1    2  502    0 -0.15746401399E+02 -0.18702950700E+02  0.16545780850E+02  0.29521388617E+02  0.00000000000E+00 0.  1.
         -2    1    1    2    0  502  0.15746401399E+02  0.18702950700E+02 -0.55241696384E+02  0.60410218849E+02  0.00000000000E+00 0. -1.
</event>
<event>
 4    1  0.5953944E+003  0.2109015E+02  0.7546771E-02  0.1517982E+00
          2   -1    0    0  501    0  0.00000000000E+00  0.00000000000E+00  0.53196851088E+02  0.53196851088E+02  0.00000000000E+00 0. -1.
         -2   -1    0    0    0  501 -0.00000000000E+00 -0.00000000000E+00 -0.10981076931E+02  0.10981076931E+02  0.00000000000E+00 0. -1.
          2    1    1    2  502    0  0.55564212833E+01 -0.20345040803E+02  0.36781383797E+02  0.42398876126E+02  0.00000000000E+00 0. -1.
         -2    1    1    2    0  502 -0.55564212833E+01  0.20345040803E+02  0.54343903601E+01  0.21779051892E+02  0.00000000000E+00 0. -1.
</event>
<event>
 4    1  0.5953944E+003  0.2256668E+02  0.7546771E-02  0.1498012E+00
          2   -1    0    0  501    0  0.00000000000E+00  0.00000000000E+00  0.27621322613E+03  0.27621322613E+03  0.00000000000E+00 0.  1.
         -2   -1    0    0    0  501 -0.00000000000E+00 -0.00000000000E+00 -0.84311775894E+01  0.84311775894E+01  0.00000000000E+00 0. -1.
          2    1    1    2  502    0  0.18190965056E+02  0.13354536368E+02  0.25969316983E+03  0.26067181917E+03  0.00000000000E+00 0.  1.
         -2    1    1    2    0  502 -0.18190965056E+02 -0.13354536368E+02  0.80888787079E+01  0.23972584550E+02  0.00000000000E+00 0. -1.
</event>
<event>
 4    1  0.5953944E+003  0.6252363E+02  0.7546771E-02  0.1251491E+00
          2   -1    0    0  501    0  0.00000000000E+00  0.00000000000E+00  0.43383540397E+03  0.43383540397E+03  0.00000000000E+00 0.  1.
         -2   -1    0    0    0  501 -0.00000000000E+00 -0.00000000000E+00 -0.11380358836E+02  0.11380358836E+02  0.00000000000E+00 0. -1.
          2    1    1    2  502    0 -0.52144082695E+02 -0.34499252338E+02  0.31280475296E+03  0.31899218994E+03  0.00000000000E+00 0.  1.
         -2    1    1    2    0  502  0.52144082695E+02  0.34499252338E+02  0.10965029218E+03  0.12622357286E+03  0.00000000000E+00 0. -1.
</event>
<event>
 4    1  0.5953944E+003  0.2961802E+02  0.7546771E-02  0.1422945E+00
          2   -1    0    0  501    0  0.00000000000E+00  0.00000000000E+00  0.40974807090E+02  0.40974807090E+02  0.00000000000E+00 0. -1.
         -2   -1    0    0    0  501 -0.00000000000E+00 -0.00000000000E+00 -0.40083334346E+03  0.40083334346E+03  0.00000000000E+00 0. -1.
          2    1    1    2  502    0 -0.13811359116E+02 -0.26200642129E+02  0.34994494806E+02  0.45845849924E+02  0.00000000000E+00 0. -1.
         -2    1    1    2    0  502  0.13811359116E+02  0.26200642129E+02 -0.39485303118E+03  0.39596230063E+03  0.00000000000E+00 0. -1.
</event>
<event>
 4    1  0.5953944E+003  0.5866727E+02  0.7546771E-02  0.1264429E+00
          2   -1    0    0  501    0  0.00000000000E+00  0.00000000000E+00  0.10751768329E+04  0.10751768329E+04  0.00000000000E+00 0.  1.
         -2   -1    0    0    0  501 -0.00000000000E+00 -0.00000000000E+00 -0.12012183389E+02  0.12012183389E+02  0.00000000000E+00 0. -1.
          2    1    1    2  502    0  0.58384676756E+02 -0.57513992220E+01  0.99714315642E+03  0.99886752048E+03  0.00000000000E+00 0.  1.
         -2    1    1    2    0  502 -0.58384676756E+02  0.57513992220E+01  0.66021493109E+02  0.88321495828E+02  0.00000000000E+00 0. -1.
</event>
<event>
 4    1  0.5953944E+003  0.4215364E+02  0.7546771E-02  0.1336308E+00
          2   -1    0    0  501    0  0.00000000000E+00  0.00000000000E+00  0.18908684242E+04  0.18908684242E+04  0.00000000000E+00 0.  1.
         -2   -1    0    0    0  501 -0.00000000000E+00 -0.00000000000E+00 -0.14947826413E+03  0.14947826413E+03  0.00000000000E+00 0. -1.
          2    1    1    2  502    0  0.39936536438E+02 -0.13490815371E+02  0.18876565472E+04  0.18881271592E+04  0.00000000000E+00 0.  1.
         -2    1    1    2    0  502 -0.39936536438E+02  0.13490815371E+02 -0.14626638715E+03  0.15221952914E+03  0.00000000000E+00 0. -1.
</event>
<event>
 4    1  0.5953944E+003  0.2234966E+02  0.7546771E-02  0.1500830E+00
          2   -1    0    0  501    0  0.00000000000E+00  0.00000000000E+00  0.11713224934E+04  0.11713224934E+04  0.00000000000E+00 0.  1.
         -2   -1    0    0    0  501 -0.00000000000E+00 -0.00000000000E+00 -0.15786182470E+01  0.15786182470E+01  0.00000000000E+00 0.  1.
          2    1    1    2  502    0  0.14117383389E+02  0.17326481618E+02  0.10858875698E+04  0.10861175451E+04  0.00000000000E+00 0.  1.
         -2    1    1    2    0  502 -0.14117383389E+02 -0.17326481618E+02  0.83856305342E+02  0.86783566559E+02  0.00000000000E+00 0.  1.
</event>
<event>
 4    1  0.5953944E+003  0.2735840E+02  0.7546771E-02  0.1444041E+00
          2   -1    0    0  501    0  0.00000000000E+00  0.00000000000E+00  0.55792610616E+03  0.55792610616E+03  0.00000000000E+00 0.  1.
         -2   -1    0    0    0  501 -0.00000000000E+00 -0.00000000000E+00 -0.11557649334E+02  0.11557649334E+02  0.00000000000E+00 0.  1.
          2    1    1    2  502    0 -0.23587310468E+02 -0.13860758056E+02  0.54089095979E+03  0.54158241497E+03  0.00000000000E+00 0.  1.
         -2    1    1    2    0  502  0.23587310468E+02  0.13860758056E+02  0.54774970395E+01  0.27901340520E+02  0.00000000000E+00 0.  1.
</event>
<event>
 4    1  0.5953944E+003  0.3200418E+02  0.7546771E-02  0.1402944E+00
          2   -1    0    0  501    0  0.00000000000E+00  0.00000000000E+00  0.33120672758E+02  0.33120672758E+02  0.00000000000E+00 0. -1.
         -2   -1    0    0    0  501 -0.00000000000E+00 -0.00000000000E+00 -0.47428955978E+02  0.47428955978E+02  0.00000000000E+00 0. -1.
          2    1    1    2  502    0  0.30745616818E+02 -0.88867557890E+01  0.16603405079E+02  0.36054686827E+02  0.00000000000E+00 0. -1.
         -2    1    1    2    0  502 -0.30745616818E+02  0.88867557890E+01 -0.30911688299E+02  0.44494941909E+02  0.00000000000E+00 0. -1.
</event>
<event>
 4    1  0.5953944E+003  0.2692806E+02  0.7546771E-02  0.1448332E+00
          2   -1    0    0  501    0  0.00000000000E+00  0.00000000000E+00  0.13664542677E+03  0.13664542677E+03  0.00000000000E+00 0. -1.
         -2   -1    0    0    0  501 -0.00000000000E+00 -0.00000000000E+00 -0.97500115341E+01  0.97500115341E+01  0.00000000000E+00 0. -1.
          2    1    1    2  502    0  0.44964490236E+01  0.26549996085E+02  0.11286216910E+03  0.11603012350E+03  0.00000000000E+00 0. -1.
         -2    1    1    2    0  502 -0.44964490236E+01 -0.26549996085E+02  0.14033246138E+02  0.30365314804E+02  0.00000000000E+00 0. -1.
</event>
<event>
 4    1  0.5953944E+003  0.4643370E+02  0.7546771E-02  0.1314422E+00
          2   -1    0    0  501    0  0.00000000000E+00  0.00000000000E+00  0.80092094483E+01  0.80092094483E+01  0.00000000000E+00 0.  1.
         -2   -1    0    0    0  501 -0.00000000000E+00 -0.00000000000E+00 -0.27835648002E+03  0.27835648002E+03  0.00000000000E+00 0.  1.
          2    1    1    2  502    0 -0.46182124308E+02 -0.48270366562E+01 -0.10920639142E+03  0.11866812889E+03  0.00000000000E+00 0.  1.
         -2    1    1    2    0  502  0.46182124308E+02  0.48270366562E+01 -0.16114087915E+03  0.16769756057E+03  0.00000000000E+00 0.  1.
</event>
<event>
 4    1  0.5953944E+003  0.2051340E+02  0.7546771E-02  0.1526327E+00
          2   -1    0    0  501    0  0.00000000000E+00  0.00000000000E+00  0.71576305330E+01  0.71576305330E+01  0.00000000000E+00 0. -1.
         -2   -1    0    0    0  501 -0.00000000000E+00 -0.00000000000E+00 -0.61215652874E+02  0.61215652874E+02  0.00000000000E+00 0. -1.
          2    1    1    2  502    0 -0.19492391990E+02 -0.63911100566E+01 -0.20224329316E+02  0.28806650786E+02  0.00000000000E+00 0. -1.
         -2    1    1    2    0  502  0.19492391990E+02  0.63911100566E+01 -0.33833693025E+02  0.39566632621E+02  0.00000000000E+00 0. -1.
</event>
<event>
 4    1  0.5953944E+003  0.2086683E+02  0.7546771E-02  0.1521175E+00
          2   -1    0    0  501    0  0.00000000000E+00  0.00000000000E+00  0.19593978130E+03  0.19593978130E+03  0.00000000000E+00 0. -1.
         -2   -1    0    0    0  501 -0.00000000000E+00 -0.00000000000E+00 -0.30758899431E+02  0.30758899431E+02  0.00000000000E+00 0.  1.
          2    1    1    2  502    0  0.18261810979E+02  0.10096082358E+02  0.19176845505E+03  0.19290040169E+03  0.00000000000E+00 0. -1.
         -2    1    1    2    0  502 -0.18261810979E+02 -0.10096082358E+02 -0.26587573176E+02  0.33798279048E+02  0.00000000000E+00 0.  1.
</event>
<event>
 4    1  0.5953944E+003  0.2408373E+02  0.7546771E-02  0.1479320E+00
          2   -1    0    0  501    0  0.00000000000E+00  0.00000000000E+00  0.13952643615E+03  0.13952643615E+03  0.00000000000E+00 0.  1.
         -2   -1    0    0    0  501 -0.00000000000E+00 -0.00000000000E+00 -0.68000722061E+02  0.68000722061E+02  0.00000000000E+00 0.  1.
          2    1    1    2  502    0  0.20171745192E+02 -0.13157759662E+02  0.13630471946E+03  0.13841604853E+03  0.00000000000E+00 0.  1.
         -2    1    1    2    0  502 -0.20171745192E+02  0.13157759662E+02 -0.64779005375E+02  0.69111109677E+02  0.00000000000E+00 0.  1.
</event>
<event>
 4    1  0.5953944E+003  0.2654624E+02  0.7546771E-02  0.1452220E+00
          2   -1    0    0  501    0  0.00000000000E+00  0.00000000000E+00  0.93720278473E+03  0.93720278473E+03  0.00000000000E+00 0. -1.
         -2   -1    0    0    0  501 -0.00000000000E+00 -0.00000000000E+00 -0.27274558318E+01  0.27274558318E+01  0.00000000000E+00 0.  1.
          2    1    1    2  502    0  0.53351295728E+01  0.26004598566E+02  0.86720918977E+03  0.86761539957E+03  0.00000000000E+00 0. -1.
         -2    1    1    2    0  502 -0.53351295728E+01 -0.26004598566E+02  0.67266139133E+02  0.72314840994E+02  0.00000000000E+00 0.  1.
</event>
<event>
 4    1  0.5953944E+003  0.2117450E+02  0.7546771E-02  0.1516788E+00
          2   -1    0    0  501    0  0.00000000000E+00  0.00000000000E+00  0.34209172292E+02  0.34209172292E+02  0.00000000000E+00 0. -1.
         -2   -1    0    0    0  501 -0.00000000000E+00 -0.00000000000E+00 -0.39058945693E+02  0.39058945693E+02  0.00000000000E+00 0. -1.
          2    1    1    2  502    0 -0.13621110862E+02 -0.16211875248E+02  0.27436821741E+02  0.34657448657E+02  0.00000000000E+00 0. -1.
         -2    1    1    2    0  502  0.13621110862E+02  0.16211875248E+02 -0.32286595141E+02  0.38610669328E+02  0.00000000000E+00 0. -1.
</event>
<event>
 4    1  0.5953944E+003  0.2628890E+02  0.7546771E-02  0.1454885E+00
          2   -1    0    0  501    0  0.00000000000E+00  0.00000000000E+00  0.10775538213E+04  0.10775538213E+04  0.00000000000E+00 0.  1.
         -2   -1    0    0    0  501 -0.00000000000E+00 -0.00000000000E+00 -0.18038246598E+01  0.18038246598E+01  0.00000000000E+00 0. -1.
          2    1    1    2  502    0 -0.18181281599E+02  0.18988078386E+02  0.97111347579E+03  0.97146924243E+03  0.00000000000E+00 0.  1.
         -2    1    1    2    0  502  0.18181281599E+02 -0.18988078386E+02  0.10463652088E+03  0.10788840356E+03  0.00000000000E+00 0. -1.
</event>
<event>
 4    1  0.5953944E+003  0.2207365E+02  0.7546771E-02  0.1504470E+00
          2   -1    0    0  501    0  0.00000000000E+00  0.00000000000E+00  0.35593782410E+03  0.35593782410E+03  0.00000000000E+00 0. -1.
         -2   -1    0    0    0  501 -0.00000000000E+00 -0.00000000000E+00 -0.16782696200E+01  0.16782696200E+01  0.00000000000E+00 0. -1.
          2    1    1    2  502    0  0.17823733268E+02 -0.13021535344E+02  0.25389949974E+03  0.25485721849E+03  0.00000000000E+00 0. -1.
         -2    1    1    2    0  502 -0.17823733268E+02  0.13021535344E+02  0.10036005474E+03  0.10275887523E+03  0.00000000000E+00 0. -1.
</event>
<event>
 4    1  0.5953944E+003  0.4307238E+02  0.7546771E-02  0.1331365E+00
          2   -1    0    0  501    0  0.00000000000E+00  0.00000000000E+00  0.12983192051E+04  0.12983192051E+04  0.00000000000E+00 0. -1.
         -2   -1    0    0    0  501 -0.00000000000E+00 -0.00000000000E+00 -0.20370775560E+02  0.20370775560E+02  0.00000000000E+00 0. -1.
          2    1    1    2  502    0 -0.15465174736E+02  0.40200230035E+02  0.12747732619E+04  0.12755007249E+04  0.00000000000E+00 0. -1.
         -2    1    1    2    0  502  0.15465174736E+02 -0.40200230035E+02  0.31751677196E+01  0.43189255777E+02  0.00000000000E+00 0. -1.
</event>
<event>
 4    1  0.5953944E+003  0.2522740E+02  0.7546771E-02  0.1466275E+00
          2   -1    0    0  501    0  0.00000000000E+00  0.00000000000E+00  0.26432084918E+03  0.26432084918E+03  0.00000000000E+00 0.  1.
         -2   -1    0    0    0  501 -0.00000000000E+00 -0.00000000000E+00 -0.55450098515E+02  0.55450098515E+02  0.00000000000E+00 0.  1.
          2    1    1    2  502    0  0.20715312843E+02 -0.14397833858E+02  0.26081104009E+03  0.26202828175E+03  0.00000000000E+00 0.  1.
         -2    1    1    2    0  502 -0.20715312843E+02  0.14397833858E+02 -0.51940289418E+02  0.57742665948E+02  0.00000000000E+00 0.  1.
</event>
<event>
 4    1  0.5953944E+003  0.2919633E+02  0.7546771E-02  0.1426711E+00
          2   -1    0    0  501    0  0.00000000000E+00  0.00000000000E+00  0.62901112868E+03  0.62901112868E+03  0.00000000000E+00 0. -1.
         -2   -1    0    0    0  501 -0.00000000000E+00 -0.00000000000E+00 -0.13836996168E+01  0.13836996168E+01  0.00000000000E+00 0.  1.
          2    1    1    2  502    0  0.17618843736E+02  0.23280932357E+02  0.35906254668E+03  0.36024760637E+03  0.00000000000E+00 0. -1.
         -2    1    1    2    0  502 -0.17618843736E+02 -0.23280932357E+02  0.26856488238E+03  0.27014722193E+03  0.00000000000E+00 0.  1.
</event>
<event>
 4    1  0.5953944E+003  0.4435650E+02  0.7546771E-02  0.1324689E+00
          2   -1    0    0  501    0  0.00000000000E+00  0.00000000000E+00  0.15088613483E+04  0.15088613483E+04  0.00000000000E+00 0. -1.
         -2   -1    0    0    0  501 -0.00000000000E+00 -0.00000000000E+00 -0.34951069293E+01  0.34951069293E+01  0.00000000000E+00 0.  1.
          2    1    1    2  502    0 -0.19160841894E+02  0.40004517084E+02  0.13514108827E+04  0.13521386294E+04  0.00000000000E+00 0. -1.
         -2    1    1    2    0  502  0.19160841894E+02 -0.40004517084E+02  0.15395535873E+03  0.16021782588E+03  0.00000000000E+00 0.  1.
</event>
<event>
 4    1  0.5953944E+003  0.5917863E+02  0.7546771E-02  0.1262649E+00
          2   -1    0    0  501    0  0.00000000000E+00  0.00000000000E+00  0.20094828795E+04  0.20094828795E+04  0.00000000000E+00 0. -1.
         -2   -1    0    0    0  501 -0.00000000000E+00 -0.00000000000E+00 -0.26829114255E+01  0.26829114255E+01  0.00000000000E+00 0. -1.
          2    1    1    2  502    0  0.52868469471E+02  0.26590122325E+02  0.15989554683E+04  0.16000502178E+04  0.00000000000E+00 0. -1.
         -2    1    1    2    0  502 -0.52868469471E+02 -0.26590122325E+02  0.40784449978E+03  0.41211557320E+03  0.00000000000E+00 0. -1.
</event>
<event>
 4    1  0.5953944E+003  0.2215428E+02  0.7546771E-02  0.1503400E+00
          2   -1    0    0  501    0  0.00000000000E+00  0.00000000000E+00  0.16320580242E+03  0.16320580242E+03  0.00000000000E+00 0. -1.
         -2   -1    0    0    0  501 -0.00000000000E+00 -0.00000000000E+00 -0.10745420525E+02  0.10745420525E+02  0.00000000000E+00 0. -1.
          2    1    1    2  502    0  0.14065560678E+02  0.17116426363E+02  0.15003811161E+03  0.15166491679E+03  0.00000000000E+00 0. -1.
         -2    1    1    2    0  502 -0.14065560678E+02 -0.17116426363E+02  0.24222702799E+01  0.22286306153E+02  0.00000000000E+00 0. -1.
</event>
<event>
 4    1  0.5953944E+003  0.2608743E+02  0.7546771E-02  0.1456997E+00
          2   -1    0    0  501    0  0.00000000000E+00  0.00000000000E+00  0.29458027295E+01  0.29458027295E+01  0.00000000000E+00 0. -1.
         -2   -1    0    0    0  501 -0.00000000000E+00 -0.00000000000E+00 -0.55479582343E+03  0.55479582343E+03  0.00000000000E+00 0. -1.
          2    1    1    2  502    0  0.16584099014E+02 -0.20137562997E+02 -0.62887836171E+02  0.68084019578E+02  0.00000000000E+00 0. -1.
         -2    1    1    2    0  502 -0.16584099014E+02  0.20137562997E+02 -0.48896218453E+03  0.48965760658E+03  0.00000000000E+00 0. -1.
</event>
<event>
 4    1  0.5953944E+003  0.3430911E+02  0.7546771E-02  0.1385486E+00
          2   -1    0    0  501    0  0.00000000000E+00  0.00000000000E+00  0.66229272266E+01  0.66229272266E+01  0.00000000000E+00 0. -1.
         -2   -1    0    0    0  501 -0.00000000000E+00 -0.00000000000E+00 -0.18004097576E+03  0.18004097576E+03  0.00000000000E+00 0.  1.
          2    1    1    2  502    0  0.30663268863E+02 -0.15390863723E+02 -0.76142513281E+02  0.83515250537E+02  0.00000000000E+00 0. -1.
         -2    1    1    2    0  502 -0.30663268863E+02  0.15390863723E+02 -0.97275535254E+02  0.10314865245E+03  0.00000000000E+00 0.  1.
</event>
<event>
 4    1  0.5953944E+003  0.4678231E+02  0.7546771E-02  0.1312760E+00
          2   -1    0    0  501    0  0.00000000000E+00  0.00000000000E+00  0.25860591269E+04  0.25860591269E+04  0.00000000000E+00 0. -1.
         -2   -1    0    0    0  501 -0.00000000000E+00 -0.00000000000E+00 -0.13820452205E+01  0.13820452205E+01  0.00000000000E+00 0. -1.
          2    1    1    2  502    0  0.24512686853E+02  0.39846109599E+02  0.20978247965E+04  0.20983463634E+04  0.00000000000E+00 0. -1.
         -2    1    1    2    0  502 -0.24512686853E+02 -0.39846109599E+02  0.48685228521E+03  0.48909480868E+03  0.00000000000E+00 0. -1.
</event>
<event>
 4    1  0.5953944E+003  0.2354526E+02  0.7546771E-02  0.1485763E+00
          2   -1    0    0  501    0  0.00000000000E+00  0.00000000000E+00  0.15919452351E+04  0.15919452351E+04  0.00000000000E+00 0. -1.
         -2   -1    0    0    0  501 -0.00000000000E+00 -0.00000000000E+00 -0.37257503881E+00  0.37257503881E+00  0.00000000000E+00 0.  1.
          2    1    1    2  502    0  0.17056834850E+02 -0.16230941742E+02  0.99926011960E+03  0.99953747589E+03  0.00000000000E+00 0. -1.
         -2    1    1    2    0  502 -0.17056834850E+02  0.16230941742E+02  0.59231254048E+03  0.59278033427E+03  0.00000000000E+00 0.  1.
</event>
<event>
 4    1  0.5953944E+003  0.2269508E+02  0.7546771E-02  0.1496363E+00
          2   -1    0    0  501    0  0.00000000000E+00  0.00000000000E+00  0.29946549353E+03  0.29946549353E+03  0.00000000000E+00 0. -1.
         -2   -1    0    0    0  501 -0.00000000000E+00 -0.00000000000E+00 -0.21621166277E+01  0.21621166277E+01  0.00000000000E+00 0. -1.
          2    1    1    2  502    0  0.15540451254E+02  0.16539683787E+02  0.21685300108E+03  0.21803736111E+03  0.00000000000E+00 0. -1.
         -2    1    1    2    0  502 -0.15540451254E+02 -0.16539683787E+02  0.80450375824E+02  0.83590249044E+02  0.00000000000E+00 0. -1.
</event>
<event>
 4    1  0.5953944E+003  0.5916458E+02  0.7546771E-02  0.1262698E+00
          2   -1    0    0  501    0  0.00000000000E+00  0.00000000000E+00  0.94736113441E+03  0.94736113441E+03  0.00000000000E+00 0. -1.
         -2   -1    0    0    0  501 -0.00000000000E+00 -0.00000000000E+00 -0.55176785551E+01  0.55176785551E+01  0.00000000000E+00 0. -1.
          2    1    1    2  502    0 -0.21615501042E+02 -0.55074656356E+02  0.74475803201E+03  0.74710439290E+03  0.00000000000E+00 0. -1.
         -2    1    1    2    0  502  0.21615501042E+02  0.55074656356E+02  0.19708542385E+03  0.20577442006E+03  0.00000000000E+00 0. -1.
</event>
<event>
 4    1  0.5953944E+003  0.2012785E+02  0.7546771E-02  0.1532090E+00
          2   -1    0    0  501    0  0.00000000000E+00  0.00000000000E+00  0.50609844490E+01  0.50609844490E+01  0.00000000000E+00 0. -1.
         -2   -1    0    0    0  501 -0.00000000000E+00 -0.00000000000E+00 -0.92673101470E+02  0.92673101470E+02  0.00000000000E+00 0.  1.
          2    1    1    2  502    0 -0.12870981274E+02 -0.15474765289E+02 -0.25770623709E+02  0.32699473482E+02  0.00000000000E+00 0. -1.
         -2    1    1    2    0  502  0.12870981274E+02  0.15474765289E+02 -0.61841493312E+02  0.65034612437E+02  0.00000000000E+00 0.  1.
</event>
<event>
 4    1  0.5953944E+003  0.2395848E+02  0.7546771E-02  0.1480801E+00
          2   -1    0    0  501    0  0.00000000000E+00  0.00000000000E+00  0.16071957611E+03  0.16071957611E+03  0.00000000000E+00 0. -1.
         -2   -1    0    0    0  501 -0.00000000000E+00 -0.00000000000E+00 -0.15839641944E+02  0.15839641944E+02  0.00000000000E+00 0. -1.
          2    1    1    2  502    0  0.53199301634E+01 -0.23360378417E+02  0.15013213327E+03  0.15203179397E+03  0.00000000000E+00 0. -1.
         -2    1    1    2    0  502 -0.53199301634E+01  0.23360378417E+02 -0.52521991063E+01  0.24527424084E+02  0.00000000000E+00 0. -1.
</event>
<event>
 4    1  0.5953944E+003  0.2124367E+02  0.7546771E-02  0.1515814E+00
          2   -1    0    0  501    0  0.00000000000E+00  0.00000000000E+00  0.90541600054E+03  0.90541600054E+03  0.00000000000E+00 0. -1.
         -2   -1    0    0    0  501 -0.00000000000E+00 -0.00000000000E+00 -0.14512148848E+02  0.14512148848E+02  0.00000000000E+00 0. -1.
          2    1    1    2  502    0  0.21123969545E+02  0.22519872963E+01  0.89744796607E+03  0.89769936245E+03  0.00000000000E+00 0. -1.
         -2    1    1    2    0  502 -0.21123969545E+02 -0.22519872963E+01 -0.65441143731E+01  0.22228786945E+02  0.00000000000E+00 0. -1.
</event>
<event>
 4    1  0.5953944E+003  0.2269871E+02  0.7546771E-02  0.1496317E+00
          2   -1    0    0  501    0  0.00000000000E+00  0.00000000000E+00  0.43332301677E+01  0.43332301677E+01  0.00000000000E+00 0.  1.
         -2   -1    0    0    0  501 -0.00000000000E+00 -0.00000000000E+00 -0.16802132325E+03  0.16802132325E+03  0.00000000000E+00 0. -1.
          2    1    1    2  502    0  0.76338798970E+01 -0.21376510341E+02 -0.35249494850E+02  0.41925627054E+02  0.00000000000E+00 0.  1.
         -2    1    1    2    0  502 -0.76338798970E+01  0.21376510341E+02 -0.12843859823E+03  0.13042892637E+03  0.00000000000E+00 0. -1.
</event>
<event>
 4    1  0.5953944E+003  0.2870225E+02  0.7546771E-02  0.1431219E+00
          2   -1    0    0  501    0  0.00000000000E+00  0.00000000000E+00  0.12515267978E+02  0.12515267978E+02  0.00000000000E+00 0. -1.
         -2   -1    0    0    0  501 -0.00000000000E+00 -0.00000000000E+00 -0.27041812943E+03  0.27041812943E+03  0.00000000000E+00 0.  1.
          2    1    1    2  502    0 -0.25215670302E+02  0.13710903936E+02 -0.59014016775E+01  0.29302652734E+02  0.00000000000E+00 0. -1.
         -2    1    1    2    0  502  0.25215670302E+02 -0.13710903936E+02 -0.25200145977E+03  0.25363074467E+03  0.00000000000E+00 0.  1.
</event>
<event>
 4    1  0.5953944E+003  0.3800276E+02  0.7546771E-02  0.1360604E+00
          2   -1    0    0  501    0  0.00000000000E+00  0.00000000000E+00  0.60815466670E+03  0.60815466670E+03  0.00000000000E+00 0.  1.
         -2   -1    0    0    0  501 -0.00000000000E+00 -0.00000000000E+00 -0.22627015881E+02  0.22627015881E+02  0.00000000000E+00 0. -1.
          2    1    1    2  502    0 -0.36761401432E+02  0.96337393431E+01  0.59114563803E+03  0.59236591304E+03  0.00000000000E+00 0.  1.
         -2    1    1    2    0  502  0.36761401432E+02 -0.96337393431E+01 -0.56179872139E+01  0.38415769539E+02  0.00000000000E+00 0. -1.
</event>
<event>
 4    1  0.5953944E+003  0.2539769E+02  0.7546771E-02  0.1464403E+00
          2   -1    0    0  501    0  0.00000000000E+00  0.00000000000E+00  0.33538168563E+02  0.33538168563E+02  0.00000000000E+00 0. -1.
         -2   -1    0    0    0  501 -0.00000000000E+00 -0.00000000000E+00 -0.84861929047E+02  0.84861929047E+02  0.00000000000E+00 0. -1.
          2    1    1    2  502    0  0.25036604999E+02  0.42674512225E+01  0.26399174722E+02  0.36632760691E+02  0.00000000000E+00 0. -1.
         -2    1    1    2    0  502 -0.25036604999E+02 -0.42674512225E+01 -0.77722935206E+02  0.81767336919E+02  0.00000000000E+00 0. -1.
</event>
<event>
 4    1  0.5953944E+003  0.2334464E+02  0.7546771E-02  0.1488215E+00
          2   -1    0    0  501    0  0.00000000000E+00  0.00000000000E+00  0.91421966260E+03  0.91421966260E+03  0.00000000000E+00 0. -1.
         -2   -1    0    0    0  501 -0.00000000000E+00 -0.00000000000E+00 -0.22230750248E+01  0.22230750248E+01  0.00000000000E+00 0. -1.
          2    1    1    2  502    0  0.69934346663E+01  0.22272498743E+02  0.84799990086E+03  0.84832116807E+03  0.00000000000E+00 0. -1.
         -2    1    1    2    0  502 -0.69934346663E+01 -0.22272498743E+02  0.63996686708E+02  0.68121569553E+02  0.00000000000E+00 0. -1.
</event>
<event>
 4    1  0.5953944E+003  0.2235689E+02  0.7546771E-02  0.1500736E+00
          2   -1    0    0  501    0  0.00000000000E+00  0.00000000000E+00  0.44745459040E+03  0.44745459040E+03  0.00000000000E+00 0.  1.
         -2   -1    0    0    0  501 -0.00000000000E+00 -0.00000000000E+00 -0.70829014717E+01  0.70829014717E+01  0.00000000000E+00 0.  1.
          2    1    1    2  502    0  0.13504315645E+02 -0.17817514499E+02  0.42876467828E+03  0.42934715523E+03  0.00000000000E+00 0.  1.
         -2    1    1    2    0  502 -0.13504315645E+02  0.17817514499E+02  0.11607010650E+02  0.25190336643E+02  0.00000000000E+00 0.  1.
</event>
<event>
 4    1  0.5953944E+003  0.3563620E+02  0.7546771E-02  0.1376145E+00
          2   -1    0    0  501    0  0.00000000000E+00  0.00000000000E+00  0.12090094276E+04  0.12090094276E+04  0.00000000000E+00 0.  1.
         -2   -1    0    0    0  501 -0.00000000000E+00 -0.00000000000E+00 -0.22798447563E+03  0.22798447563E+03  0.00000000000E+00 0. -1.
          2    1    1    2  502    0  0.50708617852E+01  0.35273577513E+02  0.12073523460E+04  0.12078781504E+04  0.00000000000E+00 0.  1.
         -2    1    1    2    0  502 -0.50708617852E+01 -0.35273577513E+02 -0.22632739401E+03  0.22911575282E+03  0.00000000000E+00 0. -1.
</event>
<event>
 4    1  0.5953944E+003  0.2952587E+02  0.7546771E-02  0.1423762E+00
          2   -1    0    0  501    0  0.00000000000E+00  0.00000000000E+00  0.43067957505E+02  0.43067957505E+02  0.00000000000E+00 0.  1.
         -2   -1    0    0    0  501 -0.00000000000E+00 -0.00000000000E+00 -0.68907097215E+02  0.68907097215E+02  0.00000000000E+00 0.  1.
          2    1    1    2  502    0 -0.16131281682E+02 -0.24729709855E+02  0.34131402695E+02  0.45130139022E+02  0.00000000000E+00 0.  1.
         -2    1    1    2    0  502  0.16131281682E+02  0.24729709855E+02 -0.59970542405E+02  0.66844915697E+02  0.00000000000E+00 0.  1.
</event>
<event>
 4    1  0.5953944E+003  0.2082499E+02  0.7546771E-02  0.1521778E+00
          2   -1    0    0  501    0  0.00000000000E+00  0.00000000000E+00  0.19079167710E+02  0.19079167710E+02  0.00000000000E+00 0. -1.
         -2   -1    0    0    0  501 -0.00000000000E+00 -0.00000000000E+00 -0.24573982755E+02  0.24573982755E+02  0.00000000000E+00 0. -1.
          2    1    1    2  502    0  0.20536329111E+02 -0.34553456424E+01  0.32306476745E+01  0.21074090995E+02  0.00000000000E+00 0. -1.
         -2    1    1    2    0  502 -0.20536329111E+02  0.34553456424E+01 -0.87254627199E+01  0.22579059470E+02  0.00000000000E+00 0. -1.
</event>
<event>
 4    1  0.5953944E+003  0.2048120E+02  0.7546771E-02  0.1526802E+00
          2   -1    0    0  501    0  0.00000000000E+00  0.00000000000E+00  0.11877846869E+04  0.11877846869E+04  0.00000000000E+00 0.  1.
         -2   -1    0    0    0  501 -0.00000000000E+00 -0.00000000000E+00 -0.13123169194E+02  0.13123169194E+02  0.00000000000E+00 0. -1.
          2    1    1    2  502    0  0.20183817834E+02 -0.34775301994E+01  0.11796500906E+04  0.11798278756E+04  0.00000000000E+00 0.  1.
         -2    1    1    2    0  502 -0.20183817834E+02  0.34775301994E+01 -0.49885729084E+01  0.21079980510E+02  0.00000000000E+00 0. -1.
</event>
<event>
 4    1  0.5953944E+003  0.2282941E+02  0.7546771E-02  0.1494651E+00
          2   -1    0    0  501    0  0.00000000000E+00  0.00000000000E+00  0.41998149025E+03  0.41998149025E+03  0.00000000000E+00 0. -1.
         -2   -1    0    0    0  501 -0.00000000000E+00 -0.00000000000E+00 -0.14864822988E+03  0.14864822988E+03  0.00000000000E+00 0. -1.
          2    1    1    2  502    0  0.18656814631E+02  0.13156952136E+02  0.41879222579E+03  0.41941400848E+03  0.00000000000E+00 0. -1.
         -2    1    1    2    0  502 -0.18656814631E+02 -0.13156952136E+02 -0.14745896542E+03  0.14921571166E+03  0.00000000000E+00 0. -1.
</event>
<event>
 4    1  0.5953944E+003  0.2700963E+02  0.7546771E-02  0.1447511E+00
          2   -1    0    0  501    0  0.00000000000E+00  0.00000000000E+00  0.11235917947E+03  0.11235917947E+03  0.00000000000E+00 0.  1.
         -2   -1    0    0    0  501 -0.00000000000E+00 -0.00000000000E+00 -0.65171476638E+01  0.65171476638E+01  0.00000000000E+00 0.  1.
          2    1    1    2  502    0  0.14102658686E+00 -0.27009250836E+02  0.49283928349E+02  0.56199867551E+02  0.00000000000E+00 0.  1.
         -2    1    1    2    0  502 -0.14102658686E+00  0.27009250836E+02  0.56558103459E+02  0.62676459585E+02  0.00000000000E+00 0.  1.
</event>
<event>
 4    1  0.5953944E+003  0.3295299E+02  0.7546771E-02  0.1395555E+00
          2   -1    0    0  501    0  0.00000000000E+00  0.00000000000E+00  0.49742827586E+02  0.49742827586E+02  0.00000000000E+00 0. -1.
         -2   -1    0    0    0  501 -0.00000000000E+00 -0.00000000000E+00 -0.33858072178E+02  0.33858072178E+02  0.00000000000E+00 0. -1.
          2    1    1    2  502    0  0.14128496190E+02 -0.29770537862E+02  0.32856350795E+02  0.46534278943E+02  0.00000000000E+00 0. -1.
         -2    1    1    2    0  502 -0.14128496190E+02  0.29770537862E+02 -0.16971595386E+02  0.37066620821E+02  0.00000000000E+00 0. -1.
</event>
<event>
 4    1  0.5953944E+003  0.2717613E+02  0.7546771E-02  0.1445847E+00
          2   -1    0    0  501    0  0.00000000000E+00  0.00000000000E+00  0.23608084183E+02  0.23608084183E+02  0.00000000000E+00 0. -1.
         -2   -1    0    0    0  501 -0.00000000000E+00 -0.00000000000E+00 -0.16031853742E+03  0.16031853742E+03  0.00000000000E+00 0.  1.
          2    1    1    2  502    0 -0.24474053934E+02 -0.11813667555E+02  0.14149087075E+02  0.30638843355E+02  0.00000000000E+00 0. -1.
         -2    1    1    2    0  502  0.24474053934E+02  0.11813667555E+02 -0.15085954031E+03  0.15328777825E+03  0.00000000000E+00 0.  1.
</event>
<event>
 4    1  0.5953944E+003  0.2039083E+02  0.7546771E-02  0.1528143E+00
          2   -1    0    0  501    0  0.00000000000E+00  0.00000000000E+00  0.10392052931E+04  0.10392052931E+04  0.00000000000E+00 0.  1.
         -2   -1    0    0    0  501 -0.00000000000E+00 -0.00000000000E+00 -0.83865459322E+00  0.83865459322E+00  0.00000000000E+00 0.  1.
          2    1    1    2  502    0  0.20004483940E+02  0.39504899952E+01  0.89523029471E+03  0.89546248738E+03  0.00000000000E+00 0.  1.
         -2    1    1    2    0  502 -0.20004483940E+02 -0.39504899952E+01  0.14313634375E+03  0.14458146026E+03  0.00000000000E+00 0.  1.
</event>
<event>
 4    1  0.5953944E+003  0.2458736E+02  0.7546771E-02  0.1473473E+00
          2   -1    0    0  501    0  0.00000000000E+00  0.00000000000E+00  0.56798527996E+01  0.56798527996E+01  0.00000000000E+00 0.  1.
         -2   -1    0    0    0  501 -0.00000000000E+00 -0.00000000000E+00 -0.10742476527E+03  0.10742476527E+03  0.00000000000E+00 0.  1.
          2    1    1    2  502    0  0.21433498654E+02 -0.12047557086E+02 -0.45445775426E+02  0.51670658989E+02  0.00000000000E+00 0.  1.
         -2    1    1    2    0  502 -0.21433498654E+02  0.12047557086E+02 -0.56299137042E+02  0.61433959078E+02  0.00000000000E+00 0.  1.
</event>
<event>
 4    1  0.5953944E+003  0.4386091E+02  0.7546771E-02  0.1327234E+00
          2   -1    0    0  501    0  0.00000000000E+00  0.00000000000E+00  0.85780243515E+03  0.85780243515E+03  0.00000000000E+00 0.  1.
         -2   -1    0    0    0  501 -0.00000000000E+00 -0.00000000000E+00 -0.18241815997E+03  0.18241815997E+03  0.00000000000E+00 0.  1.
          2    1    1    2  502    0 -0.38309677484E+02  0.21357630329E+02  0.85459537959E+03  0.85572018942E+03  0.00000000000E+00 0.  1.
         -2    1    1    2    0  502  0.38309677484E+02 -0.21357630329E+02 -0.17921110441E+03  0.18450040570E+03  0.00000000000E+00 0.  1.
</event>
<event>
 4    1  0.5953944E+003  0.2649542E+02  0.7546771E-02  0.1452744E+00
          2   -1    0    0  501    0  0.00000000000E+00  0.00000000000E+00  0.11864099420E+04  0.11864099420E+04  0.00000000000E+00 0. -1.
         -2   -1    0    0    0  501 -0.00000000000E+00 -0.00000000000E+00 -0.17530661472E+02  0.17530661472E+02  0.00000000000E+00 0.  1.
          2    1    1    2  502    0  0.72914292793E+00  0.26485384218E+02  0.11761636790E+04  0.11764620721E+04  0.00000000000E+00 0. -1.
         -2    1    1    2    0  502 -0.72914292793E+00 -0.26485384218E+02 -0.72843984746E+01  0.27478531397E+02  0.00000000000E+00 0.  1.
</event>
<event>
 4    1  0.5953944E+003  0.2035298E+02  0.7546771E-02  0.1528706E+00
          2   -1    0    0  501    0  0.00000000000E+00  0.00000000000E+00  0.42331707847E+02  0.42331707847E+02  0.00000000000E+00 0.  1.
         -2   -1    0    0    0  501 -0.00000000000E+00 -0.00000000000E+00 -0.25145286855E+02  0.25145286855E+02  0.00000000000E+00 0.  1.
          2    1    1    2  502    0 -0.18800367439E+02  0.77968050608E+01  0.34961847173E+02  0.40454601008E+02  0.00000000000E+00 0.  1.
         -2    1    1    2    0  502  0.18800367439E+02 -0.77968050608E+01 -0.17775426182E+02  0.27022393694E+02  0.00000000000E+00 0.  1.
</event>
<event>
 4    1  0.5953944E+003  0.2079789E+02  0.7546771E-02  0.1522170E+00
          2   -1    0    0  501    0  0.00000000000E+00  0.00000000000E+00  0.20629369489E+03  0.20629369489E+03  0.00000000000E+00 0. -1.
         -2   -1    0    0    0  501 -0.00000000000E+00 -0.00000000000E+00 -0.92672428371E+01  0.92672428371E+01  0.00000000000E+00 0. -1.
          2    1    1    2  502    0  0.10121348427E+02  0.18168948820E+02  0.19331978978E+03  0.19443531962E+03  0.00000000000E+00 0. -1.
         -2    1    1    2    0  502 -0.10121348427E+02 -0.18168948820E+02  0.37066622735E+01  0.21125618108E+02  0.00000000000E+00 0. -1.
</event>
<event>
 4    1  0.5953944E+003  0.2092890E+02  0.7546771E-02  0.1520282E+00
          2   -1    0    0  501    0  0.00000000000E+00  0.00000000000E+00  0.90391647402E+02  0.90391647402E+02  0.00000000000E+00 0.  1.
         -2   -1    0    0    0  501 -0.00000000000E+00 -0.00000000000E+00 -0.17919595794E+02  0.17919595794E+02  0.00000000000E+00 0.  1.
          2    1    1    2  502    0  0.98119504768E+01  0.18486331886E+02  0.82493346484E+02  0.85106821424E+02  0.00000000000E+00 0.  1.
         -2    1    1    2    0  502 -0.98119504768E+01 -0.18486331886E+02 -0.10021294877E+02  0.23204421772E+02  0.00000000000E+00 0.  1.
</event>
<event>
 4    1  0.5953944E+003  0.2019806E+02  0.7546771E-02  0.1531029E+00
          2   -1    0    0  501    0  0.00000000000E+00  0.00000000000E+00  0.20275144699E+01  0.20275144699E+01  0.00000000000E+00 0.  1.
         -2   -1    0    0    0  501 -0.00000000000E+00 -0.00000000000E+00 -0.77350550278E+03  0.77350550278E+03  0.00000000000E+00 0.  1.
          2    1    1    2  502    0 -0.14004451656E+02 -0.14554621915E+02 -0.52199143425E+02  0.55970637477E+02  0.00000000000E+00 0.  1.
         -2    1    1    2    0  502  0.14004451656E+02  0.14554621915E+02 -0.71927884489E+03  0.71956237978E+03  0.00000000000E+00 0.  1.
</event>
<event>
 4    1  0.5953944E+003  0.2518105E+02  0.7546771E-02  0.1466788E+00
          2   -1    0    0  501    0  0.00000000000E+00  0.00000000000E+00  0.60001618707E+03  0.60001618707E+03  0.00000000000E+00 0.  1.
         -2   -1    0    0    0  501 -0.00000000000E+00 -0.00000000000E+00 -0.14375948389E+01  0.14375948389E+01  0.00000000000E+00 0.  1.
          2    1    1    2  502    0 -0.12753328877E+02 -0.21712620304E+02  0.45406784837E+03  0.45476553981E+03  0.00000000000E+00 0.  1.
         -2    1    1    2    0  502  0.12753328877E+02  0.21712620304E+02  0.14451074386E+03  0.14668824209E+03  0.00000000000E+00 0.  1.
</event>
<event>
 4    1  0.5953944E+003  0.2368609E+02  0.7546771E-02  0.1484058E+00
          2   -1    0    0  501    0  0.00000000000E+00  0.00000000000E+00  0.33824189153E+01  0.33824189153E+01  0.00000000000E+00 0. -1.
         -2   -1    0    0    0  501 -0.00000000000E+00 -0.00000000000E+00 -0.61892813295E+03  0.61892813295E+03  0.00000000000E+00 0. -1.
          2    1    1    2  502    0  0.23585548324E+02 -0.21800730785E+01 -0.41555980265E+02  0.47832314434E+02  0.00000000000E+00 0. -1.
         -2    1    1    2    0  502 -0.23585548324E+02  0.21800730785E+01 -0.57398973377E+03  0.57447823743E+03  0.00000000000E+00 0. -1.
</event>
<event>
 4    1  0.5953944E+003  0.2001361E+02  0.7546771E-02  0.1533828E+00
          2   -1    0    0  501    0  0.00000000000E+00  0.00000000000E+00  0.18850554760E+03  0.18850554760E+03  0.00000000000E+00 0.  1.
         -2   -1    0    0    0  501 -0.00000000000E+00 -0.00000000000E+00 -0.20593837915E+03  0.20593837915E+03  0.00000000000E+00 0.  1.
          2    1    1    2  502    0  0.76629592325E+00 -0.19998935873E+02  0.18748545548E+03  0.18855063156E+03  0.00000000000E+00 0.  1.
         -2    1    1    2    0  502 -0.76629592325E+00  0.19998935873E+02 -0.20491828703E+03  0.20589329519E+03  0.00000000000E+00 0.  1.
</event>
<event>
 4    1  0.5953944E+003  0.2399964E+02  0.7546771E-02  0.1480313E+00
          2   -1    0    0  501    0  0.00000000000E+00  0.00000000000E+00  0.11172852301E+04  0.11172852301E+04  0.00000000000E+00 0.  1.
         -2   -1    0    0    0  501 -0.00000000000E+00 -0.00000000000E+00 -0.81360216444E+00  0.81360216444E+00  0.00000000000E+00 0. -1.
          2    1    1    2  502    0 -0.10575994401E+02  0.21543703453E+02  0.89662165990E+03  0.89694279852E+03  0.00000000000E+00 0.  1.
         -2    1    1    2    0  502  0.10575994401E+02 -0.21543703453E+02  0.21984996802E+03  0.22115603373E+03  0.00000000000E+00 0. -1.
</event>
<event>
 4    1  0.5953944E+003  0.3512683E+02  0.7546771E-02  0.1379674E+00
          2   -1    0    0  501    0  0.00000000000E+00  0.00000000000E+00  0.20403098865E+03  0.20403098865E+03  0.00000000000E+00 0. -1.
         -2   -1    0    0    0  501 -0.00000000000E+00 -0.00000000000E+00 -0.19071813590E+03  0.19071813590E+03  0.00000000000E+00 0. -1.
          2    1    1    2  502    0 -0.25983078468E+02  0.23638398483E+02  0.20087645263E+03  0.20392460241E+03  0.00000000000E+00 0. -1.
         -2    1    1    2    0  502  0.25983078468E+02 -0.23638398483E+02 -0.18756359988E+03  0.19082452214E+03  0.00000000000E+00 0. -1.
</event>
<event>
 4    1  0.5953944E+003  0.2101779E+02  0.7546771E-02  0.1519011E+00
          2   -1    0    0  501    0  0.00000000000E+00  0.00000000000E+00  0.18040710905E+03  0.18040710905E+03  0.00000000000E+00 0.  1.
         -2   -1    0    0    0  501 -0.00000000000E+00 -0.00000000000E+00 -0.34173331370E+02  0.34173331370E+02  0.00000000000E+00 0. -1.
          2    1    1    2  502    0  0.19905880764E+02  0.67456081812E+01  0.17649185031E+03  0.17773891117E+03  0.00000000000E+00 0.  1.
         -2    1    1    2    0  502 -0.19905880764E+02 -0.67456081812E+01 -0.30258072625E+02  0.36841529253E+02  0.00000000000E+00 0. -1.
</event>
<event>
 4    1  0.5953944E+003  0.2476710E+02  0.7546771E-02  0.1471426E+00
          2   -1    0    0  501    0  0.00000000000E+00  0.00000000000E+00  0.81460147890E+03  0.81460147890E+03  0.00000000000E+00 0.  1.
         -2   -1    0    0    0  501 -0.00000000000E+00 -0.00000000000E+00 -0.77428865977E+00  0.77428865977E+00  0.00000000000E+00 0.  1.
          2    1    1    2  502    0 -0.24214265877E+02 -0.52036902126E+01  0.47448660445E+03  0.47513255715E+03  0.00000000000E+00 0.  1.
         -2    1    1    2    0  502  0.24214265877E+02  0.52036902126E+01  0.33934058579E+03  0.34024321040E+03  0.00000000000E+00 0.  1.
</event>
<event>
 4    1  0.5953944E+003  0.2161784E+02  0.7546771E-02  0.1510624E+00
          2   -1    0    0  501    0  0.00000000000E+00  0.00000000000E+00  0.12130981702E+04  0.12130981702E+04  0.00000000000E+00 0. -1.
         -2   -1    0    0    0  501 -0.00000000000E+00 -0.00000000000E+00 -0.16607992771E+01  0.16607992771E+01  0.00000000000E+00 0. -1.
          2    1    1    2  502    0 -0.16579689397E+02  0.13872447916E+02  0.11380135705E+04  0.11382188795E+04  0.00000000000E+00 0. -1.
         -2    1    1    2    0  502  0.16579689397E+02 -0.13872447916E+02  0.73423800432E+02  0.76540090029E+02  0.00000000000E+00 0. -1.
</event>
<event>
 4    1  0.5953944E+003  0.2216797E+02  0.7546771E-02  0.1503219E+00
          2   -1    0    0  501    0  0.00000000000E+00  0.00000000000E+00  0.14762360840E+03  0.14762360840E+03  0.00000000000E+00 0.  1.
         -2   -1    0    0    0  501 -0.00000000000E+00 -0.00000000000E+00 -0.18862267008E+02  0.18862267008E+02  0.00000000000E+00 0.  1.
          2    1    1    2  502    0 -0.33312409656E+01  0.21916242678E+02  0.13992185071E+03  0.14166701509E+03  0.00000000000E+00 0.  1.
         -2    1    1    2    0  502  0.33312409656E+01 -0.21916242678E+02 -0.11160509312E+02  0.24818860320E+02  0.00000000000E+00 0.  1.
</event>
<event>
 4    1  0.5953944E+003  0.2755094E+02  0.7546771E-02  0.1442151E+00
          2   -1    0    0  501    0  0.00000000000E+00  0.00000000000E+00  0.38048507447E+03  0.38048507447E+03  0.00000000000E+00 0. -1.
         -2   -1    0    0    0  501 -0.00000000000E+00 -0.00000000000E+00 -0.76784778484E+01  0.76784778484E+01  0.00000000000E+00 0.  1.
          2    1    1    2  502    0  0.22099434765E+02  0.16452022567E+02  0.35337991140E+03  0.35445227583E+03  0.00000000000E+00 0. -1.
         -2    1    1    2    0  502 -0.22099434765E+02 -0.16452022567E+02  0.19426685223E+02  0.33711276485E+02  0.00000000000E+00 0.  1.
</event>
<event>
 4    1  0.5953944E+003  0.2665642E+02  0.7546771E-02  0.1451090E+00
          2   -1    0    0  501    0  0.00000000000E+00  0.00000000000E+00  0.93558511851E+03  0.93558511851E+03  0.00000000000E+00 0. -1.
         -2   -1    0    0    0  501 -0.00000000000E+00 -0.00000000000E+00 -0.17693771707E+01  0.17693771707E+01  0.00000000000E+00 0.  1.
          2    1    1    2  502    0 -0.26091240631E+02 -0.54600204880E+01  0.82098734411E+03  0.82141998019E+03  0.00000000000E+00 0. -1.
         -2    1    1    2    0  502  0.26091240631E+02  0.54600204880E+01  0.11282839722E+03  0.11593451549E+03  0.00000000000E+00 0.  1.
</event>
<event>
 4    1  0.5953944E+003  0.3457583E+02  0.7546771E-02  0.1383570E+00
          2   -1    0    0  501    0  0.00000000000E+00  0.00000000000E+00  0.24989155992E+03  0.24989155992E+03  0.00000000000E+00 0.  1.
         -2   -1    0    0    0  501 -0.00000000000E+00 -0.00000000000E+00 -0.72087254721E+01  0.72087254721E+01  0.00000000000E+00 0. -1.
          2    1    1    2  502    0  0.18911416065E+02 -0.28945579998E+02  0.19589561225E+03  0.19892355104E+03  0.00000000000E+00 0.  1.
         -2    1    1    2    0  502 -0.18911416065E+02  0.28945579998E+02  0.46787222197E+02  0.58176734353E+02  0.00000000000E+00 0. -1.
</event>
<event>
 4    1  0.5953944E+003  0.2359001E+02  0.7546771E-02  0.1485219E+00
          2   -1    0    0  501    0  0.00000000000E+00  0.00000000000E+00  0.11865903800E+04  0.11865903800E+04  0.00000000000E+00 0.  1.
         -2   -1    0    0    0  501 -0.00000000000E+00 -0.00000000000E+00 -0.18130366254E+01  0.18130366254E+01  0.00000000000E+00 0.  1.
          2    1    1    2  502    0 -0.11904211019E+02  0.20366108572E+02  0.11039988680E+04  0.11042508724E+04  0.00000000000E+00 0.  1.
         -2    1    1    2    0  502  0.11904211019E+02 -0.20366108572E+02  0.80778475388E+02  0.84152544253E+02  0.00000000000E+00 0.  1.
</event>
<event>
 4    1  0.5953944E+003  0.2420596E+02  0.7546771E-02  0.1477886E+00
          2   -1    0    0  501    0  0.00000000000E+00  0.00000000000E+00  0.73767494542E+03  0.73767494542E+03  0.00000000000E+00 0.  1.
         -2   -1    0    0    0  501 -0.00000000000E+00 -0.00000000000E+00 -0.41867965262E+01  0.41867965262E+01  0.00000000000E+00 0.  1.
          2    1    1    2  502    0  0.20248735905E+02  0.13263379138E+02  0.70064093597E+03  0.70105894880E+03  0.00000000000E+00 0.  1.
         -2    1    1    2    0  502 -0.20248735905E+02 -0.13263379138E+02  0.32847212926E+02  0.40802793151E+02  0.00000000000E+00 0.  1.
</event>
<event>
 4    1  0.5953944E+003  0.5262188E+02  0.7546771E-02  0.1287188E+00
          2   -1    0    0  501    0  0.00000000000E+00  0.00000000000E+00  0.10811155630E+03  0.10811155630E+03  0.00000000000E+00 0.  1.
         -2   -1    0    0    0  501 -0.00000000000E+00 -0.00000000000E+00 -0.29076003194E+02  0.29076003194E+02  0.00000000000E+00 0.  1.
          2    1    1    2  502    0 -0.25761465492E+00  0.52621253114E+02  0.63190217504E+02  0.82231783592E+02  0.00000000000E+00 0.  1.
         -2    1    1    2    0  502  0.25761465492E+00 -0.52621253114E+02  0.15845335603E+02  0.54955775902E+02  0.00000000000E+00 0.  1.
</event>
<event>
 4    1  0.5953944E+003  0.5513187E+02  0.7546771E-02  0.1277335E+00
          2   -1    0    0  501    0  0.00000000000E+00  0.00000000000E+00  0.99864184540E+02  0.99864184540E+02  0.00000000000E+00 0.  1.
         -2   -1    0    0    0  501 -0.00000000000E+00 -0.00000000000E+00 -0.13690084934E+03  0.13690084934E+03  0.00000000000E+00 0. -1.
          2    1    1    2  502    0  0.33267042130E+02 -0.43963928312E+02  0.85878293051E+02  0.10205196863E+03  0.00000000000E+00 0.  1.
         -2    1    1    2    0  502 -0.33267042130E+02  0.43963928312E+02 -0.12291495785E+03  0.13471306524E+03  0.00000000000E+00 0. -1.
</event>
<event>
 4    1  0.5953944E+003  0.2269518E+02  0.7546771E-02  0.1496362E+00
          2   -1    0    0  501    0  0.00000000000E+00  0.00000000000E+00  0.29564826534E+02  0.29564826534E+02  0.00000000000E+00 0. -1.
         -2   -1    0    0    0  501 -0.00000000000E+00 -0.00000000000E+00 -0.10369178508E+03  0.10369178508E+03  0.00000000000E+00 0. -1.
          2    1    1    2  502    0  0.14314143696E+02  0.17611831065E+02  0.23710343883E+02  0.32821512919E+02  0.00000000000E+00 0. -1.
         -2    1    1    2    0  502 -0.14314143696E+02 -0.17611831065E+02 -0.97837302430E+02  0.10043509870E+03  0.00000000000E+00 0. -1.
</event>
<event>
 4    1  0.5953944E+003  0.3086198E+02  0.7546771E-02  0.1412251E+00
          2   -1    0    0  501    0  0.00000000000E+00  0.00000000000E+00  0.10871663928E+03  0.10871663928E+03  0.00000000000E+00 0.  1.
         -2   -1    0    0    0  501 -0.00000000000E+00 -0.00000000000E+00 -0.23036703645E+02  0.23036703645E+02  0.00000000000E+00 0.  1.
          2    1    1    2  502    0  0.10176759246E+02  0.29135807630E+02  0.94698582118E+02  0.99600618322E+02  0.00000000000E+00 0.  1.
         -2    1    1    2    0  502 -0.10176759246E+02 -0.29135807630E+02 -0.90186464834E+01  0.32152724603E+02  0.00000000000E+00 0.  1.
</event>
<event>
 4    1  0.5953944E+003  0.2191953E+02  0.7546771E-02  0.1506530E+00
          2   -1    0    0  501    0  0.00000000000E+00  0.00000000000E+00  0.13894496127E+04  0.13894496127E+04  0.00000000000E+00 0. -1.
         -2   -1    0    0    0  501 -0.00000000000E+00 -0.00000000000E+00 -0.78549146295E+02  0.78549146295E+02  0.00000000000E+00 0.  1.
          2    1    1    2  502    0 -0.14086987571E+02  0.16793534078E+02  0.13878321925E+04  0.13880052811E+04  0.00000000000E+00 0. -1.
         -2    1    1    2    0  502  0.14086987571E+02 -0.16793534078E+02 -0.76931726125E+02  0.79993477799E+02  0.00000000000E+00 0.  1.
</event>
<event>
 4    1  0.5953944E+003  0.3700998E+02  0.7546771E-02  0.1366958E+00
          2   -1    0    0  501    0  0.00000000000E+00  0.00000000000E+00  0.13848016140E+04  0.13848016140E+04  0.00000000000E+00 0. -1.
         -2   -1    0    0    0  501 -0.00000000000E+00 -0.00000000000E+00 -0.10433473077E+01  0.10433473077E+01  0.00000000000E+00 0.  1.
          2    1    1    2  502    0 -0.30060730577E+02 -0.21589145633E+02  0.84984685394E+03  0.85065234608E+03  0.00000000000E+00 0. -1.
         -2    1    1    2    0  502  0.30060730577E+02  0.21589145633E+02  0.53391141277E+03  0.53519261525E+03  0.00000000000E+00 0.  1.
</event>
<event>
 4    1  0.5953944E+003  0.2000031E+02  0.7546771E-02  0.1534031E+00
          2   -1    0    0  501    0  0.00000000000E+00  0.00000000000E+00  0.95572412800E+02  0.95572412800E+02  0.00000000000E+00 0.  1.
         -2   -1    0    0    0  501 -0.00000000000E+00 -0.00000000000E+00 -0.86981775119E+01  0.86981775119E+01  0.00000000000E+00 0. -1.
          2    1    1    2  502    0 -0.12549927552E+01 -0.19960893434E+02  0.80989535429E+02  0.83422521674E+02  0.00000000000E+00 0.  1.
         -2    1    1    2    0  502  0.12549927552E+01  0.19960893434E+02  0.58846998590E+01  0.20848068638E+02  0.00000000000E+00 0. -1.
</event>
<event>
 4    1  0.5953944E+003  0.2811828E+02  0.7546771E-02  0.1436687E+00
          2   -1    0    0  501    0  0.00000000000E+00  0.00000000000E+00  0.70941334254E+02  0.70941334254E+02  0.00000000000E+00 0. -1.
         -2   -1    0    0    0  501 -0.00000000000E+00 -0.00000000000E+00 -0.19996787084E+02  0.19996787084E+02  0.00000000000E+00 0.  1.
          2    1    1    2  502    0 -0.25353626844E+02 -0.12158579083E+02  0.55724172514E+02  0.62416510971E+02  0.00000000000E+00 0. -1.
         -2    1    1    2    0  502  0.25353626844E+02  0.12158579083E+02 -0.47796253440E+01  0.28521610367E+02  0.00000000000E+00 0.  1.
</event>
<event>
 4    1  0.5953944E+003  0.2217876E+02  0.7546771E-02  0.1503076E+00
          2   -1    0    0  501    0  0.00000000000E+00  0.00000000000E+00  0.98638826111E+03  0.98638826111E+03  0.00000000000E+00 0. -1.
         -2   -1    0    0    0  501 -0.00000000000E+00 -0.00000000000E+00 -0.69785897032E+00  0.69785897032E+00  0.00000000000E+00 0. -1.
          2    1    1    2  502    0  0.20553239113E+02 -0.83343655001E+01  0.75651307894E+03  0.75683811737E+03  0.00000000000E+00 0. -1.
         -2    1    1    2    0  502 -0.20553239113E+02  0.83343655001E+01  0.22917732319E+03  0.23024800271E+03  0.00000000000E+00 0. -1.
</event>
<event>
 4    1  0.5953944E+003  0.2034326E+02  0.7546771E-02  0.1528851E+00
          2   -1    0    0  501    0  0.00000000000E+00  0.00000000000E+00  0.13775962321E+03  0.13775962321E+03  0.00000000000E+00 0. -1.
         -2   -1    0    0    0  501 -0.00000000000E+00 -0.00000000000E+00 -0.34925802876E+01  0.34925802876E+01  0.00000000000E+00 0.  1.
          2    1    1    2  502    0  0.14791262970E+02  0.13966627181E+02  0.93545515737E+02  0.95731978197E+02  0.00000000000E+00 0. -1.
         -2    1    1    2    0  502 -0.14791262970E+02 -0.13966627181E+02  0.40721527184E+02  0.45520225299E+02  0.00000000000E+00 0.  1.
</event>
<event>
 4    1  0.5953944E+003  0.3092225E+02  0.7546771E-02  0.1411748E+00
          2   -1    0    0  501    0  0.00000000000E+00  0.00000000000E+00  0.10389127432E+04  0.10389127432E+04  0.00000000000E+00 0. -1.
         -2   -1    0    0    0  501 -0.00000000000E+00 -0.00000000000E+00 -0.25969338553E+01  0.25969338553E+01  0.00000000000E+00 0.  1.
          2    1    1    2  502    0  0.30922191536E+02  0.62333872981E-01  0.93657816775E+03  0.93708849642E+03  0.00000000000E+00 0. -1.
         -2    1    1    2    0  502 -0.30922191536E+02 -0.62333872981E-01  0.99737641626E+02  0.10442118067E+03  0.00000000000E+00 0.  1.
</event>
<event>
 4    1  0.5953944E+003  0.2265363E+02  0.7546771E-02  0.1496894E+00
          2   -1    0    0  501    0  0.00000000000E+00  0.00000000000E+00  0.58851566583E+03  0.58851566583E+03  0.00000000000E+00 0. -1.
         -2   -1    0    0    0  501 -0.00000000000E+00 -0.00000000000E+00 -0.43272272532E+01  0.43272272532E+01  0.00000000000E+00 0. -1.
          2    1    1    2  502    0 -0.19445558171E+02 -0.11621411909E+02  0.55697042179E+03  0.55743092639E+03  0.00000000000E+00 0. -1.
         -2    1    1    2    0  502  0.19445558171E+02  0.11621411909E+02  0.27218016791E+02  0.35411966697E+02  0.00000000000E+00 0. -1.
</event>
<event>
 4    1  0.5953944E+003  0.3052554E+02  0.7546771E-02  0.1415083E+00
          2   -1    0    0  501    0  0.00000000000E+00  0.00000000000E+00  0.19738396298E+04  0.19738396298E+04  0.00000000000E+00 0.  1.
         -2   -1    0    0    0  501 -0.00000000000E+00 -0.00000000000E+00 -0.65612172264E+00  0.65612172264E+00  0.00000000000E+00 0. -1.
          2    1    1    2  502    0  0.20835707505E+02  0.22308782344E+02  0.15094611007E+04  0.15097697251E+04  0.00000000000E+00 0.  1.
         -2    1    1    2    0  502 -0.20835707505E+02 -0.22308782344E+02  0.46372240737E+03  0.46472602636E+03  0.00000000000E+00 0. -1.
</event>
<event>
 4    1  0.5953944E+003  0.2048923E+02  0.7546771E-02  0.1526684E+00
          2   -1    0    0  501    0  0.00000000000E+00  0.00000000000E+00  0.40230105642E+03  0.40230105642E+03  0.00000000000E+00 0. -1.
         -2   -1    0    0    0  501 -0.00000000000E+00 -0.00000000000E+00 -0.15675368233E+01  0.15675368233E+01  0.00000000000E+00 0. -1.
          2    1    1    2  502    0  0.10297440216E+02 -0.17713591195E+02  0.31712148172E+03  0.31778269739E+03  0.00000000000E+00 0. -1.
         -2    1    1    2    0  502 -0.10297440216E+02  0.17713591195E+02  0.83612037871E+02  0.86085895854E+02  0.00000000000E+00 0. -1.
</event>
<event>
 4    1  0.5953944E+003  0.2622443E+02  0.7546771E-02  0.1455558E+00
          2   -1    0    0  501    0  0.00000000000E+00  0.00000000000E+00  0.32496286320E+01  0.32496286320E+01  0.00000000000E+00 0. -1.
         -2   -1    0    0    0  501 -0.00000000000E+00 -0.00000000000E+00 -0.30154964398E+03  0.30154964398E+03  0.00000000000E+00 0. -1.
          2    1    1    2  502    0 -0.19158856805E+02  0.17906935886E+02 -0.23237061652E+03  0.23384572600E+03  0.00000000000E+00 0. -1.
         -2    1    1    2    0  502  0.19158856805E+02 -0.17906935886E+02 -0.65929398832E+02  0.70953546615E+02  0.00000000000E+00 0. -1.
</event>
<event>
 4    1  0.5953944E+003  0.2132321E+02  0.7546771E-02  0.1514700E+00
          2   -1    0    0  501    0  0.00000000000E+00  0.00000000000E+00  0.68750827309E+03  0.68750827309E+03  0.00000000000E+00 0.  1.
         -2   -1    0    0    0  501 -0.00000000000E+00 -0.00000000000E+00 -0.25298712753E+01  0.25298712753E+01  0.00000000000E+00 0.  1.
          2    1    1    2  502    0  0.10415665294E+02 -0.18606264728E+02  0.63900214887E+03  0.63935782268E+03  0.00000000000E+00 0.  1.
         -2    1    1    2    0  502 -0.10415665294E+02  0.18606264728E+02  0.45976252953E+02  0.50680321687E+02  0.00000000000E+00 0.  1.
</event>
<event>
 4    1  0.5953944E+003  0.7176184E+02  0.7546771E-02  0.1224383E+00
          2   -1    0    0  501    0  0.00000000000E+00  0.00000000000E+00  0.23897686809E+03  0.23897686809E+03  0.00000000000E+00 0.  1.
         -2   -1    0    0    0  501 -0.00000000000E+00 -0.00000000000E+00 -0.11304234439E+03  0.11304234439E+03  0.00000000000E+00 0. -1.
          2    1    1    2  502    0  0.71588199162E+02  0.49891561697E+01  0.22131434003E+03  0.23265811621E+03  0.00000000000E+00 0.  1.
         -2    1    1    2    0  502 -0.71588199162E+02 -0.49891561697E+01 -0.95379816330E+02  0.11936109627E+03  0.00000000000E+00 0. -1.
</event>
<event>
 4    1  0.5953944E+003  0.2349462E+02  0.7546771E-02  0.1486379E+00
          2   -1    0    0  501    0  0.00000000000E+00  0.00000000000E+00  0.33841483174E+03  0.33841483174E+03  0.00000000000E+00 0. -1.
         -2   -1    0    0    0  501 -0.00000000000E+00 -0.00000000000E+00 -0.24294251443E+02  0.24294251443E+02  0.00000000000E+00 0.  1.
          2    1    1    2  502    0 -0.18072474616E+02  0.15012761909E+02  0.33222095001E+03  0.33305068230E+03  0.00000000000E+00 0. -1.
         -2    1    1    2    0  502  0.18072474616E+02 -0.15012761909E+02 -0.18100369712E+02  0.29658400878E+02  0.00000000000E+00 0.  1.
</event>
<event>
 4    1  0.5953944E+003  0.3322318E+02  0.7546771E-02  0.1393504E+00
          2   -1    0    0  501    0  0.00000000000E+00  0.00000000000E+00  0.70344311571E+03  0.70344311571E+03  0.00000000000E+00 0. -1.
         -2   -1    0    0    0  501 -0.00000000000E+00 -0.00000000000E+00 -0.30694778619E+03  0.30694778619E+03  0.00000000000E+00 0.  1.
          2    1    1    2  502    0  0.46885959874E+00  0.33219868660E+02  0.70215018764E+03  0.70293574778E+03  0.00000000000E+00 0. -1.
         -2    1    1    2    0  502 -0.46885959874E+00 -0.33219868660E+02 -0.30565485812E+03  0.30745515412E+03  0.00000000000E+00 0.  1.
</event>
<event>
 4    1  0.5953944E+003  0.2625099E+02  0.7546771E-02  0.1455281E+00
          2   -1    0    0  501    0  0.00000000000E+00  0.00000000000E+00  0.62514283903E+03  0.62514283903E+03  0.00000000000E+00 0. -1.
         -2   -1    0    0    0  501 -0.00000000000E+00 -0.00000000000E+00 -0.15041651047E+01  0.15041651047E+01  0.00000000000E+00 0. -1.
          2    1    1    2  502    0  0.36180176163E+01 -0.26000467999E+02  0.47376471783E+03  0.47449143538E+03  0.00000000000E+00 0. -1.
         -2    1    1    2    0  502 -0.36180176163E+01  0.26000467999E+02  0.14987395610E+03  0.15215556876E+03  0.00000000000E+00 0. -1.
</event>
<event>
 4    1  0.5953944E+003  0.2377736E+02  0.7546771E-02  0.1482961E+00
          2   -1    0    0  501    0  0.00000000000E+00  0.00000000000E+00  0.39569485280E+03  0.39569485280E+03  0.00000000000E+00 0.  1.
         -2   -1    0    0    0  501 -0.00000000000E+00 -0.00000000000E+00 -0.12596597697E+02  0.12596597697E+02  0.00000000000E+00 0. -1.
          2    1    1    2  502    0  0.11245751280E+02  0.20949838587E+02  0.38376875528E+03  0.38450464261E+03  0.00000000000E+00 0.  1.
         -2    1    1    2    0  502 -0.11245751280E+02 -0.20949838587E+02 -0.67050018343E+00  0.23786807881E+02  0.00000000000E+00 0. -1.
</event>
<event>
 4    1  0.5953944E+003  0.2434784E+02  0.7546771E-02  0.1476233E+00
          2   -1    0    0  501    0  0.00000000000E+00  0.00000000000E+00  0.15799647277E+04  0.15799647277E+04  0.00000000000E+00 0.  1.
         -2   -1    0    0    0  501 -0.00000000000E+00 -0.00000000000E+00 -0.63364183190E+00  0.63364183190E+00  0.00000000000E+00 0.  1.
          2    1    1    2  502    0  0.24332093401E+02  0.87561330915E+00  0.12943770427E+04  0.12946060197E+04  0.00000000000E+00 0.  1.
         -2    1    1    2    0  502 -0.24332093401E+02 -0.87561330915E+00  0.28495404310E+03  0.28599234980E+03  0.00000000000E+00 0.  1.
</event>
<event>
 4    1  0.5953944E+003  0.4881833E+02  0.7546771E-02  0.1303379E+00
          2   -1    0    0  501    0  0.00000000000E+00  0.00000000000E+00  0.15274008049E+04  0.15274008049E+04  0.00000000000E+00 0.  1.
         -2   -1    0    0    0  501 -0.00000000000E+00 -0.00000000000E+00 -0.13968446732E+04  0.13968446732E+04  0.00000000000E+00 0.  1.
          2    1    1    2  502    0 -0.37158040301E+02  0.31662428091E+02  0.15265839595E+04  0.15273643359E+04  0.00000000000E+00 0.  1.
         -2    1    1    2    0  502  0.37158040301E+02 -0.31662428091E+02 -0.13960278278E+04  0.13968811421E+04  0.00000000000E+00 0.  1.
</event>
<event>
 4    1  0.5953944E+003  0.4108341E+02  0.7546771E-02  0.1342251E+00
          2   -1    0    0  501    0  0.00000000000E+00  0.00000000000E+00  0.66453023696E+03  0.66453023696E+03  0.00000000000E+00 0.  1.
         -2   -1    0    0    0  501 -0.00000000000E+00 -0.00000000000E+00 -0.25409004989E+01  0.25409004989E+01  0.00000000000E+00 0.  1.
          2    1    1    2  502    0  0.13679931798E+01 -0.41060611254E+02  0.32440041224E+03  0.32699154830E+03  0.00000000000E+00 0.  1.
         -2    1    1    2    0  502 -0.13679931798E+01  0.41060611254E+02  0.33758892423E+03  0.34007958916E+03  0.00000000000E+00 0.  1.
</event>
<event>
 4    1  0.5953944E+003  0.2174218E+02  0.7546771E-02  0.1508927E+00
          2   -1    0    0  501    0  0.00000000000E+00  0.00000000000E+00  0.47030126778E+01  0.47030126778E+01  0.00000000000E+00 0. -1.
         -2   -1    0    0    0  501 -0.00000000000E+00 -0.00000000000E+00 -0.44347265624E+03  0.44347265624E+03  0.00000000000E+00 0.  1.
          2    1    1    2  502    0  0.44180849613E+01  0.21288565733E+02 -0.22321764189E+02  0.31160610748E+02  0.00000000000E+00 0. -1.
         -2    1    1    2    0  502 -0.44180849613E+01 -0.21288565733E+02 -0.41644787938E+03  0.41701505817E+03  0.00000000000E+00 0.  1.
</event>
<event>
 4    1  0.5953944E+003  0.3568633E+02  0.7546771E-02  0.1375801E+00
          2   -1    0    0  501    0  0.00000000000E+00  0.00000000000E+00  0.91084437641E+03  0.91084437641E+03  0.00000000000E+00 0. -1.
         -2   -1    0    0    0  501 -0.00000000000E+00 -0.00000000000E+00 -0.56039864889E+01  0.56039864889E+01  0.00000000000E+00 0.  1.
          2    1    1    2  502    0 -0.28830963146E+02  0.21030687965E+02  0.84958744722E+03  0.85033660673E+03  0.00000000000E+00 0. -1.
         -2    1    1    2    0  502  0.28830963146E+02 -0.21030687965E+02  0.55652942694E+02  0.66111756161E+02  0.00000000000E+00 0.  1.
</event>
<event>
 4    1  0.5953944E+003  0.2433127E+02  0.7546771E-02  0.1476425E+00
          2   -1    0    0  501    0  0.00000000000E+00  0.00000000000E+00  0.72713476951E+03  0.72713476951E+03  0.00000000000E+00 0. -1.
         -2   -1    0    0    0  501 -0.00000000000E+00 -0.00000000000E+00 -0.14694019821E+02  0.14694019821E+02  0.00000000000E+00 0. -1.
          2    1    1    2  502    0 -0.23110524543E+02 -0.76101606726E+01  0.71671248997E+03  0.71712537549E+03  0.00000000000E+00 0. -1.
         -2    1    1    2    0  502  0.23110524543E+02  0.76101606726E+01 -0.42717402873E+01  0.24703413837E+02  0.00000000000E+00 0. -1.
</event>
<event>
 4    1  0.5953944E+003  0.4431438E+02  0.7546771E-02  0.1324904E+00
          2   -1    0    0  501    0  0.00000000000E+00  0.00000000000E+00  0.15217500100E+02  0.15217500100E+02  0.00000000000E+00 0.  1.
         -2   -1    0    0    0  501 -0.00000000000E+00 -0.00000000000E+00 -0.75452248048E+03  0.75452248048E+03  0.00000000000E+00 0. -1.
          2    1    1    2  502    0  0.22070203639E+02  0.38427467463E+02 -0.19236998633E+02  0.48309691167E+02  0.00000000000E+00 0.  1.
         -2    1    1    2    0  502 -0.22070203639E+02 -0.38427467463E+02 -0.72006798175E+03  0.72143028941E+03  0.00000000000E+00 0. -1.
</event>
<event>
 4    1  0.5953944E+003  0.2253847E+02  0.7546771E-02  0.1498376E+00
          2   -1    0    0  501    0  0.00000000000E+00  0.00000000000E+00  0.23180424999E+04  0.23180424999E+04  0.00000000000E+00 0. -1.
         -2   -1    0    0    0  501 -0.00000000000E+00 -0.00000000000E+00 -0.21999002578E+00  0.21999002578E+00  0.00000000000E+00 0. -1.
          2    1    1    2  502    0  0.17234028927E+02  0.14524833371E+02  0.12308407621E+04  0.12310471007E+04  0.00000000000E+00 0. -1.
         -2    1    1    2    0  502 -0.17234028927E+02 -0.14524833371E+02  0.10869817478E+04  0.10872153893E+04  0.00000000000E+00 0. -1.
</event>
<event>
 4    1  0.5953944E+003  0.2148418E+02  0.7546771E-02  0.1512463E+00
          2   -1    0    0  501    0  0.00000000000E+00  0.00000000000E+00  0.37730979317E+03  0.37730979317E+03  0.00000000000E+00 0.  1.
         -2   -1    0    0    0  501 -0.00000000000E+00 -0.00000000000E+00 -0.23915350853E+01  0.23915350853E+01  0.00000000000E+00 0.  1.
          2    1    1    2  502    0  0.53221546169E+01  0.20814524910E+02  0.32014832451E+03  0.32086838339E+03  0.00000000000E+00 0.  1.
         -2    1    1    2    0  502 -0.53221546169E+01 -0.20814524910E+02  0.54769933576E+02  0.58832944860E+02  0.00000000000E+00 0.  1.
</event>
<event>
 4    1  0.5953944E+003  0.4152428E+02  0.7546771E-02  0.1339778E+00
          2   -1    0    0  501    0  0.00000000000E+00  0.00000000000E+00  0.27809560596E+03  0.27809560596E+03  0.00000000000E+00 0.  1.
         -2   -1    0    0    0  501 -0.00000000000E+00 -0.00000000000E+00 -0.23446936341E+02  0.23446936341E+02  0.00000000000E+00 0. -1.
          2    1    1    2  502    0  0.29127905324E+02  0.29594439507E+02  0.25663317641E+03  0.25997086943E+03  0.00000000000E+00 0.  1.
         -2    1    1    2    0  502 -0.29127905324E+02 -0.29594439507E+02 -0.19845067875E+01  0.41571672874E+02  0.00000000000E+00 0. -1.
</event>
<event>
 4    1  0.5953944E+003  0.7735879E+02  0.7546771E-02  0.1210116E+00
          2   -1    0    0  501    0  0.00000000000E+00  0.00000000000E+00  0.33470405628E+03  0.33470405628E+03  0.00000000000E+00 0. -1.
         -2   -1    0    0    0  501 -0.00000000000E+00 -0.00000000000E+00 -0.39894364457E+02  0.39894364457E+02  0.00000000000E+00 0.  1.
          2    1    1    2  502    0 -0.31781339392E+02 -0.70528922210E+02  0.28654002905E+03  0.29679887239E+03  0.00000000000E+00 0. -1.
         -2    1    1    2    0  502  0.31781339392E+02  0.70528922210E+02  0.82696627769E+01  0.77799548354E+02  0.00000000000E+00 0.  1.
</event>
<event>
 4    1  0.5953944E+003  0.4226851E+02  0.7546771E-02  0.1335682E+00
          2   -1    0    0  501    0  0.00000000000E+00  0.00000000000E+00  0.31479626159E+03  0.31479626159E+03  0.00000000000E+00 0. -1.
         -2   -1    0    0    0  501 -0.00000000000E+00 -0.00000000000E+00 -0.13422051759E+02  0.13422051759E+02  0.00000000000E+00 0. -1.
          2    1    1    2  502    0  0.23871243653E+01 -0.42201050873E+02  0.27536156459E+03  0.27858682365E+03  0.00000000000E+00 0. -1.
         -2    1    1    2    0  502 -0.23871243653E+01  0.42201050873E+02  0.26012645246E+02  0.49631489704E+02  0.00000000000E+00 0. -1.
</event>
<event>
 4    1  0.5953944E+003  0.2718930E+02  0.7546771E-02  0.1445716E+00
          2   -1    0    0  501    0  0.00000000000E+00  0.00000000000E+00  0.28030812073E+03  0.28030812073E+03  0.00000000000E+00 0.  1.
         -2   -1    0    0    0  501 -0.00000000000E+00 -0.00000000000E+00 -0.50850856019E+01  0.50850856019E+01  0.00000000000E+00 0.  1.
          2    1    1    2  502    0 -0.26913550363E+02 -0.38624598495E+01  0.23661507832E+03  0.23817210810E+03  0.00000000000E+00 0.  1.
         -2    1    1    2    0  502  0.26913550363E+02  0.38624598495E+01  0.38607956811E+02  0.47221098233E+02  0.00000000000E+00 0.  1.
</event>
<event>
 4    1  0.5953944E+003  0.7763071E+02  0.7546771E-02  0.1209457E+00
          2   -1    0    0  501    0  0.00000000000E+00  0.00000000000E+00  0.30877720607E+04  0.30877720607E+04  0.00000000000E+00 0. -1.
         -2   -1    0    0    0  501 -0.00000000000E+00 -0.00000000000E+00 -0.30471088191E+01  0.30471088191E+01  0.00000000000E+00 0.  1.
          2    1    1    2  502    0 -0.72525235283E+02 -0.27687852954E+02  0.24689360055E+04  0.24701561745E+04  0.00000000000E+00 0. -1.
         -2    1    1    2    0  502  0.72525235283E+02  0.27687852954E+02  0.61578894634E+03  0.62066299502E+03  0.00000000000E+00 0.  1.
</event>
<event>
 4    1  0.5953944E+003  0.2364492E+02  0.7546771E-02  0.1484555E+00
          2   -1    0    0  501    0  0.00000000000E+00  0.00000000000E+00  0.12347926866E+04  0.12347926866E+04  0.00000000000E+00 0.  1.
         -2   -1    0    0    0  501 -0.00000000000E+00 -0.00000000000E+00 -0.31923101696E+02  0.31923101696E+02  0.00000000000E+00 0.  1.
          2    1    1    2  502    0  0.11740708981E+02 -0.20524082663E+02  0.12302851016E+04  0.12305122972E+04  0.00000000000E+00 0.  1.
         -2    1    1    2    0  502 -0.11740708981E+02  0.20524082663E+02 -0.27415516687E+02  0.36203491155E+02  0.00000000000E+00 0.  1.
</event>
<event>
 4    1  0.5953944E+003  0.2028662E+02  0.7546771E-02  0.1529698E+00
          2   -1    0    0  501    0  0.00000000000E+00  0.00000000000E+00  0.11960394360E+03  0.11960394360E+03  0.00000000000E+00 0.  1.
         -2   -1    0    0    0  501 -0.00000000000E+00 -0.00000000000E+00 -0.37482293357E+01  0.37482293357E+01  0.00000000000E+00 0. -1.
          2    1    1    2  502    0  0.73808479998E+01 -0.18896293162E+02  0.75588083661E+02  0.78263051333E+02  0.00000000000E+00 0.  1.
         -2    1    1    2    0  502 -0.73808479998E+01  0.18896293162E+02  0.40267630603E+02  0.45089121602E+02  0.00000000000E+00 0. -1.
</event>
<event>
 4    1  0.8862291E+003  0.2370435E+02  0.7546771E-02  0.1483838E+00
          2   -1    0    0  501    0  0.00000000000E+00  0.00000000000E+00  0.12459074052E+04  0.12459074052E+04  0.00000000000E+00 0.  1.
         -2   -1    0    0    0  501 -0.00000000000E+00 -0.00000000000E+00 -0.19610673469E+03  0.19610673469E+03  0.00000000000E+00 0.  1.
          2    1    1    2  502    0  0.32853638243E+01  0.23475578691E+02  0.12450778651E+04  0.12453034917E+04  0.00000000000E+00 0.  1.
         -2    1    1    2    0  502 -0.32853638243E+01 -0.23475578691E+02 -0.19527719453E+03  0.19671064819E+03  0.00000000000E+00 0.  1.
</event>
<event>
 4    1  0.5953944E+003  0.3330430E+02  0.7546771E-02  0.1392893E+00
          2   -1    0    0  501    0  0.00000000000E+00  0.00000000000E+00  0.26403165441E+02  0.26403165441E+02  0.00000000000E+00 0. -1.
         -2   -1    0    0    0  501 -0.00000000000E+00 -0.00000000000E+00 -0.46318233579E+02  0.46318233579E+02  0.00000000000E+00 0.  1.
          2    1    1    2  502    0  0.78223244710E+01 -0.32372640515E+02  0.11328026182E+01  0.33323563072E+02  0.00000000000E+00 0. -1.
         -2    1    1    2    0  502 -0.78223244710E+01  0.32372640515E+02 -0.21047870757E+02  0.39397835948E+02  0.00000000000E+00 0.  1.
</event>
<event>
 4    1  0.5953944E+003  0.2051518E+02  0.7546771E-02  0.1526301E+00
          2   -1    0    0  501    0  0.00000000000E+00  0.00000000000E+00  0.10548428775E+04  0.10548428775E+04  0.00000000000E+00 0. -1.
         -2   -1    0    0    0  501 -0.00000000000E+00 -0.00000000000E+00 -0.90333078253E+00  0.90333078253E+00  0.00000000000E+00 0. -1.
          2    1    1    2  502    0 -0.17373832202E+02  0.10909746297E+02  0.92139785454E+03  0.92162621434E+03  0.00000000000E+00 0. -1.
         -2    1    1    2    0  502  0.17373832202E+02 -0.10909746297E+02  0.13254169219E+03  0.13411999396E+03  0.00000000000E+00 0. -1.
</event>
<event>
 4    1  0.5953944E+003  0.2646687E+02  0.7546771E-02  0.1453038E+00
          2   -1    0    0  501    0  0.00000000000E+00  0.00000000000E+00  0.53510249750E+03  0.53510249750E+03  0.00000000000E+00 0. -1.
         -2   -1    0    0    0  501 -0.00000000000E+00 -0.00000000000E+00 -0.32036874206E+01  0.32036874206E+01  0.00000000000E+00 0. -1.
          2    1    1    2  502    0  0.18590711577E+02  0.18838280239E+02  0.47293170034E+03  0.47367170967E+03  0.00000000000E+00 0. -1.
         -2    1    1    2    0  502 -0.18590711577E+02 -0.18838280239E+02  0.58967109737E+02  0.64634475244E+02  0.00000000000E+00 0. -1.
</event>
<event>
 4    1  0.5953944E+003  0.3124656E+02  0.7546771E-02  0.1409064E+00
          2   -1    0    0  501    0  0.00000000000E+00  0.00000000000E+00  0.16594341028E+04  0.16594341028E+04  0.00000000000E+00 0.  1.
         -2   -1    0    0    0  501 -0.00000000000E+00 -0.00000000000E+00 -0.28233360448E+02  0.28233360448E+02  0.00000000000E+00 0.  1.
          2    1    1    2  502    0  0.36574243818E+01  0.31031770733E+02  0.16505953860E+04  0.16508911156E+04  0.00000000000E+00 0.  1.
         -2    1    1    2    0  502 -0.36574243818E+01 -0.31031770733E+02 -0.19394643561E+02  0.36776347654E+02  0.00000000000E+00 0.  1.
</event>
<event>
 4    1  0.5953944E+003  0.2442237E+02  0.7546771E-02  0.1475370E+00
          2   -1    0    0  501    0  0.00000000000E+00  0.00000000000E+00  0.81742580091E+02  0.81742580091E+02  0.00000000000E+00 0. -1.
         -2   -1    0    0    0  501 -0.00000000000E+00 -0.00000000000E+00 -0.20005263911E+03  0.20005263911E+03  0.00000000000E+00 0.  1.
          2    1    1    2  502    0  0.15800195024E+02 -0.18622724587E+02  0.79149165641E+02  0.82831409836E+02  0.00000000000E+00 0. -1.
         -2    1    1    2    0  502 -0.15800195024E+02  0.18622724587E+02 -0.19745922466E+03  0.19896380936E+03  0.00000000000E+00 0.  1.
</event>
<event>
 4    1  0.5953944E+003  0.3420050E+03  0.7546771E-02  0.9842608E-01
          2   -1    0    0  501    0  0.00000000000E+00  0.00000000000E+00  0.20225293659E+04  0.20225293659E+04  0.00000000000E+00 0.  1.
         -2   -1    0    0    0  501 -0.00000000000E+00 -0.00000000000E+00 -0.12852249548E+03  0.12852249548E+03  0.00000000000E+00 0. -1.
          2    1    1    2  502    0  0.23061199218E+03 -0.25255799104E+03  0.17446510059E+04  0.17778567328E+04  0.00000000000E+00 0.  1.
         -2    1    1    2    0  502 -0.23061199218E+03  0.25255799104E+03  0.14935586455E+03  0.37319512865E+03  0.00000000000E+00 0. -1.
</event>
<event>
 4    1  0.5953944E+003  0.3498216E+02  0.7546771E-02  0.1380689E+00
          2   -1    0    0  501    0  0.00000000000E+00  0.00000000000E+00  0.21079361145E+04  0.21079361145E+04  0.00000000000E+00 0. -1.
         -2   -1    0    0    0  501 -0.00000000000E+00 -0.00000000000E+00 -0.15980174289E+01  0.15980174289E+01  0.00000000000E+00 0. -1.
          2    1    1    2  502    0  0.88414570118E+01  0.33846423484E+02  0.18948105310E+04  0.18951334254E+04  0.00000000000E+00 0. -1.
         -2    1    1    2    0  502 -0.88414570118E+01 -0.33846423484E+02  0.21152756607E+03  0.21440070651E+03  0.00000000000E+00 0. -1.
</event>
<event>
 4    1  0.5953944E+003  0.2803111E+02  0.7546771E-02  0.1437517E+00
          2   -1    0    0  501    0  0.00000000000E+00  0.00000000000E+00  0.15419883243E+04  0.15419883243E+04  0.00000000000E+00 0.  1.
         -2   -1    0    0    0  501 -0.00000000000E+00 -0.00000000000E+00 -0.19023455376E+01  0.19023455376E+01  0.00000000000E+00 0.  1.
          2    1    1    2  502    0  0.48245056203E+00  0.28026957962E+02  0.14305587804E+04  0.14308333821E+04  0.00000000000E+00 0.  1.
         -2    1    1    2    0  502 -0.48245056203E+00 -0.28026957962E+02  0.10952719836E+03  0.11305728774E+03  0.00000000000E+00 0.  1.
</event>
<event>
 4    1  0.5953944E+003  0.2171000E+02  0.7546771E-02  0.1509365E+00
          2   -1    0    0  501    0  0.00000000000E+00  0.00000000000E+00  0.26494858252E+03  0.26494858252E+03  0.00000000000E+00 0.  1.
         -2   -1    0    0    0  501 -0.00000000000E+00 -0.00000000000E+00 -0.17968530413E+02  0.17968530413E+02  0.00000000000E+00 0.  1.
          2    1    1    2  502    0  0.18939281473E+02  0.10612616058E+02  0.25776375714E+03  0.25867639726E+03  0.00000000000E+00 0.  1.
         -2    1    1    2    0  502 -0.18939281473E+02 -0.10612616058E+02 -0.10783705033E+02  0.24240715677E+02  0.00000000000E+00 0.  1.
</event>
<event>
 4    1  0.5953944E+003  0.4800697E+02  0.7546771E-02  0.1307053E+00
          2   -1    0    0  501    0  0.00000000000E+00  0.00000000000E+00  0.19402922965E+04  0.19402922965E+04  0.00000000000E+00 0. -1.
         -2   -1    0    0    0  501 -0.00000000000E+00 -0.00000000000E+00 -0.17180013062E+02  0.17180013062E+02  0.00000000000E+00 0. -1.
          2    1    1    2  502    0 -0.45232013715E+02 -0.16085210293E+02  0.19058523401E+04  0.19064568737E+04  0.00000000000E+00 0. -1.
         -2    1    1    2    0  502  0.45232013715E+02  0.16085210293E+02  0.17259943395E+02  0.51015435908E+02  0.00000000000E+00 0. -1.
</event>
<event>
 4    1  0.5953944E+003  0.2229182E+02  0.7546771E-02  0.1501587E+00
          2   -1    0    0  501    0  0.00000000000E+00  0.00000000000E+00  0.10471004547E+02  0.10471004547E+02  0.00000000000E+00 0.  1.
         -2   -1    0    0    0  501 -0.00000000000E+00 -0.00000000000E+00 -0.57223641166E+02  0.57223641166E+02  0.00000000000E+00 0. -1.
          2    1    1    2  502    0 -0.61548635092E+01  0.21425276209E+02 -0.37359442704E+02  0.43504629231E+02  0.00000000000E+00 0.  1.
         -2    1    1    2    0  502  0.61548635092E+01 -0.21425276209E+02 -0.93931939163E+01  0.24190016482E+02  0.00000000000E+00 0. -1.
</event>
<event>
 4    1  0.5953944E+003  0.5397488E+02  0.7546771E-02  0.1281801E+00
          2   -1    0    0  501    0  0.00000000000E+00  0.00000000000E+00  0.10322125046E+03  0.10322125046E+03  0.00000000000E+00 0. -1.
         -2   -1    0    0    0  501 -0.00000000000E+00 -0.00000000000E+00 -0.61726982475E+02  0.61726982475E+02  0.00000000000E+00 0. -1.
          2    1    1    2  502    0  0.52038174334E+02  0.14328838273E+02  0.81507968230E+02  0.97759071596E+02  0.00000000000E+00 0. -1.
         -2    1    1    2    0  502 -0.52038174334E+02 -0.14328838273E+02 -0.40013700244E+02  0.67189161339E+02  0.00000000000E+00 0. -1.
</event>
<event>
 4    1  0.5953944E+003  0.3270823E+02  0.7546771E-02  0.1397433E+00
          2   -1    0    0  501    0  0.00000000000E+00  0.00000000000E+00  0.73506429735E+03  0.73506429735E+03  0.00000000000E+00 0. -1.
         -2   -1    0    0    0  501 -0.00000000000E+00 -0.00000000000E+00 -0.16068013796E+01  0.16068013796E+01  0.00000000000E+00 0. -1.
          2    1    1    2  502    0 -0.32524421412E+02  0.34627092968E+01  0.47978554853E+03  0.48089915879E+03  0.00000000000E+00 0. -1.
         -2    1    1    2    0  502  0.32524421412E+02 -0.34627092968E+01  0.25367194744E+03  0.25577193994E+03  0.00000000000E+00 0. -1.
</event>
<event>
 4    1  0.5953944E+003  0.2751745E+02  0.7546771E-02  0.1442478E+00
          2   -1    0    0  501    0  0.00000000000E+00  0.00000000000E+00  0.66366846323E+01  0.66366846323E+01  0.00000000000E+00 0. -1.
         -2   -1    0    0    0  501 -0.00000000000E+00 -0.00000000000E+00 -0.11467001984E+03  0.11467001984E+03  0.00000000000E+00 0. -1.
          2    1    1    2  502    0 -0.27183439229E+02 -0.42744277432E+01 -0.49720218879E+02  0.56827020564E+02  0.00000000000E+00 0. -1.
         -2    1    1    2    0  502  0.27183439229E+02  0.42744277432E+01 -0.58313116325E+02  0.64479683904E+02  0.00000000000E+00 0. -1.
</event>
<event>
 4    1  0.5953944E+003  0.4551181E+02  0.7546771E-02  0.1318900E+00
          2   -1    0    0  501    0  0.00000000000E+00  0.00000000000E+00  0.19971483145E+02  0.19971483145E+02  0.00000000000E+00 0.  1.
         -2   -1    0    0    0  501 -0.00000000000E+00 -0.00000000000E+00 -0.11619244433E+03  0.11619244433E+03  0.00000000000E+00 0. -1.
          2    1    1    2  502    0 -0.58766451338E+01  0.45130808683E+02 -0.25799368393E+02  0.52315698026E+02  0.00000000000E+00 0.  1.
         -2    1    1    2    0  502  0.58766451338E+01 -0.45130808683E+02 -0.70421592794E+02  0.83848229451E+02  0.00000000000E+00 0. -1.
</event>
<event>
 4    1  0.8276512E+003  0.2916011E+02  0.7546771E-02  0.1427038E+00
          2   -1    0    0  501    0  0.00000000000E+00  0.00000000000E+00  0.12002804566E+04  0.12002804566E+04  0.00000000000E+00 0. -1.
         -2   -1    0    0    0  501 -0.00000000000E+00 -0.00000000000E+00 -0.32638783220E+03  0.32638783220E+03  0.00000000000E+00 0.  1.
          2    1    1    2  502    0  0.18250503255E+02 -0.22742712287E+02  0.11994515949E+04  0.11998060012E+04  0.00000000000E+00 0. -1.
         -2    1    1    2    0  502 -0.18250503255E+02  0.22742712287E+02 -0.32555897050E+03  0.32686228767E+03  0.00000000000E+00 0.  1.
</event>
<event>
 4    1  0.5953944E+003  0.3651003E+02  0.7546771E-02  0.1370247E+00
          2   -1    0    0  501    0  0.00000000000E+00  0.00000000000E+00  0.19755061274E+01  0.19755061274E+01  0.00000000000E+00 0.  1.
         -2   -1    0    0    0  501 -0.00000000000E+00 -0.00000000000E+00 -0.69365829217E+03  0.69365829217E+03  0.00000000000E+00 0.  1.
          2    1    1    2  502    0  0.28119265759E+02 -0.23287068987E+02 -0.40326069905E+03  0.40491007901E+03  0.00000000000E+00 0.  1.
         -2    1    1    2    0  502 -0.28119265759E+02  0.23287068987E+02 -0.28842208700E+03  0.29072371929E+03  0.00000000000E+00 0.  1.
</event>
<event>
 4    1  0.5953944E+003  0.2931843E+02  0.7546771E-02  0.1425613E+00
          2   -1    0    0  501    0  0.00000000000E+00  0.00000000000E+00  0.15543692281E+03  0.15543692281E+03  0.00000000000E+00 0. -1.
         -2   -1    0    0    0  501 -0.00000000000E+00 -0.00000000000E+00 -0.53770237506E+02  0.53770237506E+02  0.00000000000E+00 0. -1.
          2    1    1    2  502    0  0.29154598122E+02 -0.30951082003E+01  0.14991201339E+03  0.15275202796E+03  0.00000000000E+00 0. -1.
         -2    1    1    2    0  502 -0.29154598122E+02  0.30951082003E+01 -0.48245328091E+02  0.56455132353E+02  0.00000000000E+00 0. -1.
</event>
<event>
 4    1  0.5953944E+003  0.2747715E+02  0.7546771E-02  0.1442873E+00
          2   -1    0    0  501    0  0.00000000000E+00  0.00000000000E+00  0.39861357932E+02  0.39861357932E+02  0.00000000000E+00 0. -1.
         -2   -1    0    0    0  501 -0.00000000000E+00 -0.00000000000E+00 -0.70692797590E+02  0.70692797590E+02  0.00000000000E+00 0.  1.
          2    1    1    2  502    0  0.12162031201E+01 -0.27450220729E+02  0.31880054363E+02  0.42087190858E+02  0.00000000000E+00 0. -1.
         -2    1    1    2    0  502 -0.12162031201E+01  0.27450220729E+02 -0.62711494021E+02  0.68466964665E+02  0.00000000000E+00 0.  1.
</event>
<event>
 4    1  0.5953944E+003  0.3027657E+02  0.7546771E-02  0.1417208E+00
          2   -1    0    0  501    0  0.00000000000E+00  0.00000000000E+00  0.11964425609E+04  0.11964425609E+04  0.00000000000E+00 0. -1.
         -2   -1    0    0    0  501 -0.00000000000E+00 -0.00000000000E+00 -0.39738553839E+01  0.39738553839E+01  0.00000000000E+00 0. -1.
          2    1    1    2  502    0 -0.24136647363E+02  0.18278209085E+02  0.11354869194E+04  0.11358904942E+04  0.00000000000E+00 0. -1.
         -2    1    1    2    0  502  0.24136647363E+02 -0.18278209085E+02  0.56981786168E+02  0.64525922141E+02  0.00000000000E+00 0. -1.
</event>
<event>
 4    1  0.5953944E+003  0.2239650E+02  0.7546771E-02  0.1500219E+00
          2   -1    0    0  501    0  0.00000000000E+00  0.00000000000E+00  0.79402526974E+02  0.79402526974E+02  0.00000000000E+00 0.  1.
         -2   -1    0    0    0  501 -0.00000000000E+00 -0.00000000000E+00 -0.73436736785E+01  0.73436736785E+01  0.00000000000E+00 0. -1.
          2    1    1    2  502    0  0.87695132810E+01  0.20608219077E+02  0.52245060327E+02  0.56843199992E+02  0.00000000000E+00 0.  1.
         -2    1    1    2    0  502 -0.87695132810E+01 -0.20608219077E+02  0.19813792968E+02  0.29903000661E+02  0.00000000000E+00 0. -1.
</event>
<event>
 4    1  0.5953944E+003  0.2932408E+02  0.7546771E-02  0.1425563E+00
          2   -1    0    0  501    0  0.00000000000E+00  0.00000000000E+00  0.69067636642E+03  0.69067636642E+03  0.00000000000E+00 0.  1.
         -2   -1    0    0    0  501 -0.00000000000E+00 -0.00000000000E+00 -0.53748651275E+02  0.53748651275E+02  0.00000000000E+00 0. -1.
          2    1    1    2  502    0  0.64560563783E+01  0.28604561521E+02  0.68634021288E+03  0.68696636702E+03  0.00000000000E+00 0.  1.
         -2    1    1    2    0  502 -0.64560563783E+01 -0.28604561521E+02 -0.49412497739E+02  0.57458650668E+02  0.00000000000E+00 0. -1.
</event>
<event>
 4    1  0.5953944E+003  0.2094026E+02  0.7546771E-02  0.1520119E+00
          2   -1    0    0  501    0  0.00000000000E+00  0.00000000000E+00  0.85063442920E+02  0.85063442920E+02  0.00000000000E+00 0.  1.
         -2   -1    0    0    0  501 -0.00000000000E+00 -0.00000000000E+00 -0.36402312857E+02  0.36402312857E+02  0.00000000000E+00 0.  1.
          2    1    1    2  502    0 -0.20446216752E+02 -0.45218045597E+01  0.80599193179E+02  0.83274992868E+02  0.00000000000E+00 0.  1.
         -2    1    1    2    0  502  0.20446216752E+02  0.45218045597E+01 -0.31938063116E+02  0.38190762909E+02  0.00000000000E+00 0.  1.
</event>
<event>
 4    1  0.5953944E+003  0.1022198E+03  0.7546771E-02  0.1160016E+00
          2   -1    0    0  501    0  0.00000000000E+00  0.00000000000E+00  0.48497280873E+04  0.48497280873E+04  0.00000000000E+00 0.  1.
         -2   -1    0    0    0  501 -0.00000000000E+00 -0.00000000000E+00 -0.24350384166E+02  0.24350384166E+02  0.00000000000E+00 0.  1.
          2    1    1    2  502    0 -0.89628889670E+02  0.49148177518E+02  0.47394165018E+04  0.47405187120E+04  0.00000000000E+00 0.  1.
         -2    1    1    2    0  502  0.89628889670E+02 -0.49148177518E+02  0.85961201344E+02  0.13355975948E+03  0.00000000000E+00 0.  1.
</event>
<event>
 4    1  0.5953944E+003  0.3152146E+02  0.7546771E-02  0.1406820E+00
          2   -1    0    0  501    0  0.00000000000E+00  0.00000000000E+00  0.21125687685E+02  0.21125687685E+02  0.00000000000E+00 0. -1.
         -2   -1    0    0    0  501 -0.00000000000E+00 -0.00000000000E+00 -0.18516515704E+03  0.18516515704E+03  0.00000000000E+00 0.  1.
          2    1    1    2  502    0 -0.67033582870E+01  0.30800444969E+02  0.70679913720E+01  0.32304162652E+02  0.00000000000E+00 0. -1.
         -2    1    1    2    0  502  0.67033582870E+01 -0.30800444969E+02 -0.17110746072E+03  0.17398668207E+03  0.00000000000E+00 0.  1.
</event>
<event>
 4    1  0.5953944E+003  0.2901398E+02  0.7546771E-02  0.1428363E+00
          2   -1    0    0  501    0  0.00000000000E+00  0.00000000000E+00  0.31127127454E+03  0.31127127454E+03  0.00000000000E+00 0. -1.
         -2   -1    0    0    0  501 -0.00000000000E+00 -0.00000000000E+00 -0.31526326606E+01  0.31526326606E+01  0.00000000000E+00 0.  1.
          2    1    1    2  502    0  0.21671710243E+02  0.19291144807E+02  0.21333632139E+03  0.21530024922E+03  0.00000000000E+00 0. -1.
         -2    1    1    2    0  502 -0.21671710243E+02 -0.19291144807E+02  0.94782320496E+02  0.99123657980E+02  0.00000000000E+00 0.  1.
</event>
<event>
 4    1  0.5953944E+003  0.3084819E+02  0.7546771E-02  0.1412366E+00
          2   -1    0    0  501    0  0.00000000000E+00  0.00000000000E+00  0.22609436957E+03  0.22609436957E+03  0.00000000000E+00 0.  1.
         -2   -1    0    0    0  501 -0.00000000000E+00 -0.00000000000E+00 -0.17684394054E+03  0.17684394054E+03  0.00000000000E+00 0. -1.
          2    1    1    2  502    0 -0.14147547935E+02  0.27412725164E+02  0.22368243593E+03  0.22579956324E+03  0.00000000000E+00 0.  1.
         -2    1    1    2    0  502  0.14147547935E+02 -0.27412725164E+02 -0.17443200690E+03  0.17713874688E+03  0.00000000000E+00 0. -1.
</event>
<event>
 4    1  0.5953944E+003  0.2578131E+02  0.7546771E-02  0.1460250E+00
          2   -1    0    0  501    0  0.00000000000E+00  0.00000000000E+00  0.87929728110E+03  0.87929728110E+03  0.00000000000E+00 0. -1.
         -2   -1    0    0    0  501 -0.00000000000E+00 -0.00000000000E+00 -0.75675880628E+00  0.75675880628E+00  0.00000000000E+00 0. -1.
          2    1    1    2  502    0 -0.25739167766E+02  0.14734690010E+01  0.45394518223E+03  0.45467670310E+03  0.00000000000E+00 0. -1.
         -2    1    1    2    0  502  0.25739167766E+02 -0.14734690010E+01  0.42459534006E+03  0.42537733681E+03  0.00000000000E+00 0. -1.
</event>
<event>
 4    1  0.5953944E+003  0.2051535E+02  0.7546771E-02  0.1526298E+00
          2   -1    0    0  501    0  0.00000000000E+00  0.00000000000E+00  0.44486261037E+03  0.44486261037E+03  0.00000000000E+00 0. -1.
         -2   -1    0    0    0  501 -0.00000000000E+00 -0.00000000000E+00 -0.10717014899E+01  0.10717014899E+01  0.00000000000E+00 0.  1.
          2    1    1    2  502    0  0.80577507101E+01 -0.18866693599E+02  0.29822997205E+03  0.29893476831E+03  0.00000000000E+00 0. -1.
         -2    1    1    2    0  502 -0.80577507101E+01  0.18866693599E+02  0.14556093683E+03  0.14699954355E+03  0.00000000000E+00 0.  1.
</event>
<event>
 4    1  0.5953944E+003  0.2229626E+02  0.7546771E-02  0.1501529E+00
          2   -1    0    0  501    0  0.00000000000E+00  0.00000000000E+00  0.81425690994E+03  0.81425690994E+03  0.00000000000E+00 0. -1.
         -2   -1    0    0    0  501 -0.00000000000E+00 -0.00000000000E+00 -0.62363060175E+00  0.62363060175E+00  0.00000000000E+00 0.  1.
          2    1    1    2  502    0  0.10694593904E+02  0.19563970608E+02  0.46588397075E+03  0.46641719252E+03  0.00000000000E+00 0. -1.
         -2    1    1    2    0  502 -0.10694593904E+02 -0.19563970608E+02  0.34774930859E+03  0.34846334801E+03  0.00000000000E+00 0.  1.
</event>
<event>
 4    1  0.5953944E+003  0.3391081E+02  0.7546771E-02  0.1388386E+00
          2   -1    0    0  501    0  0.00000000000E+00  0.00000000000E+00  0.47060189340E+03  0.47060189340E+03  0.00000000000E+00 0. -1.
         -2   -1    0    0    0  501 -0.00000000000E+00 -0.00000000000E+00 -0.71842724205E+01  0.71842724205E+01  0.00000000000E+00 0.  1.
          2    1    1    2  502    0  0.29511781939E+02 -0.16703235460E+02  0.42576792457E+03  0.42711622416E+03  0.00000000000E+00 0. -1.
         -2    1    1    2    0  502 -0.29511781939E+02  0.16703235460E+02  0.37649696406E+02  0.50669941657E+02  0.00000000000E+00 0.  1.
</event>
<event>
 4    1  0.5953944E+003  0.2347532E+02  0.7546771E-02  0.1486614E+00
          2   -1    0    0  501    0  0.00000000000E+00  0.00000000000E+00  0.23887520612E+02  0.23887520612E+02  0.00000000000E+00 0. -1.
         -2   -1    0    0    0  501 -0.00000000000E+00 -0.00000000000E+00 -0.43335185360E+02  0.43335185360E+02  0.00000000000E+00 0. -1.
          2    1    1    2  502    0  0.11256053046E+02 -0.20600769843E+02  0.13260852663E+02  0.26961837134E+02  0.00000000000E+00 0. -1.
         -2    1    1    2    0  502 -0.11256053046E+02  0.20600769843E+02 -0.32708517412E+02  0.40260868838E+02  0.00000000000E+00 0. -1.
</event>
<event>
 4    1  0.5953944E+003  0.3509680E+02  0.7546771E-02  0.1379884E+00
          2   -1    0    0  501    0  0.00000000000E+00  0.00000000000E+00  0.10255825884E+03  0.10255825884E+03  0.00000000000E+00 0. -1.
         -2   -1    0    0    0  501 -0.00000000000E+00 -0.00000000000E+00 -0.24985303149E+02  0.24985303149E+02  0.00000000000E+00 0.  1.
          2    1    1    2  502    0  0.23558673328E+02 -0.26014882494E+02  0.84741726104E+02  0.91722109348E+02  0.00000000000E+00 0. -1.
         -2    1    1    2    0  502 -0.23558673328E+02  0.26014882494E+02 -0.71687704112E+01  0.35821452642E+02  0.00000000000E+00 0.  1.
</event>
<event>
 4    1  0.5953944E+003  0.3031301E+02  0.7546771E-02  0.1416895E+00
          2   -1    0    0  501    0  0.00000000000E+00  0.00000000000E+00  0.74535692795E+03  0.74535692795E+03  0.00000000000E+00 0. -1.
         -2   -1    0    0    0  501 -0.00000000000E+00 -0.00000000000E+00 -0.79363494678E+01  0.79363494678E+01  0.00000000000E+00 0.  1.
          2    1    1    2  502    0  0.10536458468E+02 -0.28422911243E+02  0.71486957903E+03  0.71551198023E+03  0.00000000000E+00 0. -1.
         -2    1    1    2    0  502 -0.10536458468E+02  0.28422911243E+02  0.22550999458E+02  0.37781297187E+02  0.00000000000E+00 0.  1.
</event>
<event>
 4    1  0.5953944E+003  0.2380894E+02  0.7546771E-02  0.1482583E+00
          2   -1    0    0  501    0  0.00000000000E+00  0.00000000000E+00  0.12282186444E+03  0.12282186444E+03  0.00000000000E+00 0. -1.
         -2   -1    0    0    0  501 -0.00000000000E+00 -0.00000000000E+00 -0.52310837117E+01  0.52310837117E+01  0.00000000000E+00 0. -1.
          2    1    1    2  502    0  0.85325778473E+01 -0.22227479812E+02  0.80761879176E+02  0.84198259314E+02  0.00000000000E+00 0. -1.
         -2    1    1    2    0  502 -0.85325778473E+01  0.22227479812E+02  0.36828901556E+02  0.43854688841E+02  0.00000000000E+00 0. -1.
</event>
<event>
 4    1  0.5953944E+003  0.5017022E+02  0.7546771E-02  0.1297436E+00
          2   -1    0    0  501    0  0.00000000000E+00  0.00000000000E+00  0.12085508764E+03  0.12085508764E+03  0.00000000000E+00 0.  1.
         -2   -1    0    0    0  501 -0.00000000000E+00 -0.00000000000E+00 -0.15883709811E+03  0.15883709811E+03  0.00000000000E+00 0.  1.
          2    1    1    2  502    0  0.37181621148E+02  0.33683502087E+02  0.11136461695E+03  0.12214388717E+03  0.00000000000E+00 0.  1.
         -2    1    1    2    0  502 -0.37181621148E+02 -0.33683502087E+02 -0.14934662742E+03  0.15754829858E+03  0.00000000000E+00 0.  1.
</event>
<event>
 4    1  0.5953944E+003  0.2278184E+02  0.7546771E-02  0.1495256E+00
          2   -1    0    0  501    0  0.00000000000E+00  0.00000000000E+00  0.50280023441E+03  0.50280023441E+03  0.00000000000E+00 0. -1.
         -2   -1    0    0    0  501 -0.00000000000E+00 -0.00000000000E+00 -0.13352121607E+01  0.13352121607E+01  0.00000000000E+00 0.  1.
          2    1    1    2  502    0  0.22996818518E+01 -0.22665478362E+02  0.37080422433E+03  0.37150341214E+03  0.00000000000E+00 0. -1.
         -2    1    1    2    0  502 -0.22996818518E+01  0.22665478362E+02  0.13066079792E+03  0.13263203444E+03  0.00000000000E+00 0.  1.
</event>
<event>
 4    1  0.5953944E+003  0.2159273E+02  0.7546771E-02  0.1510968E+00
          2   -1    0    0  501    0  0.00000000000E+00  0.00000000000E+00  0.28149367937E+03  0.28149367937E+03  0.00000000000E+00 0.  1.
         -2   -1    0    0    0  501 -0.00000000000E+00 -0.00000000000E+00 -0.43933013560E+02  0.43933013560E+02  0.00000000000E+00 0. -1.
          2    1    1    2  502    0  0.76446794161E+01 -0.20194182617E+02  0.27839696422E+03  0.27923308511E+03  0.00000000000E+00 0.  1.
         -2    1    1    2    0  502 -0.76446794161E+01  0.20194182617E+02 -0.40836298412E+02  0.46193607815E+02  0.00000000000E+00 0. -1.
</event>
<event>
 4    1  0.5953944E+003  0.3551206E+02  0.7546771E-02  0.1376999E+00
          2   -1    0    0  501    0  0.00000000000E+00  0.00000000000E+00  0.16968738141E+04  0.16968738141E+04  0.00000000000E+00 0. -1.
         -2   -1    0    0    0  501 -0.00000000000E+00 -0.00000000000E+00 -0.11168376625E+01  0.11168376625E+01  0.00000000000E+00 0.  1.
          2    1    1    2  502    0  0.62130885830E+01  0.34964324687E+02  0.13389435913E+04  0.13394144419E+04  0.00000000000E+00 0. -1.
         -2    1    1    2    0  502 -0.62130885830E+01 -0.34964324687E+02  0.35681338514E+03  0.35857620987E+03  0.00000000000E+00 0.  1.
</event>
<event>
 4    1  0.5953944E+003  0.5049448E+02  0.7546771E-02  0.1296043E+00
          2   -1    0    0  501    0  0.00000000000E+00  0.00000000000E+00  0.12178716573E+04  0.12178716573E+04  0.00000000000E+00 0. -1.
         -2   -1    0    0    0  501 -0.00000000000E+00 -0.00000000000E+00 -0.21064672821E+01  0.21064672821E+01  0.00000000000E+00 0. -1.
          2    1    1    2  502    0  0.45504827025E+02 -0.21886077085E+02  0.56013727726E+03  0.56240862282E+03  0.00000000000E+00 0. -1.
         -2    1    1    2    0  502 -0.45504827025E+02  0.21886077085E+02  0.65562791279E+03  0.65756950179E+03  0.00000000000E+00 0. -1.
</event>
<event>
 4    1  0.5953944E+003  0.2178316E+02  0.7546771E-02  0.1508371E+00
          2   -1    0    0  501    0  0.00000000000E+00  0.00000000000E+00  0.18423964855E+01  0.18423964855E+01  0.00000000000E+00 0. -1.
         -2   -1    0    0    0  501 -0.00000000000E+00 -0.00000000000E+00 -0.28284192124E+03  0.28284192124E+03  0.00000000000E+00 0. -1.
          2    1    1    2  502    0  0.13784957224E+01 -0.21739496683E+02 -0.97933285477E+02  0.10032663839E+03  0.00000000000E+00 0. -1.
         -2    1    1    2    0  502 -0.13784957224E+01  0.21739496683E+02 -0.18306623928E+03  0.18435767934E+03  0.00000000000E+00 0. -1.
</event>
<event>
 4    1  0.5953944E+003  0.2253428E+02  0.7546771E-02  0.1498431E+00
          2   -1    0    0  501    0  0.00000000000E+00  0.00000000000E+00  0.13575816657E+04  0.13575816657E+04  0.00000000000E+00 0. -1.
         -2   -1    0    0    0  501 -0.00000000000E+00 -0.00000000000E+00 -0.21325548818E+01  0.21325548818E+01  0.00000000000E+00 0. -1.
          2    1    1    2  502    0 -0.99957110049E+01 -0.20196022603E+02  0.12950870202E+04  0.12952830515E+04  0.00000000000E+00 0. -1.
         -2    1    1    2    0  502  0.99957110049E+01  0.20196022603E+02  0.60362090592E+02  0.64431169073E+02  0.00000000000E+00 0. -1.
</event>
<event>
 4    1  0.5953944E+003  0.2630341E+02  0.7546771E-02  0.1454734E+00
          2   -1    0    0  501    0  0.00000000000E+00  0.00000000000E+00  0.25089381280E+02  0.25089381280E+02  0.00000000000E+00 0. -1.
         -2   -1    0    0    0  501 -0.00000000000E+00 -0.00000000000E+00 -0.37401115400E+02  0.37401115400E+02  0.00000000000E+00 0.  1.
          2    1    1    2  502    0  0.97463115226E+01  0.24431099532E+02  0.98583838006E+01  0.28090157419E+02  0.00000000000E+00 0. -1.
         -2    1    1    2    0  502 -0.97463115226E+01 -0.24431099532E+02 -0.22170117921E+02  0.34400339261E+02  0.00000000000E+00 0.  1.
</event>
<event>
 4    1  0.5953944E+003  0.2263607E+02  0.7546771E-02  0.1497119E+00
          2   -1    0    0  501    0  0.00000000000E+00  0.00000000000E+00  0.17986304928E+03  0.17986304928E+03  0.00000000000E+00 0.  1.
         -2   -1    0    0    0  501 -0.00000000000E+00 -0.00000000000E+00 -0.47343176919E+01  0.47343176919E+01  0.00000000000E+00 0.  1.
          2    1    1    2  502    0 -0.68430184538E+01  0.21576954929E+02  0.14581268184E+03  0.14755924258E+03  0.00000000000E+00 0.  1.
         -2    1    1    2    0  502  0.68430184538E+01 -0.21576954929E+02  0.29316049747E+02  0.37038124390E+02  0.00000000000E+00 0.  1.
</event>
<event>
 4    1  0.5953944E+003  0.2809288E+02  0.7546771E-02  0.1436928E+00
          2   -1    0    0  501    0  0.00000000000E+00  0.00000000000E+00  0.17444706768E+03  0.17444706768E+03  0.00000000000E+00 0.  1.
         -2   -1    0    0    0  501 -0.00000000000E+00 -0.00000000000E+00 -0.18048858901E+02  0.18048858901E+02  0.00000000000E+00 0.  1.
          2    1    1    2  502    0  0.12500035892E+02  0.25158679574E+02  0.16151578986E+03  0.16394072230E+03  0.00000000000E+00 0.  1.
         -2    1    1    2    0  502 -0.12500035892E+02 -0.25158679574E+02 -0.51175810809E+01  0.28555204277E+02  0.00000000000E+00 0.  1.
</event>
<event>
 4    1  0.5953944E+003  0.3595109E+02  0.7546771E-02  0.1373997E+00
          2   -1    0    0  501    0  0.00000000000E+00  0.00000000000E+00  0.87415503049E+03  0.87415503049E+03  0.00000000000E+00 0. -1.
         -2   -1    0    0    0  501 -0.00000000000E+00 -0.00000000000E+00 -0.20694341521E+02  0.20694341521E+02  0.00000000000E+00 0. -1.
          2    1    1    2  502    0  0.24740424959E+02 -0.26084324985E+02  0.85787528269E+03  0.85862825558E+03  0.00000000000E+00 0. -1.
         -2    1    1    2    0  502 -0.24740424959E+02  0.26084324985E+02 -0.44145937262E+01  0.36221116422E+02  0.00000000000E+00 0. -1.
</event>
<event>
 4    1  0.5953944E+003  0.4123281E+02  0.7546771E-02  0.1341409E+00
          2   -1    0    0  501    0  0.00000000000E+00  0.00000000000E+00  0.15969913667E+04  0.15969913667E+04  0.00000000000E+00 0.  1.
         -2   -1    0    0    0  501 -0.00000000000E+00 -0.00000000000E+00 -0.64273876636E+01  0.64273876636E+01  0.00000000000E+00 0. -1.
          2    1    1    2  502    0 -0.16966328793E+02  0.37580424236E+02  0.15275926079E+04  0.15281489850E+04  0.00000000000E+00 0.  1.
         -2    1    1    2    0  502  0.16966328793E+02 -0.37580424236E+02  0.62971371091E+02  0.75269769334E+02  0.00000000000E+00 0. -1.
</event>
<event>
 4    1  0.5953944E+003  0.3690393E+02  0.7546771E-02  0.1367650E+00
          2   -1    0    0  501    0  0.00000000000E+00  0.00000000000E+00  0.39924810896E+03  0.39924810896E+03  0.00000000000E+00 0. -1.
         -2   -1    0    0    0  501 -0.00000000000E+00 -0.00000000000E+00 -0.91869407323E+01  0.91869407323E+01  0.00000000000E+00 0. -1.
          2    1    1    2  502    0 -0.27481251346E+01  0.36801463736E+02  0.35695518283E+03  0.35885777472E+03  0.00000000000E+00 0. -1.
         -2    1    1    2    0  502  0.27481251346E+01 -0.36801463736E+02  0.33105985397E+02  0.49577274976E+02  0.00000000000E+00 0. -1.
</event>
<event>
 4    1  0.5953944E+003  0.2065005E+02  0.7546771E-02  0.1524320E+00
          2   -1    0    0  501    0  0.00000000000E+00  0.00000000000E+00  0.38494767892E+03  0.38494767892E+03  0.00000000000E+00 0.  1.
         -2   -1    0    0    0  501 -0.00000000000E+00 -0.00000000000E+00 -0.31002965152E+02  0.31002965152E+02  0.00000000000E+00 0. -1.
          2    1    1    2  502    0  0.86481050843E+01  0.18751928459E+02  0.38119836785E+03  0.38175727916E+03  0.00000000000E+00 0.  1.
         -2    1    1    2    0  502 -0.86481050843E+01 -0.18751928459E+02 -0.27253654086E+02  0.34193364905E+02  0.00000000000E+00 0. -1.
</event>
<event>
 4    1  0.5953944E+003  0.2411535E+02  0.7546771E-02  0.1478948E+00
          2   -1    0    0  501    0  0.00000000000E+00  0.00000000000E+00  0.16065781967E+04  0.16065781967E+04  0.00000000000E+00 0. -1.
         -2   -1    0    0    0  501 -0.00000000000E+00 -0.00000000000E+00 -0.58746112970E+00  0.58746112970E+00  0.00000000000E+00 0. -1.
          2    1    1    2  502    0  0.21542976473E+02  0.10837443139E+02  0.13008421236E+04  0.13010656327E+04  0.00000000000E+00 0. -1.
         -2    1    1    2    0  502 -0.21542976473E+02 -0.10837443139E+02  0.30514861194E+03  0.30610002512E+03  0.00000000000E+00 0. -1.
</event>
<event>
 4    1  0.5953944E+003  0.5190397E+02  0.7546771E-02  0.1290122E+00
          2   -1    0    0  501    0  0.00000000000E+00  0.00000000000E+00  0.24686906731E+04  0.24686906731E+04  0.00000000000E+00 0. -1.
         -2   -1    0    0    0  501 -0.00000000000E+00 -0.00000000000E+00 -0.14243981583E+02  0.14243981583E+02  0.00000000000E+00 0. -1.
          2    1    1    2  502    0  0.36194884877E+02  0.37201514005E+02  0.24201868169E+04  0.24207433262E+04  0.00000000000E+00 0. -1.
         -2    1    1    2    0  502 -0.36194884877E+02 -0.37201514005E+02  0.34259874580E+02  0.62191328509E+02  0.00000000000E+00 0. -1.
</event>
<event>
 4    1  0.5953944E+003  0.5360125E+02  0.7546771E-02  0.1283271E+00
          2   -1    0    0  501    0  0.00000000000E+00  0.00000000000E+00  0.14287202560E+04  0.14287202560E+04  0.00000000000E+00 0.  1.
         -2   -1    0    0    0  501 -0.00000000000E+00 -0.00000000000E+00 -0.24378420033E+01  0.24378420033E+01  0.00000000000E+00 0.  1.
          2    1    1    2  502    0 -0.34805524675E+02 -0.40763580978E+02  0.10125817589E+04  0.10139994638E+04  0.00000000000E+00 0.  1.
         -2    1    1    2    0  502  0.34805524675E+02  0.40763580978E+02  0.41370065502E+03  0.41715863415E+03  0.00000000000E+00 0.  1.
</event>
<event>
 4    1  0.5953944E+003  0.2823923E+02  0.7546771E-02  0.1435542E+00
          2   -1    0    0  501    0  0.00000000000E+00  0.00000000000E+00  0.58986144214E+03  0.58986144214E+03  0.00000000000E+00 0. -1.
         -2   -1    0    0    0  501 -0.00000000000E+00 -0.00000000000E+00 -0.23014596024E+01  0.23014596024E+01  0.00000000000E+00 0.  1.
          2    1    1    2  502    0  0.59888828523E+01  0.27596867774E+02  0.48395910842E+03  0.48478229387E+03  0.00000000000E+00 0. -1.
         -2    1    1    2    0  502 -0.59888828523E+01 -0.27596867774E+02  0.10360087412E+03  0.10738060787E+03  0.00000000000E+00 0.  1.
</event>
<event>
 4    1  0.5953944E+003  0.2210602E+02  0.7546771E-02  0.1504040E+00
          2   -1    0    0  501    0  0.00000000000E+00  0.00000000000E+00  0.35815523783E+02  0.35815523783E+02  0.00000000000E+00 0. -1.
         -2   -1    0    0    0  501 -0.00000000000E+00 -0.00000000000E+00 -0.13716134931E+02  0.13716134931E+02  0.00000000000E+00 0. -1.
          2    1    1    2  502    0 -0.19836723167E+01 -0.22016835950E+02  0.12842572713E+02  0.25565752385E+02  0.00000000000E+00 0. -1.
         -2    1    1    2    0  502  0.19836723167E+01  0.22016835950E+02  0.92568161394E+01  0.23965906329E+02  0.00000000000E+00 0. -1.
</event>
<event>
 4    1  0.5953944E+003  0.2563759E+02  0.7546771E-02  0.1461796E+00
          2   -1    0    0  501    0  0.00000000000E+00  0.00000000000E+00  0.19467171757E+03  0.19467171757E+03  0.00000000000E+00 0.  1.
         -2   -1    0    0    0  501 -0.00000000000E+00 -0.00000000000E+00 -0.87314493308E+01  0.87314493308E+01  0.00000000000E+00 0.  1.
          2    1    1    2  502    0  0.82389323218E+01 -0.24277684373E+02  0.17261669693E+03  0.17451020034E+03  0.00000000000E+00 0.  1.
         -2    1    1    2    0  502 -0.82389323218E+01  0.24277684373E+02  0.13323571315E+02  0.28892966565E+02  0.00000000000E+00 0.  1.
</event>
<event>
 4    1  0.5953944E+003  0.2079930E+02  0.7546771E-02  0.1522150E+00
          2   -1    0    0  501    0  0.00000000000E+00  0.00000000000E+00  0.20639056232E+02  0.20639056232E+02  0.00000000000E+00 0. -1.
         -2   -1    0    0    0  501 -0.00000000000E+00 -0.00000000000E+00 -0.25427912597E+02  0.25427912597E+02  0.00000000000E+00 0. -1.
          2    1    1    2  502    0 -0.11864026913E+02 -0.17083791303E+02  0.72598075896E+01  0.22029885749E+02  0.00000000000E+00 0. -1.
         -2    1    1    2    0  502  0.11864026913E+02  0.17083791303E+02 -0.12048663955E+02  0.24037083079E+02  0.00000000000E+00 0. -1.
</event>
<event>
 4    1  0.5953944E+003  0.2757901E+02  0.7546771E-02  0.1441877E+00
          2   -1    0    0  501    0  0.00000000000E+00  0.00000000000E+00  0.11654841319E+04  0.11654841319E+04  0.00000000000E+00 0. -1.
         -2   -1    0    0    0  501 -0.00000000000E+00 -0.00000000000E+00 -0.71687012419E+00  0.71687012419E+00  0.00000000000E+00 0.  1.
          2    1    1    2  502    0 -0.44529275317E+01 -0.27217147913E+02  0.75696912105E+03  0.75747135387E+03  0.00000000000E+00 0. -1.
         -2    1    1    2    0  502  0.44529275317E+01  0.27217147913E+02  0.40779814068E+03  0.40872964812E+03  0.00000000000E+00 0.  1.
</event>
<event>
 4    1  0.5953944E+003  0.2245148E+02  0.7546771E-02  0.1499503E+00
          2   -1    0    0  501    0  0.00000000000E+00  0.00000000000E+00  0.97277034578E+03  0.97277034578E+03  0.00000000000E+00 0.  1.
         -2   -1    0    0    0  501 -0.00000000000E+00 -0.00000000000E+00 -0.47975216317E+01  0.47975216317E+01  0.00000000000E+00 0. -1.
          2    1    1    2  502    0  0.16968867339E+02  0.14701246981E+02  0.94561955758E+03  0.94588604853E+03  0.00000000000E+00 0.  1.
         -2    1    1    2    0  502 -0.16968867339E+02 -0.14701246981E+02  0.22353266569E+02  0.31681818885E+02  0.00000000000E+00 0. -1.
</event>
<event>
 4    1  0.5953944E+003  0.3812253E+02  0.7546771E-02  0.1359853E+00
          2   -1    0    0  501    0  0.00000000000E+00  0.00000000000E+00  0.68794703019E+03  0.68794703019E+03  0.00000000000E+00 0. -1.
         -2   -1    0    0    0  501 -0.00000000000E+00 -0.00000000000E+00 -0.10451247151E+02  0.10451247151E+02  0.00000000000E+00 0.  1.
          2    1    1    2  502    0 -0.32750029173E+02  0.19513136664E+02  0.65066416834E+03  0.65178001418E+03  0.00000000000E+00 0. -1.
         -2    1    1    2    0  502  0.32750029173E+02 -0.19513136664E+02  0.26831614695E+02  0.46618263163E+02  0.00000000000E+00 0.  1.
</event>
<event>
 4    1  0.5953944E+003  0.2335070E+02  0.7546771E-02  0.1488141E+00
          2   -1    0    0  501    0  0.00000000000E+00  0.00000000000E+00  0.11946715839E+01  0.11946715839E+01  0.00000000000E+00 0.  1.
         -2   -1    0    0    0  501 -0.00000000000E+00 -0.00000000000E+00 -0.53235742280E+03  0.53235742280E+03  0.00000000000E+00 0. -1.
          2    1    1    2  502    0  0.12678458565E+02 -0.19608979475E+02 -0.16481564152E+03  0.16646156036E+03  0.00000000000E+00 0.  1.
         -2    1    1    2    0  502 -0.12678458565E+02  0.19608979475E+02 -0.36634710970E+03  0.36709053403E+03  0.00000000000E+00 0. -1.
</event>
<event>
 4    1  0.5953944E+003  0.4617787E+02  0.7546771E-02  0.1315652E+00
          2   -1    0    0  501    0  0.00000000000E+00  0.00000000000E+00  0.15962755733E+04  0.15962755733E+04  0.00000000000E+00 0.  1.
         -2   -1    0    0    0  501 -0.00000000000E+00 -0.00000000000E+00 -0.91158474819E+02  0.91158474819E+02  0.00000000000E+00 0.  1.
          2    1    1    2  502    0  0.11829758558E+02  0.44636895872E+02  0.15900707479E+04  0.15907411414E+04  0.00000000000E+00 0.  1.
         -2    1    1    2    0  502 -0.11829758558E+02 -0.44636895872E+02 -0.84953649410E+02  0.96692906714E+02  0.00000000000E+00 0.  1.
</event>
<event>
 4    1  0.5953944E+003  0.2639377E+02  0.7546771E-02  0.1453795E+00
          2   -1    0    0  501    0  0.00000000000E+00  0.00000000000E+00  0.10051848657E+03  0.10051848657E+03  0.00000000000E+00 0.  1.
         -2   -1    0    0    0  501 -0.00000000000E+00 -0.00000000000E+00 -0.52653765839E+02  0.52653765839E+02  0.00000000000E+00 0. -1.
          2    1    1    2  502    0  0.26355061505E+02  0.14289129318E+01  0.95300534719E+02  0.98887931401E+02  0.00000000000E+00 0.  1.
         -2    1    1    2    0  502 -0.26355061505E+02 -0.14289129318E+01 -0.47435813985E+02  0.54284321010E+02  0.00000000000E+00 0. -1.
</event>
<event>
 4    1  0.5953944E+003  0.2278888E+02  0.7546771E-02  0.1495166E+00
          2   -1    0    0  501    0  0.00000000000E+00  0.00000000000E+00  0.14191104134E+04  0.14191104134E+04  0.00000000000E+00 0.  1.
         -2   -1    0    0    0  501 -0.00000000000E+00 -0.00000000000E+00 -0.12117472830E+02  0.12117472830E+02  0.00000000000E+00 0. -1.
          2    1    1    2  502    0  0.18402436503E+02 -0.13441858987E+02  0.14082215273E+04  0.14084059085E+04  0.00000000000E+00 0.  1.
         -2    1    1    2    0  502 -0.18402436503E+02  0.13441858987E+02 -0.12285866961E+01  0.22821977731E+02  0.00000000000E+00 0. -1.
</event>
<event>
 4    1  0.5953944E+003  0.2496576E+02  0.7546771E-02  0.1469187E+00
          2   -1    0    0  501    0  0.00000000000E+00  0.00000000000E+00  0.76662325340E+03  0.76662325340E+03  0.00000000000E+00 0.  1.
         -2   -1    0    0    0  501 -0.00000000000E+00 -0.00000000000E+00 -0.21049695260E+02  0.21049695260E+02  0.00000000000E+00 0. -1.
          2    1    1    2  502    0 -0.22907897009E+02 -0.99255989121E+01  0.75894250655E+03  0.75935302562E+03  0.00000000000E+00 0.  1.
         -2    1    1    2    0  502  0.22907897009E+02  0.99255989121E+01 -0.13368948418E+02  0.28319923039E+02  0.00000000000E+00 0. -1.
</event>
<event>
 4    1  0.5953944E+003  0.2125716E+02  0.7546771E-02  0.1515625E+00
          2   -1    0    0  501    0  0.00000000000E+00  0.00000000000E+00  0.86956644597E+01  0.86956644597E+01  0.00000000000E+00 0.  1.
         -2   -1    0    0    0  501 -0.00000000000E+00 -0.00000000000E+00 -0.53185297520E+02  0.53185297520E+02  0.00000000000E+00 0.  1.
          2    1    1    2  502    0  0.18637612308E+02 -0.10222800026E+02 -0.26932360665E+02  0.34310614741E+02  0.00000000000E+00 0.  1.
         -2    1    1    2    0  502 -0.18637612308E+02  0.10222800026E+02 -0.17557272396E+02  0.27570347240E+02  0.00000000000E+00 0.  1.
</event>
<event>
 4    1  0.5953944E+003  0.3001536E+02  0.7546771E-02  0.1419463E+00
          2   -1    0    0  501    0  0.00000000000E+00  0.00000000000E+00  0.30916057954E+03  0.30916057954E+03  0.00000000000E+00 0.  1.
         -2   -1    0    0    0  501 -0.00000000000E+00 -0.00000000000E+00 -0.34012652872E+01  0.34012652872E+01  0.00000000000E+00 0.  1.
          2    1    1    2  502    0  0.18262800660E+02 -0.23819990560E+02  0.21202604335E+03  0.21414005907E+03  0.00000000000E+00 0.  1.
         -2    1    1    2    0  502 -0.18262800660E+02  0.23819990560E+02  0.93733270898E+02  0.98421785756E+02  0.00000000000E+00 0.  1.
</event>
<event>
 4    1  0.5953944E+003  0.3218484E+02  0.7546771E-02  0.1401514E+00
          2   -1    0    0  501    0  0.00000000000E+00  0.00000000000E+00  0.10026547523E+04  0.10026547523E+04  0.00000000000E+00 0.  1.
         -2   -1    0    0    0  501 -0.00000000000E+00 -0.00000000000E+00 -0.15136002697E+01  0.15136002697E+01  0.00000000000E+00 0.  1.
          2    1    1    2  502    0 -0.18132958653E+02 -0.26590594806E+02  0.78345442642E+03  0.78411523528E+03  0.00000000000E+00 0.  1.
         -2    1    1    2    0  502  0.18132958653E+02  0.26590594806E+02  0.21768672557E+03  0.22005311724E+03  0.00000000000E+00 0.  1.
</event>
<event>
 4    1  0.5953944E+003  0.3440973E+02  0.7546771E-02  0.1384761E+00
          2   -1    0    0  501    0  0.00000000000E+00  0.00000000000E+00  0.33969621296E+03  0.33969621296E+03  0.00000000000E+00 0. -1.
         -2   -1    0    0    0  501 -0.00000000000E+00 -0.00000000000E+00 -0.56092686941E+02  0.56092686941E+02  0.00000000000E+00 0.  1.
          2    1    1    2  502    0 -0.14467610578E+02  0.31220471769E+02  0.33344910829E+03  0.33521983449E+03  0.00000000000E+00 0. -1.
         -2    1    1    2    0  502  0.14467610578E+02 -0.31220471769E+02 -0.49845582271E+02  0.60569065415E+02  0.00000000000E+00 0.  1.
</event>
<event>
 4    1  0.5953944E+003  0.2004968E+02  0.7546771E-02  0.1533278E+00
          2   -1    0    0  501    0  0.00000000000E+00  0.00000000000E+00  0.39854574066E+02  0.39854574066E+02  0.00000000000E+00 0. -1.
         -2   -1    0    0    0  501 -0.00000000000E+00 -0.00000000000E+00 -0.24098528182E+03  0.24098528182E+03  0.00000000000E+00 0. -1.
          2    1    1    2  502    0  0.12693169981E+02  0.15520085443E+02  0.36884534313E+02  0.41981644654E+02  0.00000000000E+00 0. -1.
         -2    1    1    2    0  502 -0.12693169981E+02 -0.15520085443E+02 -0.23801524207E+03  0.23885821123E+03  0.00000000000E+00 0. -1.
</event>
<event>
 4    1  0.5953944E+003  0.2385868E+02  0.7546771E-02  0.1481988E+00
          2   -1    0    0  501    0  0.00000000000E+00  0.00000000000E+00  0.13737086730E+03  0.13737086730E+03  0.00000000000E+00 0.  1.
         -2   -1    0    0    0  501 -0.00000000000E+00 -0.00000000000E+00 -0.57672097311E+02  0.57672097311E+02  0.00000000000E+00 0.  1.
          2    1    1    2  502    0 -0.23820666430E+02 -0.13462542667E+01  0.13380206239E+03  0.13591257649E+03  0.00000000000E+00 0.  1.
         -2    1    1    2    0  502  0.23820666430E+02  0.13462542667E+01 -0.54103292403E+02  0.59130388114E+02  0.00000000000E+00 0.  1.
</event>
<event>
 4    1  0.5953944E+003  0.2697484E+02  0.7546771E-02  0.1447861E+00
          2   -1    0    0  501    0  0.00000000000E+00  0.00000000000E+00  0.11058896942E+03  0.11058896942E+03  0.00000000000E+00 0.  1.
         -2   -1    0    0    0  501 -0.00000000000E+00 -0.00000000000E+00 -0.16122392100E+02  0.16122392100E+02  0.00000000000E+00 0. -1.
          2    1    1    2  502    0  0.26862116949E+02 -0.24634135667E+01  0.95975629534E+02  0.99694348877E+02  0.00000000000E+00 0.  1.
         -2    1    1    2    0  502 -0.26862116949E+02  0.24634135667E+01 -0.15090522178E+01  0.27017012640E+02  0.00000000000E+00 0. -1.
</event>
<event>
 4    1  0.5953944E+003  0.2346578E+02  0.7546771E-02  0.1486731E+00
          2   -1    0    0  501    0  0.00000000000E+00  0.00000000000E+00  0.17825522497E+03  0.17825522497E+03  0.00000000000E+00 0.  1.
         -2   -1    0    0    0  501 -0.00000000000E+00 -0.00000000000E+00 -0.90065219715E+01  0.90065219715E+01  0.00000000000E+00 0.  1.
          2    1    1    2  502    0 -0.21358751900E+02  0.97183493625E+01  0.16051843924E+03  0.16222457253E+03  0.00000000000E+00 0.  1.
         -2    1    1    2    0  502  0.21358751900E+02 -0.97183493625E+01  0.87302637568E+01  0.25037174408E+02  0.00000000000E+00 0.  1.
</event>
<event>
 4    1  0.5953944E+003  0.3566512E+02  0.7546771E-02  0.1375947E+00
          2   -1    0    0  501    0  0.00000000000E+00  0.00000000000E+00  0.48850047926E+03  0.48850047926E+03  0.00000000000E+00 0. -1.
         -2   -1    0    0    0  501 -0.00000000000E+00 -0.00000000000E+00 -0.39385201262E+01  0.39385201262E+01  0.00000000000E+00 0. -1.
          2    1    1    2  502    0 -0.35601139612E+02 -0.21352930080E+01  0.38561083736E+03  0.38725665715E+03  0.00000000000E+00 0. -1.
         -2    1    1    2    0  502  0.35601139612E+02  0.21352930080E+01  0.98951121772E+02  0.10518234223E+03  0.00000000000E+00 0. -1.
</event>
<event>
 4    1  0.5953944E+003  0.5262428E+02  0.7546771E-02  0.1287179E+00
          2   -1    0    0  501    0  0.00000000000E+00  0.00000000000E+00  0.38409260444E+02  0.38409260444E+02  0.00000000000E+00 0. -1.
         -2   -1    0    0    0  501 -0.00000000000E+00 -0.00000000000E+00 -0.14082569590E+03  0.14082569590E+03  0.00000000000E+00 0. -1.
          2    1    1    2  502    0  0.34959676600E+02 -0.39333651239E+02  0.11397028446E+02  0.53844288138E+02  0.00000000000E+00 0. -1.
         -2    1    1    2    0  502 -0.34959676600E+02  0.39333651239E+02 -0.11381346390E+03  0.12539066821E+03  0.00000000000E+00 0. -1.
</event>
<event>
 4    1  0.5953944E+003  0.3336664E+02  0.7546771E-02  0.1392425E+00
          2   -1    0    0  501    0  0.00000000000E+00  0.00000000000E+00  0.29382990870E+03  0.29382990870E+03  0.00000000000E+00 0. -1.
         -2   -1    0    0    0  501 -0.00000000000E+00 -0.00000000000E+00 -0.10913191873E+02  0.10913191873E+02  0.00000000000E+00 0. -1.
          2    1    1    2  502    0  0.55301370927E+01 -0.32905165854E+02  0.26456873816E+03  0.26666448876E+03  0.00000000000E+00 0. -1.
         -2    1    1    2    0  502 -0.55301370927E+01  0.32905165854E+02  0.18347978665E+02  0.38078611808E+02  0.00000000000E+00 0. -1.
</event>
<event>
 4    1  0.5953944E+003  0.3601173E+02  0.7546771E-02  0.1373587E+00
          2   -1    0    0  501    0  0.00000000000E+00  0.00000000000E+00  0.26316062580E+04  0.26316062580E+04  0.00000000000E+00 0. -1.
         -2   -1    0    0    0  501 -0.00000000000E+00 -0.00000000000E+00 -0.56146390484E+03  0.56146390484E+03  0.00000000000E+00 0. -1.
          2    1    1    2  502    0 -0.17542737026E+02 -0.31449917232E+02  0.26309054660E+04  0.26311519181E+04  0.00000000000E+00 0. -1.
         -2    1    1    2    0  502  0.17542737026E+02  0.31449917232E+02 -0.56076311291E+03  0.56191824469E+03  0.00000000000E+00 0. -1.
</event>
<event>
 4    1  0.5953944E+003  0.2148268E+02  0.7546771E-02  0.1512484E+00
          2   -1    0    0  501    0  0.00000000000E+00  0.00000000000E+00  0.48943949669E+03  0.48943949669E+03  0.00000000000E+00 0.  1.
         -2   -1    0    0    0  501 -0.00000000000E+00 -0.00000000000E+00 -0.97357036109E+00  0.97357036109E+00  0.00000000000E+00 0.  1.
          2    1    1    2  502    0  0.99677362985E+01 -0.19030217374E+02  0.20072910232E+03  0.20187540083E+03  0.00000000000E+00 0.  1.
         -2    1    1    2    0  502 -0.99677362985E+01  0.19030217374E+02  0.28773682401E+03  0.28853766622E+03  0.00000000000E+00 0.  1.
</event>
<event>
 4    1  0.5953944E+003  0.2285985E+02  0.7546771E-02  0.1494266E+00
          2   -1    0    0  501    0  0.00000000000E+00  0.00000000000E+00  0.22913769074E+04  0.22913769074E+04  0.00000000000E+00 0.  1.
         -2   -1    0    0    0  501 -0.00000000000E+00 -0.00000000000E+00 -0.24138729543E+00  0.24138729543E+00  0.00000000000E+00 0.  1.
          2    1    1    2  502    0 -0.21187419709E+02  0.85828947574E+01  0.14147931434E+04  0.14149778130E+04  0.00000000000E+00 0.  1.
         -2    1    1    2    0  502  0.21187419709E+02 -0.85828947574E+01  0.87634237673E+03  0.87664048166E+03  0.00000000000E+00 0.  1.
</event>
<event>
 4    1  0.5953944E+003  0.3295643E+02  0.7546771E-02  0.1395529E+00
          2   -1    0    0  501    0  0.00000000000E+00  0.00000000000E+00  0.91818702186E+03  0.91818702186E+03  0.00000000000E+00 0.  1.
         -2   -1    0    0    0  501 -0.00000000000E+00 -0.00000000000E+00 -0.20189196761E+02  0.20189196761E+02  0.00000000000E+00 0.  1.
          2    1    1    2  502    0  0.21043415911E+02  0.25363383674E+02  0.90423448478E+03  0.90483486342E+03  0.00000000000E+00 0.  1.
         -2    1    1    2    0  502 -0.21043415911E+02 -0.25363383674E+02 -0.62366596880E+01  0.33541355200E+02  0.00000000000E+00 0.  1.
</event>
<event>
 4    1  0.5953944E+003  0.5206894E+02  0.7546771E-02  0.1289443E+00
          2   -1    0    0  501    0  0.00000000000E+00  0.00000000000E+00  0.20386683259E+03  0.20386683259E+03  0.00000000000E+00 0.  1.
         -2   -1    0    0    0  501 -0.00000000000E+00 -0.00000000000E+00 -0.14765536733E+03  0.14765536733E+03  0.00000000000E+00 0. -1.
          2    1    1    2  502    0  0.43796670068E+02 -0.28160729990E+02  0.19576503915E+03  0.20257128517E+03  0.00000000000E+00 0.  1.
         -2    1    1    2    0  502 -0.43796670068E+02  0.28160729990E+02 -0.13955357389E+03  0.14895091476E+03  0.00000000000E+00 0. -1.
</event>
<event>
 4    1  0.5953944E+003  0.2073636E+02  0.7546771E-02  0.1523062E+00
          2   -1    0    0  501    0  0.00000000000E+00  0.00000000000E+00  0.10581944946E+03  0.10581944946E+03  0.00000000000E+00 0.  1.
         -2   -1    0    0    0  501 -0.00000000000E+00 -0.00000000000E+00 -0.55075446722E+01  0.55075446722E+01  0.00000000000E+00 0.  1.
          2    1    1    2  502    0  0.35391527223E+01  0.20432110472E+02  0.78658431074E+02  0.81345838979E+02  0.00000000000E+00 0.  1.
         -2    1    1    2    0  502 -0.35391527223E+01 -0.20432110472E+02  0.21653473710E+02  0.29981155148E+02  0.00000000000E+00 0.  1.
</event>
<event>
 4    1  0.5953944E+003  0.3314752E+02  0.7546771E-02  0.1394076E+00
          2   -1    0    0  501    0  0.00000000000E+00  0.00000000000E+00  0.59912679918E+03  0.59912679918E+03  0.00000000000E+00 0.  1.
         -2   -1    0    0    0  501 -0.00000000000E+00 -0.00000000000E+00 -0.18705394972E+01  0.18705394972E+01  0.00000000000E+00 0.  1.
          2    1    1    2  502    0  0.32095152952E+02  0.82860334735E+01  0.25658933835E+03  0.25872156027E+03  0.00000000000E+00 0.  1.
         -2    1    1    2    0  502 -0.32095152952E+02 -0.82860334735E+01  0.34066692134E+03  0.34227577841E+03  0.00000000000E+00 0.  1.
</event>
<event>
 4    1  0.5953944E+003  0.2738337E+02  0.7546771E-02  0.1443795E+00
          2   -1    0    0  501    0  0.00000000000E+00  0.00000000000E+00  0.17898874432E+03  0.17898874432E+03  0.00000000000E+00 0.  1.
         -2   -1    0    0    0  501 -0.00000000000E+00 -0.00000000000E+00 -0.58084564335E+01  0.58084564335E+01  0.00000000000E+00 0. -1.
          2    1    1    2  502    0 -0.20129172142E+02 -0.18565165330E+02  0.13537341262E+03  0.13811520474E+03  0.00000000000E+00 0.  1.
         -2    1    1    2    0  502  0.20129172142E+02  0.18565165330E+02  0.37806875270E+02  0.46681996021E+02  0.00000000000E+00 0. -1.
</event>
<event>
 4    1  0.5953944E+003  0.8354034E+02  0.7546771E-02  0.1195859E+00
          2   -1    0    0  501    0  0.00000000000E+00  0.00000000000E+00  0.22187060020E+04  0.22187060020E+04  0.00000000000E+00 0.  1.
         -2   -1    0    0    0  501 -0.00000000000E+00 -0.00000000000E+00 -0.88388070646E+01  0.88388070646E+01  0.00000000000E+00 0.  1.
          2    1    1    2  502    0  0.34625160844E+02 -0.76026886496E+02  0.19988174235E+04  0.20005624413E+04  0.00000000000E+00 0.  1.
         -2    1    1    2    0  502 -0.34625160844E+02  0.76026886496E+02  0.21104977147E+03  0.22698236776E+03  0.00000000000E+00 0.  1.
</event>
<event>
 4    1  0.5953944E+003  0.2742614E+02  0.7546771E-02  0.1443374E+00
          2   -1    0    0  501    0  0.00000000000E+00  0.00000000000E+00  0.35988640185E+03  0.35988640185E+03  0.00000000000E+00 0. -1.
         -2   -1    0    0    0  501 -0.00000000000E+00 -0.00000000000E+00 -0.41841843505E+02  0.41841843505E+02  0.00000000000E+00 0. -1.
          2    1    1    2  502    0  0.25270839834E+02 -0.10657290459E+02  0.35480535144E+03  0.35586378095E+03  0.00000000000E+00 0. -1.
         -2    1    1    2    0  502 -0.25270839834E+02  0.10657290459E+02 -0.36760793094E+02  0.45864464401E+02  0.00000000000E+00 0. -1.
</event>
<event>
 4    1  0.5953944E+003  0.2768770E+02  0.7546771E-02  0.1440820E+00
          2   -1    0    0  501    0  0.00000000000E+00  0.00000000000E+00  0.85222479973E+02  0.85222479973E+02  0.00000000000E+00 0.  1.
         -2   -1    0    0    0  501 -0.00000000000E+00 -0.00000000000E+00 -0.59271061285E+02  0.59271061285E+02  0.00000000000E+00 0.  1.
          2    1    1    2  502    0 -0.35645667073E+01  0.27457290661E+02  0.79514675950E+02  0.84197343412E+02  0.00000000000E+00 0.  1.
         -2    1    1    2    0  502  0.35645667073E+01 -0.27457290661E+02 -0.53563257262E+02  0.60296197847E+02  0.00000000000E+00 0.  1.
</event>
<event>
 4    1  0.5953944E+003  0.2727509E+02  0.7546771E-02  0.1444864E+00
          2   -1    0    0  501    0  0.00000000000E+00  0.00000000000E+00  0.50387349255E+03  0.50387349255E+03  0.00000000000E+00 0. -1.
         -2   -1    0    0    0  501 -0.00000000000E+00 -0.00000000000E+00 -0.84769332203E+01  0.84769332203E+01  0.00000000000E+00 0. -1.
          2    1    1    2  502    0 -0.27229474102E+02  0.15767331170E+01  0.48049806522E+03  0.48127156682E+03  0.00000000000E+00 0. -1.
         -2    1    1    2    0  502  0.27229474102E+02 -0.15767331170E+01  0.14898494115E+02  0.31078858958E+02  0.00000000000E+00 0. -1.
</event>
<event>
 4    1  0.5953944E+003  0.3161112E+02  0.7546771E-02  0.1406094E+00
          2   -1    0    0  501    0  0.00000000000E+00  0.00000000000E+00  0.79991016682E+03  0.79991016682E+03  0.00000000000E+00 0. -1.
         -2   -1    0    0    0  501 -0.00000000000E+00 -0.00000000000E+00 -0.16047810248E+01  0.16047810248E+01  0.00000000000E+00 0. -1.
          2    1    1    2  502    0  0.73163742150E+01 -0.30752784631E+02  0.58779162854E+03  0.58864102955E+03  0.00000000000E+00 0. -1.
         -2    1    1    2    0  502 -0.73163742150E+01  0.30752784631E+02  0.21051375725E+03  0.21287391829E+03  0.00000000000E+00 0. -1.
</event>
<event>
 4    1  0.5953944E+003  0.6023864E+02  0.7546771E-02  0.1259024E+00
          2   -1    0    0  501    0  0.00000000000E+00  0.00000000000E+00  0.20141690013E+04  0.20141690013E+04  0.00000000000E+00 0.  1.
         -2   -1    0    0    0  501 -0.00000000000E+00 -0.00000000000E+00 -0.60674843431E+01  0.60674843431E+01  0.00000000000E+00 0. -1.
          2    1    1    2  502    0  0.59674712810E+02 -0.82232963662E+01  0.18510309485E+04  0.18520108710E+04  0.00000000000E+00 0.  1.
         -2    1    1    2    0  502 -0.59674712810E+02  0.82232963662E+01  0.15707056851E+03  0.16822561471E+03  0.00000000000E+00 0. -1.
</event>
<event>
 4    1  0.5953944E+003  0.2079144E+02  0.7546771E-02  0.1522264E+00
          2   -1    0    0  501    0  0.00000000000E+00  0.00000000000E+00  0.74715554729E+02  0.74715554729E+02  0.00000000000E+00 0.  1.
         -2   -1    0    0    0  501 -0.00000000000E+00 -0.00000000000E+00 -0.16052522525E+03  0.16052522525E+03  0.00000000000E+00 0.  1.
          2    1    1    2  502    0 -0.20036487891E+02  0.55518602175E+01  0.72576436903E+02  0.75495848842E+02  0.00000000000E+00 0.  1.
         -2    1    1    2    0  502  0.20036487891E+02 -0.55518602175E+01 -0.15838610743E+03  0.15974493114E+03  0.00000000000E+00 0.  1.
</event>
<event>
 4    1  0.5953944E+003  0.2881007E+02  0.7546771E-02  0.1430227E+00
          2   -1    0    0  501    0  0.00000000000E+00  0.00000000000E+00  0.12477125372E+04  0.12477125372E+04  0.00000000000E+00 0. -1.
         -2   -1    0    0    0  501 -0.00000000000E+00 -0.00000000000E+00 -0.69444734241E+00  0.69444734241E+00  0.00000000000E+00 0. -1.
          2    1    1    2  502    0 -0.16211435970E+02 -0.23816158483E+02  0.75153604589E+03  0.75208805890E+03  0.00000000000E+00 0. -1.
         -2    1    1    2    0  502  0.16211435970E+02  0.23816158483E+02  0.49548204395E+03  0.49631892563E+03  0.00000000000E+00 0. -1.
</event>
<event>
 4    1  0.5953944E+003  0.2023989E+02  0.7546771E-02  0.1530400E+00
          2   -1    0    0  501    0  0.00000000000E+00  0.00000000000E+00  0.16613458485E+01  0.16613458485E+01  0.00000000000E+00 0. -1.
         -2   -1    0    0    0  501 -0.00000000000E+00 -0.00000000000E+00 -0.43952730493E+03  0.43952730493E+03  0.00000000000E+00 0.  1.
          2    1    1    2  502    0  0.17897628615E+02  0.94513561038E+01 -0.72775271296E+02  0.75537363963E+02  0.00000000000E+00 0. -1.
         -2    1    1    2    0  502 -0.17897628615E+02 -0.94513561038E+01 -0.36509068779E+03  0.36565128682E+03  0.00000000000E+00 0.  1.
</event>
<event>
 4    1  0.5953944E+003  0.2722279E+02  0.7546771E-02  0.1445383E+00
          2   -1    0    0  501    0  0.00000000000E+00  0.00000000000E+00  0.12694633510E+04  0.12694633510E+04  0.00000000000E+00 0. -1.
         -2   -1    0    0    0  501 -0.00000000000E+00 -0.00000000000E+00 -0.68847447542E+01  0.68847447542E+01  0.00000000000E+00 0.  1.
          2    1    1    2  502    0  0.13206665532E+02 -0.23804706060E+02  0.12418079595E+04  0.12421063112E+04  0.00000000000E+00 0. -1.
         -2    1    1    2    0  502 -0.13206665532E+02  0.23804706060E+02  0.20770646815E+02  0.34241784624E+02  0.00000000000E+00 0.  1.
</event>
<event>
 4    1  0.5953944E+003  0.2567368E+02  0.7546771E-02  0.1461406E+00
          2   -1    0    0  501    0  0.00000000000E+00  0.00000000000E+00  0.13508537517E+03  0.13508537517E+03  0.00000000000E+00 0.  1.
         -2   -1    0    0    0  501 -0.00000000000E+00 -0.00000000000E+00 -0.20264277615E+02  0.20264277615E+02  0.00000000000E+00 0.  1.
          2    1    1    2  502    0  0.27207490462E+01  0.25529107220E+02  0.12509073108E+03  0.12769819416E+03  0.00000000000E+00 0.  1.
         -2    1    1    2    0  502 -0.27207490462E+01 -0.25529107220E+02 -0.10269633529E+02  0.27651458617E+02  0.00000000000E+00 0.  1.
</event>
<event>
 4    1  0.5953944E+003  0.3391009E+02  0.7546771E-02  0.1388392E+00
          2   -1    0    0  501    0  0.00000000000E+00  0.00000000000E+00  0.42858654556E+03  0.42858654556E+03  0.00000000000E+00 0. -1.
         -2   -1    0    0    0  501 -0.00000000000E+00 -0.00000000000E+00 -0.58944278637E+01  0.58944278637E+01  0.00000000000E+00 0.  1.
          2    1    1    2  502    0  0.15117514801E+02  0.30353832121E+02  0.37169627456E+03  0.37323988921E+03  0.00000000000E+00 0. -1.
         -2    1    1    2    0  502 -0.15117514801E+02 -0.30353832121E+02  0.50995843141E+02  0.61241084215E+02  0.00000000000E+00 0.  1.
</event>
<event>
 4    1  0.5953944E+003  0.3030779E+02  0.7546771E-02  0.1416940E+00
          2   -1    0    0  501    0  0.00000000000E+00  0.00000000000E+00  0.17707929809E+04  0.17707929809E+04  0.00000000000E+00 0.  1.
         -2   -1    0    0    0  501 -0.00000000000E+00 -0.00000000000E+00 -0.65050317343E+00  0.65050317343E+00  0.00000000000E+00 0. -1.
          2    1    1    2  502    0 -0.29240160485E+02 -0.79734177021E+01  0.12837169464E+04  0.12840746710E+04  0.00000000000E+00 0.  1.
         -2    1    1    2    0  502  0.29240160485E+02  0.79734177021E+01  0.48642553140E+03  0.48736881309E+03  0.00000000000E+00 0. -1.
</event>
<event>
 4    1  0.5953944E+003  0.2683129E+02  0.7546771E-02  0.1449310E+00
          2   -1    0    0  501    0  0.00000000000E+00  0.00000000000E+00  0.12892419490E+04  0.12892419490E+04  0.00000000000E+00 0. -1.
         -2   -1    0    0    0  501 -0.00000000000E+00 -0.00000000000E+00 -0.52894133957E+01  0.52894133957E+01  0.00000000000E+00 0.  1.
          2    1    1    2  502    0 -0.15349722670E+02  0.22006915269E+02  0.12541232529E+04  0.12544102407E+04  0.00000000000E+00 0. -1.
         -2    1    1    2    0  502  0.15349722670E+02 -0.22006915269E+02  0.29829282693E+02  0.40121121765E+02  0.00000000000E+00 0.  1.
</event>
<event>
 4    1  0.5953944E+003  0.2142841E+02  0.7546771E-02  0.1513235E+00
          2   -1    0    0  501    0  0.00000000000E+00  0.00000000000E+00  0.10773722211E+04  0.10773722211E+04  0.00000000000E+00 0.  1.
         -2   -1    0    0    0  501 -0.00000000000E+00 -0.00000000000E+00 -0.79921700101E+00  0.79921700101E+00  0.00000000000E+00 0.  1.
          2    1    1    2  502    0 -0.20453826722E+02  0.63888910936E+01  0.90657596047E+03  0.90682917303E+03  0.00000000000E+00 0.  1.
         -2    1    1    2    0  502  0.20453826722E+02 -0.63888910936E+01  0.16999704365E+03  0.17134226509E+03  0.00000000000E+00 0.  1.
</event>
<event>
 4    1  0.5953944E+003  0.2822267E+02  0.7546771E-02  0.1435698E+00
          2   -1    0    0  501    0  0.00000000000E+00  0.00000000000E+00  0.25959472490E+02  0.25959472490E+02  0.00000000000E+00 0. -1.
         -2   -1    0    0    0  501 -0.00000000000E+00 -0.00000000000E+00 -0.17066606636E+03  0.17066606636E+03  0.00000000000E+00 0.  1.
          2    1    1    2  502    0 -0.13659956555E+02  0.24696658085E+02  0.16684376425E+02  0.32785480786E+02  0.00000000000E+00 0. -1.
         -2    1    1    2    0  502  0.13659956555E+02 -0.24696658085E+02 -0.16139097030E+03  0.16384005807E+03  0.00000000000E+00 0.  1.
</event>
<event>
 4    1  0.5953944E+003  0.5836267E+02  0.7546771E-02  0.1265499E+00
          2   -1    0    0  501    0  0.00000000000E+00  0.00000000000E+00  0.59952625679E+02  0.59952625679E+02  0.00000000000E+00 0.  1.
         -2   -1    0    0    0  501 -0.00000000000E+00 -0.00000000000E+00 -0.16547914900E+03  0.16547914900E+03  0.00000000000E+00 0.  1.
          2    1    1    2  502    0 -0.14788994115E+02  0.56457830125E+02  0.38575871657E+02  0.69959265315E+02  0.00000000000E+00 0.  1.
         -2    1    1    2    0  502  0.14788994115E+02 -0.56457830125E+02 -0.14410239497E+03  0.15547250936E+03  0.00000000000E+00 0.  1.
</event>
<event>
 4    1  0.5953944E+003  0.2352532E+02  0.7546771E-02  0.1486005E+00
          2   -1    0    0  501    0  0.00000000000E+00  0.00000000000E+00  0.10382151561E+02  0.10382151561E+02  0.00000000000E+00 0. -1.
         -2   -1    0    0    0  501 -0.00000000000E+00 -0.00000000000E+00 -0.55757729422E+02  0.55757729422E+02  0.00000000000E+00 0. -1.
          2    1    1    2  502    0  0.15484042726E+01 -0.23474297093E+02 -0.29621066227E+02  0.37826548141E+02  0.00000000000E+00 0. -1.
         -2    1    1    2    0  502 -0.15484042726E+01  0.23474297093E+02 -0.15754511634E+02  0.28313332843E+02  0.00000000000E+00 0. -1.
</event>
<event>
 4    1  0.5953944E+003  0.2512692E+02  0.7546771E-02  0.1467388E+00
          2   -1    0    0  501    0  0.00000000000E+00  0.00000000000E+00  0.36738763277E+02  0.36738763277E+02  0.00000000000E+00 0. -1.
         -2   -1    0    0    0  501 -0.00000000000E+00 -0.00000000000E+00 -0.19061142474E+02  0.19061142474E+02  0.00000000000E+00 0. -1.
          2    1    1    2  502    0 -0.30260304175E+01  0.24944045892E+02  0.17591489345E+02  0.30672834609E+02  0.00000000000E+00 0. -1.
         -2    1    1    2    0  502  0.30260304175E+01 -0.24944045892E+02  0.86131457772E-01  0.25127071142E+02  0.00000000000E+00 0. -1.
</event>
<event>
 4    1  0.5953944E+003  0.2334987E+02  0.7546771E-02  0.1488151E+00
          2   -1    0    0  501    0  0.00000000000E+00  0.00000000000E+00  0.49655803774E+03  0.49655803774E+03  0.00000000000E+00 0. -1.
         -2   -1    0    0    0  501 -0.00000000000E+00 -0.00000000000E+00 -0.14675029758E+01  0.14675029758E+01  0.00000000000E+00 0. -1.
          2    1    1    2  502    0 -0.11819783874E+02 -0.20137251892E+02  0.37249819764E+03  0.37322931751E+03  0.00000000000E+00 0. -1.
         -2    1    1    2    0  502  0.11819783874E+02  0.20137251892E+02  0.12259233712E+03  0.12479622320E+03  0.00000000000E+00 0. -1.
</event>
<event>
 4    1  0.5953944E+003  0.2144496E+02  0.7546771E-02  0.1513006E+00
          2   -1    0    0  501    0  0.00000000000E+00  0.00000000000E+00  0.11015482923E+04  0.11015482923E+04  0.00000000000E+00 0. -1.
         -2   -1    0    0    0  501 -0.00000000000E+00 -0.00000000000E+00 -0.68627205526E+00  0.68627205526E+00  0.00000000000E+00 0. -1.
          2    1    1    2  502    0 -0.19397935088E+02 -0.91436490692E+01  0.89533277418E+03  0.89558956153E+03  0.00000000000E+00 0. -1.
         -2    1    1    2    0  502  0.19397935088E+02  0.91436490692E+01  0.20552924609E+03  0.20664500285E+03  0.00000000000E+00 0. -1.
</event>
<event>
 4    1  0.5953944E+003  0.2869057E+02  0.7546771E-02  0.1431327E+00
          2   -1    0    0  501    0  0.00000000000E+00  0.00000000000E+00  0.13586897072E+04  0.13586897072E+04  0.00000000000E+00 0. -1.
         -2   -1    0    0    0  501 -0.00000000000E+00 -0.00000000000E+00 -0.54245093014E+02  0.54245093014E+02  0.00000000000E+00 0.  1.
          2    1    1    2  502    0 -0.15638663612E+02  0.24053705096E+02  0.13547335156E+04  0.13550372861E+04  0.00000000000E+00 0. -1.
         -2    1    1    2    0  502  0.15638663612E+02 -0.24053705096E+02 -0.50288901426E+02  0.57897514066E+02  0.00000000000E+00 0.  1.
</event>
<event>
 4    1  0.5953944E+003  0.2187189E+02  0.7546771E-02  0.1507171E+00
          2   -1    0    0  501    0  0.00000000000E+00  0.00000000000E+00  0.90276197195E+03  0.90276197195E+03  0.00000000000E+00 0.  1.
         -2   -1    0    0    0  501 -0.00000000000E+00 -0.00000000000E+00 -0.19611272127E+02  0.19611272127E+02  0.00000000000E+00 0. -1.
          2    1    1    2  502    0  0.21051408412E+02 -0.59344646095E+01  0.89648855302E+03  0.89675532078E+03  0.00000000000E+00 0.  1.
         -2    1    1    2    0  502 -0.21051408412E+02  0.59344646095E+01 -0.13337853189E+02  0.25617923297E+02  0.00000000000E+00 0. -1.
</event>
<event>
 4    1  0.5953944E+003  0.2128258E+02  0.7546771E-02  0.1515268E+00
          2   -1    0    0  501    0  0.00000000000E+00  0.00000000000E+00  0.28989646325E+03  0.28989646325E+03  0.00000000000E+00 0. -1.
         -2   -1    0    0    0  501 -0.00000000000E+00 -0.00000000000E+00 -0.87200953844E+01  0.87200953844E+01  0.00000000000E+00 0.  1.
          2    1    1    2  502    0 -0.87785958363E+01  0.19387734878E+02  0.27586034779E+03  0.27668010318E+03  0.00000000000E+00 0. -1.
         -2    1    1    2    0  502  0.87785958363E+01 -0.19387734878E+02  0.53160200682E+01  0.21936455455E+02  0.00000000000E+00 0.  1.
</event>
<event>
 4    1  0.5953944E+003  0.2344528E+02  0.7546771E-02  0.1486981E+00
          2   -1    0    0  501    0  0.00000000000E+00  0.00000000000E+00  0.35888653038E+03  0.35888653038E+03  0.00000000000E+00 0. -1.
         -2   -1    0    0    0  501 -0.00000000000E+00 -0.00000000000E+00 -0.15316718702E+01  0.15316718702E+01  0.00000000000E+00 0. -1.
          2    1    1    2  502    0  0.23020659515E+02 -0.44418051228E+01  0.17770500490E+03  0.17924494180E+03  0.00000000000E+00 0. -1.
         -2    1    1    2    0  502 -0.23020659515E+02  0.44418051228E+01  0.17964985362E+03  0.18117326045E+03  0.00000000000E+00 0. -1.
</event>
<event>
 4    1  0.5953944E+003  0.3917012E+02  0.7546771E-02  0.1353419E+00
          2   -1    0    0  501    0  0.00000000000E+00  0.00000000000E+00  0.70814139483E+03  0.70814139483E+03  0.00000000000E+00 0. -1.
         -2   -1    0    0    0  501 -0.00000000000E+00 -0.00000000000E+00 -0.10235845632E+02  0.10235845632E+02  0.00000000000E+00 0.  1.
          2    1    1    2  502    0 -0.10288109771E+02  0.37794884297E+02  0.66786831190E+03  0.66901597928E+03  0.00000000000E+00 0. -1.
         -2    1    1    2    0  502  0.10288109771E+02 -0.37794884297E+02  0.30037237297E+02  0.49361261189E+02  0.00000000000E+00 0.  1.
</event>
<event>
 4    1  0.7094785E+003  0.2278586E+02  0.7546771E-02  0.1495205E+00
          2   -1    0    0  501    0  0.00000000000E+00  0.00000000000E+00  0.76991860516E+03  0.76991860516E+03  0.00000000000E+00 0.  1.
         -2   -1    0    0    0  501 -0.00000000000E+00 -0.00000000000E+00 -0.49275748461E+03  0.49275748461E+03  0.00000000000E+00 0. -1.
          2    1    1    2  502    0  0.47521376267E+01  0.22284806624E+02  0.76948645623E+03  0.76982374719E+03  0.00000000000E+00 0.  1.
         -2    1    1    2    0  502 -0.47521376267E+01 -0.22284806624E+02 -0.49232533568E+03  0.49285234257E+03  0.00000000000E+00 0. -1.
</event>
<event>
 4    1  0.5953944E+003  0.2179052E+02  0.7546771E-02  0.1508271E+00
          2   -1    0    0  501    0  0.00000000000E+00  0.00000000000E+00  0.35489295796E+03  0.35489295796E+03  0.00000000000E+00 0.  1.
         -2   -1    0    0    0  501 -0.00000000000E+00 -0.00000000000E+00 -0.85606409148E+01  0.85606409148E+01  0.00000000000E+00 0.  1.
          2    1    1    2  502    0 -0.69273516519E+01 -0.20660068871E+02  0.34008891773E+03  0.34078629463E+03  0.00000000000E+00 0.  1.
         -2    1    1    2    0  502  0.69273516519E+01  0.20660068871E+02  0.62433993177E+01  0.22667304245E+02  0.00000000000E+00 0.  1.
</event>
<event>
 4    1  0.5953944E+003  0.2391472E+02  0.7546771E-02  0.1481321E+00
          2   -1    0    0  501    0  0.00000000000E+00  0.00000000000E+00  0.29179855679E+03  0.29179855679E+03  0.00000000000E+00 0. -1.
         -2   -1    0    0    0  501 -0.00000000000E+00 -0.00000000000E+00 -0.78779150911E+01  0.78779150911E+01  0.00000000000E+00 0. -1.
          2    1    1    2  502    0  0.16468680877E+02  0.17340593714E+02  0.27182852004E+03  0.27287846736E+03  0.00000000000E+00 0. -1.
         -2    1    1    2    0  502 -0.16468680877E+02 -0.17340593714E+02  0.12092121656E+02  0.26798004521E+02  0.00000000000E+00 0. -1.
</event>
<event>
 4    1  0.5953944E+003  0.2373747E+02  0.7546771E-02  0.1483440E+00
          2   -1    0    0  501    0  0.00000000000E+00  0.00000000000E+00  0.11009404668E+04  0.11009404668E+04  0.00000000000E+00 0. -1.
         -2   -1    0    0    0  501 -0.00000000000E+00 -0.00000000000E+00 -0.64421822753E+00  0.64421822753E+00  0.00000000000E+00 0. -1.
          2    1    1    2  502    0  0.20052516298E+01 -0.23652616908E+02  0.79985836458E+03  0.80021051649E+03  0.00000000000E+00 0. -1.
         -2    1    1    2    0  502 -0.20052516298E+01  0.23652616908E+02  0.30043788395E+03  0.30137416849E+03  0.00000000000E+00 0. -1.
</event>
<event>
 4    1  0.5953944E+003  0.2276579E+02  0.7546771E-02  0.1495460E+00
          2   -1    0    0  501    0  0.00000000000E+00  0.00000000000E+00  0.26063590912E+03  0.26063590912E+03  0.00000000000E+00 0.  1.
         -2   -1    0    0    0  501 -0.00000000000E+00 -0.00000000000E+00 -0.77785974422E+01  0.77785974422E+01  0.00000000000E+00 0. -1.
          2    1    1    2  502    0 -0.20166268367E+02  0.10564233500E+02  0.24221765037E+03  0.24328516510E+03  0.00000000000E+00 0.  1.
         -2    1    1    2    0  502  0.20166268367E+02 -0.10564233500E+02  0.10639661306E+02  0.25129341456E+02  0.00000000000E+00 0. -1.
</event>
<event>
 4    1  0.5953944E+003  0.2504162E+02  0.7546771E-02  0.1468338E+00
          2   -1    0    0  501    0  0.00000000000E+00  0.00000000000E+00  0.26140114826E+03  0.26140114826E+03  0.00000000000E+00 0.  1.
         -2   -1    0    0    0  501 -0.00000000000E+00 -0.00000000000E+00 -0.41637897780E+02  0.41637897780E+02  0.00000000000E+00 0. -1.
          2    1    1    2  502    0 -0.24275661012E+02 -0.61461560386E+01  0.25697157057E+03  0.25818882825E+03  0.00000000000E+00 0.  1.
         -2    1    1    2    0  502  0.24275661012E+02  0.61461560386E+01 -0.37208320092E+02  0.44850217789E+02  0.00000000000E+00 0. -1.
</event>
<event>
 4    1  0.5953944E+003  0.2259403E+02  0.7546771E-02  0.1497660E+00
          2   -1    0    0  501    0  0.00000000000E+00  0.00000000000E+00  0.16830422442E+03  0.16830422442E+03  0.00000000000E+00 0. -1.
         -2   -1    0    0    0  501 -0.00000000000E+00 -0.00000000000E+00 -0.14297702182E+02  0.14297702182E+02  0.00000000000E+00 0. -1.
          2    1    1    2  502    0  0.14946113546E+02 -0.16944139420E+02  0.15804325634E+03  0.15965012072E+03  0.00000000000E+00 0. -1.
         -2    1    1    2    0  502 -0.14946113546E+02  0.16944139420E+02 -0.40367341085E+01  0.22951805878E+02  0.00000000000E+00 0. -1.
</event>
<event>
 4    1  0.5953944E+003  0.2188414E+02  0.7546771E-02  0.1507006E+00
          2   -1    0    0  501    0  0.00000000000E+00  0.00000000000E+00  0.20276518947E+03  0.20276518947E+03  0.00000000000E+00 0. -1.
         -2   -1    0    0    0  501 -0.00000000000E+00 -0.00000000000E+00 -0.15955964114E+02  0.15955964114E+02  0.00000000000E+00 0.  1.
          2    1    1    2  502    0 -0.17626264818E+02 -0.12970357392E+02  0.19434700340E+03  0.19557523645E+03  0.00000000000E+00 0. -1.
         -2    1    1    2    0  502  0.17626264818E+02  0.12970357392E+02 -0.75377780402E+01  0.23145917137E+02  0.00000000000E+00 0.  1.
</event>
<event>
 4    1  0.5953944E+003  0.3188874E+02  0.7546771E-02  0.1403864E+00
          2   -1    0    0  501    0  0.00000000000E+00  0.00000000000E+00  0.76950523775E+03  0.76950523775E+03  0.00000000000E+00 0. -1.
         -2   -1    0    0    0  501 -0.00000000000E+00 -0.00000000000E+00 -0.10322898445E+02  0.10322898445E+02  0.00000000000E+00 0. -1.
          2    1    1    2  502    0  0.28444403626E+02  0.14415533726E+02  0.74369342330E+03  0.74437678602E+03  0.00000000000E+00 0. -1.
         -2    1    1    2    0  502 -0.28444403626E+02 -0.14415533726E+02  0.15488916010E+02  0.35451350177E+02  0.00000000000E+00 0. -1.
</event>
<event>
 4    1  0.5953944E+003  0.3069394E+02  0.7546771E-02  0.1413660E+00
          2   -1    0    0  501    0  0.00000000000E+00  0.00000000000E+00  0.73477943535E+03  0.73477943535E+03  0.00000000000E+00 0. -1.
         -2   -1    0    0    0  501 -0.00000000000E+00 -0.00000000000E+00 -0.12821789782E+01  0.12821789782E+01  0.00000000000E+00 0.  1.
          2    1    1    2  502    0 -0.28888468199E+02  0.10371761559E+02  0.36625238471E+03  0.36753629254E+03  0.00000000000E+00 0. -1.
         -2    1    1    2    0  502  0.28888468199E+02 -0.10371761559E+02  0.36724487166E+03  0.36852532178E+03  0.00000000000E+00 0.  1.
</event>
<event>
 4    1  0.5953944E+003  0.2492987E+02  0.7546771E-02  0.1469590E+00
          2   -1    0    0  501    0  0.00000000000E+00  0.00000000000E+00  0.69747483458E+02  0.69747483458E+02  0.00000000000E+00 0. -1.
         -2   -1    0    0    0  501 -0.00000000000E+00 -0.00000000000E+00 -0.11837149214E+02  0.11837149214E+02  0.00000000000E+00 0. -1.
          2    1    1    2  502    0  0.18639821590E+02  0.16554615696E+02  0.49237877732E+02  0.55189372649E+02  0.00000000000E+00 0. -1.
         -2    1    1    2    0  502 -0.18639821590E+02 -0.16554615696E+02  0.86724565118E+01  0.26395260024E+02  0.00000000000E+00 0. -1.
</event>
<event>
 4    1  0.5953944E+003  0.2284890E+02  0.7546771E-02  0.1494404E+00
          2   -1    0    0  501    0  0.00000000000E+00  0.00000000000E+00  0.60570533920E+03  0.60570533920E+03  0.00000000000E+00 0.  1.
         -2   -1    0    0    0  501 -0.00000000000E+00 -0.00000000000E+00 -0.60873292483E+02  0.60873292483E+02  0.00000000000E+00 0. -1.
          2    1    1    2  502    0 -0.22710515277E+02 -0.25109189344E+01  0.60333735205E+03  0.60376985069E+03  0.00000000000E+00 0.  1.
         -2    1    1    2    0  502  0.22710515277E+02  0.25109189344E+01 -0.58505305334E+02  0.62808780997E+02  0.00000000000E+00 0. -1.
</event>
<event>
 4    1  0.5953944E+003  0.2122510E+02  0.7546771E-02  0.1516075E+00
          2   -1    0    0  501    0  0.00000000000E+00  0.00000000000E+00  0.79800645498E+03  0.79800645498E+03  0.00000000000E+00 0.  1.
         -2   -1    0    0    0  501 -0.00000000000E+00 -0.00000000000E+00 -0.18523374837E+01  0.18523374837E+01  0.00000000000E+00 0. -1.
          2    1    1    2  502    0  0.11749281773E+02 -0.17676513208E+02  0.73153989609E+03  0.73184774667E+03  0.00000000000E+00 0.  1.
         -2    1    1    2    0  502 -0.11749281773E+02  0.17676513208E+02  0.64614221405E+02  0.68011045788E+02  0.00000000000E+00 0. -1.
</event>
<event>
 4    1  0.5953944E+003  0.2248365E+02  0.7546771E-02  0.1499086E+00
          2   -1    0    0  501    0  0.00000000000E+00  0.00000000000E+00  0.97902926966E+01  0.97902926966E+01  0.00000000000E+00 0. -1.
         -2   -1    0    0    0  501 -0.00000000000E+00 -0.00000000000E+00 -0.19936625640E+03  0.19936625640E+03  0.00000000000E+00 0.  1.
          2    1    1    2  502    0 -0.11988282971E+02 -0.19020929583E+02 -0.47651018749E+01  0.22983056513E+02  0.00000000000E+00 0. -1.
         -2    1    1    2    0  502  0.11988282971E+02  0.19020929583E+02 -0.18481086182E+03  0.18617349258E+03  0.00000000000E+00 0.  1.
</event>
<event>
 4    1  0.5953944E+003  0.2321716E+02  0.7546771E-02  0.1489789E+00
          2   -1    0    0  501    0  0.00000000000E+00  0.00000000000E+00  0.13352186481E+02  0.13352186481E+02  0.00000000000E+00 0. -1.
         -2   -1    0    0    0  501 -0.00000000000E+00 -0.00000000000E+00 -0.63852335643E+02  0.63852335643E+02  0.00000000000E+00 0. -1.
          2    1    1    2  502    0  0.22866921189E+02  0.40174878180E+01 -0.18407388008E+01  0.23290010999E+02  0.00000000000E+00 0. -1.
         -2    1    1    2    0  502 -0.22866921189E+02 -0.40174878180E+01 -0.48659410361E+02  0.53914511124E+02  0.00000000000E+00 0. -1.
</event>
<event>
 4    1  0.8737943E+003  0.2386239E+02  0.7546771E-02  0.1481944E+00
          2   -1    0    0  501    0  0.00000000000E+00  0.00000000000E+00  0.95892836371E+03  0.95892836371E+03  0.00000000000E+00 0. -1.
         -2   -1    0    0    0  501 -0.00000000000E+00 -0.00000000000E+00 -0.36091843160E+03  0.36091843160E+03  0.00000000000E+00 0.  1.
          2    1    1    2  502    0  0.37616444888E+01 -0.23564036836E+02  0.95838526968E+03  0.95868229301E+03  0.00000000000E+00 0. -1.
         -2    1    1    2    0  502 -0.37616444888E+01  0.23564036836E+02 -0.36037533756E+03  0.36116450230E+03  0.00000000000E+00 0.  1.
</event>
<event>
 4    1  0.5953944E+003  0.2267874E+02  0.7546771E-02  0.1496572E+00
          2   -1    0    0  501    0  0.00000000000E+00  0.00000000000E+00  0.12740387046E+03  0.12740387046E+03  0.00000000000E+00 0. -1.
         -2   -1    0    0    0  501 -0.00000000000E+00 -0.00000000000E+00 -0.33111311684E+03  0.33111311684E+03  0.00000000000E+00 0. -1.
          2    1    1    2  502    0 -0.15908396293E+02 -0.16163171424E+02  0.12600201236E+03  0.12802668590E+03  0.00000000000E+00 0. -1.
         -2    1    1    2    0  502  0.15908396293E+02  0.16163171424E+02 -0.32971125874E+03  0.33049030140E+03  0.00000000000E+00 0. -1.
</event>
<event>
 4    1  0.5953944E+003  0.4598503E+02  0.7546771E-02  0.1316586E+00
          2   -1    0    0  501    0  0.00000000000E+00  0.00000000000E+00  0.14736573988E+04  0.14736573988E+04  0.00000000000E+00 0. -1.
         -2   -1    0    0    0  501 -0.00000000000E+00 -0.00000000000E+00 -0.10094880739E+02  0.10094880739E+02  0.00000000000E+00 0.  1.
          2    1    1    2  502    0 -0.10198906928E+02 -0.44839769151E+02  0.14189099012E+04  0.14196548631E+04  0.00000000000E+00 0. -1.
         -2    1    1    2    0  502  0.10198906928E+02  0.44839769151E+02  0.44652616818E+02  0.64097416397E+02  0.00000000000E+00 0.  1.
</event>
<event>
 4    1  0.5953944E+003  0.2156328E+02  0.7546771E-02  0.1511373E+00
          2   -1    0    0  501    0  0.00000000000E+00  0.00000000000E+00  0.67800684379E+02  0.67800684379E+02  0.00000000000E+00 0. -1.
         -2   -1    0    0    0  501 -0.00000000000E+00 -0.00000000000E+00 -0.34286266226E+02  0.34286266226E+02  0.00000000000E+00 0.  1.
          2    1    1    2  502    0 -0.62398102594E+01 -0.20640730490E+02  0.62411285686E+02  0.66031383207E+02  0.00000000000E+00 0. -1.
         -2    1    1    2    0  502  0.62398102594E+01  0.20640730490E+02 -0.28896867533E+02  0.36055567399E+02  0.00000000000E+00 0.  1.
</event>
<event>
 4    1  0.5953944E+003  0.3108473E+02  0.7546771E-02  0.1410398E+00
          2   -1    0    0  501    0  0.00000000000E+00  0.00000000000E+00  0.75697672692E+02  0.75697672692E+02  0.00000000000E+00 0.  1.
         -2   -1    0    0    0  501 -0.00000000000E+00 -0.00000000000E+00 -0.48300185371E+02  0.48300185371E+02  0.00000000000E+00 0. -1.
          2    1    1    2  502    0 -0.28892830819E+02  0.11465809783E+02  0.66877811718E+02  0.73748912988E+02  0.00000000000E+00 0.  1.
         -2    1    1    2    0  502  0.28892830819E+02 -0.11465809783E+02 -0.39480324397E+02  0.50248945075E+02  0.00000000000E+00 0. -1.
</event>
<event>
 4    1  0.5953944E+003  0.2249090E+02  0.7546771E-02  0.1498992E+00
          2   -1    0    0  501    0  0.00000000000E+00  0.00000000000E+00  0.36125374584E+03  0.36125374584E+03  0.00000000000E+00 0.  1.
         -2   -1    0    0    0  501 -0.00000000000E+00 -0.00000000000E+00 -0.15950854828E+03  0.15950854828E+03  0.00000000000E+00 0.  1.
          2    1    1    2  502    0 -0.20904384273E+02 -0.82974365493E+01  0.36010835613E+03  0.36081001772E+03  0.00000000000E+00 0.  1.
         -2    1    1    2    0  502  0.20904384273E+02  0.82974365493E+01 -0.15836315857E+03  0.15995227640E+03  0.00000000000E+00 0.  1.
</event>
<event>
 4    1  0.5953944E+003  0.2701203E+02  0.7546771E-02  0.1447487E+00
          2   -1    0    0  501    0  0.00000000000E+00  0.00000000000E+00  0.13040925361E+04  0.13040925361E+04  0.00000000000E+00 0.  1.
         -2   -1    0    0    0  501 -0.00000000000E+00 -0.00000000000E+00 -0.61132716249E+00  0.61132716249E+00  0.00000000000E+00 0.  1.
          2    1    1    2  502    0 -0.14863617180E+02 -0.22554882286E+02  0.84166970411E+03  0.84210304634E+03  0.00000000000E+00 0.  1.
         -2    1    1    2    0  502  0.14863617180E+02  0.22554882286E+02  0.46181150481E+03  0.46260081691E+03  0.00000000000E+00 0.  1.
</event>
<event>
 4    1  0.5953944E+003  0.3305104E+02  0.7546771E-02  0.1394808E+00
          2   -1    0    0  501    0  0.00000000000E+00  0.00000000000E+00  0.15808323264E+04  0.15808323264E+04  0.00000000000E+00 0.  1.
         -2   -1    0    0    0  501 -0.00000000000E+00 -0.00000000000E+00 -0.33939625218E+01  0.33939625218E+01  0.00000000000E+00 0.  1.
          2    1    1    2  502    0  0.22976052370E+02  0.23758620379E+02  0.14956109164E+04  0.14959760641E+04  0.00000000000E+00 0.  1.
         -2    1    1    2    0  502 -0.22976052370E+02 -0.23758620379E+02  0.81827447458E+02  0.88250224829E+02  0.00000000000E+00 0.  1.
</event>
<event>
 4    1  0.5953944E+003  0.5059684E+02  0.7546771E-02  0.1295605E+00
          2   -1    0    0  501    0  0.00000000000E+00  0.00000000000E+00  0.11659844209E+04  0.11659844209E+04  0.00000000000E+00 0. -1.
         -2   -1    0    0    0  501 -0.00000000000E+00 -0.00000000000E+00 -0.23725405829E+01  0.23725405829E+01  0.00000000000E+00 0. -1.
          2    1    1    2  502    0 -0.49742829513E+02 -0.92569563583E+01  0.74133773928E+03  0.74306236886E+03  0.00000000000E+00 0. -1.
         -2    1    1    2    0  502  0.49742829513E+02  0.92569563583E+01  0.42227414101E+03  0.42529459260E+03  0.00000000000E+00 0. -1.
</event>
<event>
 4    1  0.5953944E+003  0.3315086E+02  0.7546771E-02  0.1394051E+00
          2   -1    0    0  501    0  0.00000000000E+00  0.00000000000E+00  0.11203056668E+02  0.11203056668E+02  0.00000000000E+00 0.  1.
         -2   -1    0    0    0  501 -0.00000000000E+00 -0.00000000000E+00 -0.29695451548E+03  0.29695451548E+03  0.00000000000E+00 0. -1.
          2    1    1    2  502    0  0.31622079474E+02 -0.99510613430E+01 -0.16788953227E+02  0.37159769679E+02  0.00000000000E+00 0.  1.
         -2    1    1    2    0  502 -0.31622079474E+02  0.99510613430E+01 -0.26896250558E+03  0.27099780247E+03  0.00000000000E+00 0. -1.
</event>
<event>
 4    1  0.5953944E+003  0.2371948E+02  0.7546771E-02  0.1483656E+00
          2   -1    0    0  501    0  0.00000000000E+00  0.00000000000E+00  0.19733456287E+04  0.19733456287E+04  0.00000000000E+00 0.  1.
         -2   -1    0    0    0  501 -0.00000000000E+00 -0.00000000000E+00 -0.49199794335E+00  0.49199794335E+00  0.00000000000E+00 0. -1.
          2    1    1    2  502    0 -0.14163187970E+02 -0.19026770442E+02  0.16264134895E+04  0.16265864418E+04  0.00000000000E+00 0.  1.
         -2    1    1    2    0  502  0.14163187970E+02  0.19026770442E+02  0.34644014126E+03  0.34725118483E+03  0.00000000000E+00 0. -1.
</event>
<event>
 4    1  0.5953944E+003  0.3655678E+02  0.7546771E-02  0.1369937E+00
          2   -1    0    0  501    0  0.00000000000E+00  0.00000000000E+00  0.22437258030E+04  0.22437258030E+04  0.00000000000E+00 0. -1.
         -2   -1    0    0    0  501 -0.00000000000E+00 -0.00000000000E+00 -0.85543588046E+00  0.85543588046E+00  0.00000000000E+00 0. -1.
          2    1    1    2  502    0 -0.28948056676E+02  0.22325052190E+02  0.17399472565E+04  0.17403312481E+04  0.00000000000E+00 0. -1.
         -2    1    1    2    0  502  0.28948056676E+02 -0.22325052190E+02  0.50292311069E+03  0.50424999078E+03  0.00000000000E+00 0. -1.
</event>
<event>
 4    1  0.5953944E+003  0.2004010E+02  0.7546771E-02  0.1533424E+00
          2   -1    0    0  501    0  0.00000000000E+00  0.00000000000E+00  0.16819799618E+02  0.16819799618E+02  0.00000000000E+00 0. -1.
         -2   -1    0    0    0  501 -0.00000000000E+00 -0.00000000000E+00 -0.81627423410E+02  0.81627423410E+02  0.00000000000E+00 0.  1.
          2    1    1    2  502    0  0.17232959055E+02  0.10228913714E+02  0.89993201897E+01  0.21968006679E+02  0.00000000000E+00 0. -1.
         -2    1    1    2    0  502 -0.17232959055E+02 -0.10228913714E+02 -0.73806943981E+02  0.76479216349E+02  0.00000000000E+00 0.  1.
</event>
<event>
 4    1  0.5953944E+003  0.2158507E+02  0.7546771E-02  0.1511073E+00
          2   -1    0    0  501    0  0.00000000000E+00  0.00000000000E+00  0.69505618222E+01  0.69505618222E+01  0.00000000000E+00 0. -1.
         -2   -1    0    0    0  501 -0.00000000000E+00 -0.00000000000E+00 -0.32856364566E+03  0.32856364566E+03  0.00000000000E+00 0.  1.
          2    1    1    2  502    0  0.16454938391E+02  0.13969618179E+02 -0.11137261379E+02  0.24288964996E+02  0.00000000000E+00 0. -1.
         -2    1    1    2    0  502 -0.16454938391E+02 -0.13969618179E+02 -0.31047582246E+03  0.31122524248E+03  0.00000000000E+00 0.  1.
</event>
<event>
 4    1  0.5953944E+003  0.2553666E+02  0.7546771E-02  0.1462888E+00
          2   -1    0    0  501    0  0.00000000000E+00  0.00000000000E+00  0.38816469536E+03  0.38816469536E+03  0.00000000000E+00 0. -1.
         -2   -1    0    0    0  501 -0.00000000000E+00 -0.00000000000E+00 -0.95991227500E+01  0.95991227500E+01  0.00000000000E+00 0. -1.
          2    1    1    2  502    0  0.22298797893E+02  0.12445262973E+02  0.36992437462E+03  0.37080475172E+03  0.00000000000E+00 0. -1.
         -2    1    1    2    0  502 -0.22298797893E+02 -0.12445262973E+02  0.86411979859E+01  0.26959066389E+02  0.00000000000E+00 0. -1.
</event>
<event>
 4    1  0.5953944E+003  0.2281351E+02  0.7546771E-02  0.1494853E+00
          2   -1    0    0  501    0  0.00000000000E+00  0.00000000000E+00  0.18501398308E+03  0.18501398308E+03  0.00000000000E+00 0. -1.
         -2   -1    0    0    0  501 -0.00000000000E+00 -0.00000000000E+00 -0.50827837283E+01  0.50827837283E+01  0.00000000000E+00 0. -1.
          2    1    1    2  502    0 -0.19286916937E+01 -0.22731835046E+02  0.15348114557E+03  0.15516738775E+03  0.00000000000E+00 0. -1.
         -2    1    1    2    0  502  0.19286916937E+01  0.22731835046E+02  0.26450053782E+02  0.34929379057E+02  0.00000000000E+00 0. -1.
</event>
<event>
 4    1  0.5953944E+003  0.2674420E+02  0.7546771E-02  0.1450195E+00
          2   -1    0    0  501    0  0.00000000000E+00  0.00000000000E+00  0.96101199161E+01  0.96101199161E+01  0.00000000000E+00 0.  1.
         -2   -1    0    0    0  501 -0.00000000000E+00 -0.00000000000E+00 -0.17316012096E+03  0.17316012096E+03  0.00000000000E+00 0.  1.
          2    1    1    2  502    0  0.24745125653E+02 -0.10145492696E+02 -0.12769611189E+02  0.29636383645E+02  0.00000000000E+00 0.  1.
         -2    1    1    2    0  502 -0.24745125653E+02  0.10145492696E+02 -0.15078038986E+03  0.15313385723E+03  0.00000000000E+00 0.  1.
</event>
<event>
 4    1  0.5953944E+003  0.2147654E+02  0.7546771E-02  0.1512569E+00
          2   -1    0    0  501    0  0.00000000000E+00  0.00000000000E+00  0.48372233531E+02  0.48372233531E+02  0.00000000000E+00 0. -1.
         -2   -1    0    0    0  501 -0.00000000000E+00 -0.00000000000E+00 -0.11985819554E+02  0.11985819554E+02  0.00000000000E+00 0.  1.
          2    1    1    2  502    0 -0.18758663667E+02  0.10457263481E+02  0.31839163809E+02  0.38405392514E+02  0.00000000000E+00 0. -1.
         -2    1    1    2    0  502  0.18758663667E+02 -0.10457263481E+02  0.45472501686E+01  0.21952660572E+02  0.00000000000E+00 0.  1.
</event>
<event>
 4    1  0.5953944E+003  0.2079143E+02  0.7546771E-02  0.1522264E+00
          2   -1    0    0  501    0  0.00000000000E+00  0.00000000000E+00  0.36387705590E+02  0.36387705590E+02  0.00000000000E+00 0. -1.
         -2   -1    0    0    0  501 -0.00000000000E+00 -0.00000000000E+00 -0.38652903631E+03  0.38652903631E+03  0.00000000000E+00 0.  1.
          2    1    1    2  502    0 -0.18713091070E+02 -0.90611181651E+01  0.33112768047E+02  0.39099092669E+02  0.00000000000E+00 0. -1.
         -2    1    1    2    0  502  0.18713091070E+02  0.90611181651E+01 -0.38325409877E+03  0.38381764923E+03  0.00000000000E+00 0.  1.
</event>
<event>
 4    1  0.5953944E+003  0.2999361E+02  0.7546771E-02  0.1419652E+00
          2   -1    0    0  501    0  0.00000000000E+00  0.00000000000E+00  0.62065046493E+03  0.62065046493E+03  0.00000000000E+00 0.  1.
         -2   -1    0    0    0  501 -0.00000000000E+00 -0.00000000000E+00 -0.27090382482E+02  0.27090382482E+02  0.00000000000E+00 0. -1.
          2    1    1    2  502    0 -0.11003593171E+02  0.27902283021E+02  0.61186700028E+03  0.61260169971E+03  0.00000000000E+00 0.  1.
         -2    1    1    2    0  502  0.11003593171E+02 -0.27902283021E+02 -0.18306917832E+02  0.35139147698E+02  0.00000000000E+00 0. -1.
</event>
<event>
 4    1  0.5953944E+003  0.3066344E+02  0.7546771E-02  0.1413917E+00
          2   -1    0    0  501    0  0.00000000000E+00  0.00000000000E+00  0.13850540594E+04  0.13850540594E+04  0.00000000000E+00 0. -1.
         -2   -1    0    0    0  501 -0.00000000000E+00 -0.00000000000E+00 -0.71217402427E+02  0.71217402427E+02  0.00000000000E+00 0. -1.
          2    1    1    2  502    0  0.30494647039E+02 -0.32129208686E+01  0.13815754168E+04  0.13819156554E+04  0.00000000000E+00 0. -1.
         -2    1    1    2    0  502 -0.30494647039E+02  0.32129208686E+01 -0.67738759850E+02  0.74355806395E+02  0.00000000000E+00 0. -1.
</event>
<event>
 4    1  0.5953944E+003  0.2745376E+02  0.7546771E-02  0.1443102E+00
          2   -1    0    0  501    0  0.00000000000E+00  0.00000000000E+00  0.10003792989E+04  0.10003792989E+04  0.00000000000E+00 0.  1.
         -2   -1    0    0    0  501 -0.00000000000E+00 -0.00000000000E+00 -0.14757820860E+01  0.14757820860E+01  0.00000000000E+00 0.  1.
          2    1    1    2  502    0 -0.27140494679E+02 -0.41355239410E+01  0.84991323858E+03  0.85035652648E+03  0.00000000000E+00 0.  1.
         -2    1    1    2    0  502  0.27140494679E+02  0.41355239410E+01  0.14899027820E+03  0.15149855448E+03  0.00000000000E+00 0.  1.
</event>
<event>
 4    1  0.5953944E+003  0.3202500E+02  0.7546771E-02  0.1402779E+00
          2   -1    0    0  501    0  0.00000000000E+00  0.00000000000E+00  0.13426877645E+04  0.13426877645E+04  0.00000000000E+00 0.  1.
         -2   -1    0    0    0  501 -0.00000000000E+00 -0.00000000000E+00 -0.83667235178E+01  0.83667235178E+01  0.00000000000E+00 0.  1.
          2    1    1    2  502    0 -0.30396226009E+02 -0.10083148830E+02  0.13111136966E+04  0.13115047563E+04  0.00000000000E+00 0.  1.
         -2    1    1    2    0  502  0.30396226009E+02  0.10083148830E+02  0.23207344446E+02  0.39549731758E+02  0.00000000000E+00 0.  1.
</event>
<event>
 4    1  0.5953944E+003  0.2730315E+02  0.7546771E-02  0.1444586E+00
          2   -1    0    0  501    0  0.00000000000E+00  0.00000000000E+00  0.29823439669E+03  0.29823439669E+03  0.00000000000E+00 0. -1.
         -2   -1    0    0    0  501 -0.00000000000E+00 -0.00000000000E+00 -0.47320581675E+01  0.47320581675E+01  0.00000000000E+00 0.  1.
          2    1    1    2  502    0  0.12744588286E+02 -0.24146165797E+02  0.25079893459E+03  0.25228073141E+03  0.00000000000E+00 0. -1.
         -2    1    1    2    0  502 -0.12744588286E+02  0.24146165797E+02  0.42703403941E+02  0.50685723448E+02  0.00000000000E+00 0.  1.
</event>
<event>
 4    1  0.5953944E+003  0.4918363E+02  0.7546771E-02  0.1301751E+00
          2   -1    0    0  501    0  0.00000000000E+00  0.00000000000E+00  0.18488042271E+02  0.18488042271E+02  0.00000000000E+00 0.  1.
         -2   -1    0    0    0  501 -0.00000000000E+00 -0.00000000000E+00 -0.22683203027E+03  0.22683203027E+03  0.00000000000E+00 0.  1.
          2    1    1    2  502    0  0.70091444995E+01  0.48681637645E+02 -0.24379540552E+02  0.54894370822E+02  0.00000000000E+00 0.  1.
         -2    1    1    2    0  502 -0.70091444995E+01 -0.48681637645E+02 -0.18396444745E+03  0.19042570172E+03  0.00000000000E+00 0.  1.
</event>
<event>
 4    1  0.5953944E+003  0.3441228E+02  0.7546771E-02  0.1384743E+00
          2   -1    0    0  501    0  0.00000000000E+00  0.00000000000E+00  0.52122906726E+03  0.52122906726E+03  0.00000000000E+00 0. -1.
         -2   -1    0    0    0  501 -0.00000000000E+00 -0.00000000000E+00 -0.15361739047E+02  0.15361739047E+02  0.00000000000E+00 0. -1.
          2    1    1    2  502    0  0.33131834889E+02 -0.92998116881E+01  0.50059568270E+03  0.50177708449E+03  0.00000000000E+00 0. -1.
         -2    1    1    2    0  502 -0.33131834889E+02  0.92998116881E+01  0.52716455151E+01  0.34813721820E+02  0.00000000000E+00 0. -1.
</event>
<event>
 4    1  0.5953944E+003  0.3087671E+02  0.7546771E-02  0.1412128E+00
          2   -1    0    0  501    0  0.00000000000E+00  0.00000000000E+00  0.55287422776E+03  0.55287422776E+03  0.00000000000E+00 0. -1.
         -2   -1    0    0    0  501 -0.00000000000E+00 -0.00000000000E+00 -0.24681509614E+01  0.24681509614E+01  0.00000000000E+00 0.  1.
          2    1    1    2  502    0 -0.14999828420E+02  0.26988447067E+02  0.42762988743E+03  0.42874315359E+03  0.00000000000E+00 0. -1.
         -2    1    1    2    0  502  0.14999828420E+02 -0.26988447067E+02  0.12277618937E+03  0.12659922513E+03  0.00000000000E+00 0.  1.
</event>
<event>
 4    1  0.5953944E+003  0.2428543E+02  0.7546771E-02  0.1476958E+00
          2   -1    0    0  501    0  0.00000000000E+00  0.00000000000E+00  0.33423896253E+01  0.33423896253E+01  0.00000000000E+00 0. -1.
         -2   -1    0    0    0  501 -0.00000000000E+00 -0.00000000000E+00 -0.19242290536E+03  0.19242290536E+03  0.00000000000E+00 0. -1.
          2    1    1    2  502    0  0.19124299426E+01  0.24210012207E+02 -0.66343551788E+02  0.70648771703E+02  0.00000000000E+00 0. -1.
         -2    1    1    2    0  502 -0.19124299426E+01 -0.24210012207E+02 -0.12273696395E+03  0.12511652329E+03  0.00000000000E+00 0. -1.
</event>
<event>
 4    1  0.5953944E+003  0.3877613E+02  0.7546771E-02  0.1355811E+00
          2   -1    0    0  501    0  0.00000000000E+00  0.00000000000E+00  0.75362249083E+02  0.75362249083E+02  0.00000000000E+00 0. -1.
         -2   -1    0    0    0  501 -0.00000000000E+00 -0.00000000000E+00 -0.18881909634E+03  0.18881909634E+03  0.00000000000E+00 0.  1.
          2    1    1    2  502    0  0.32706413115E+02 -0.20829759883E+02  0.68188816907E+02  0.78442992720E+02  0.00000000000E+00 0. -1.
         -2    1    1    2    0  502 -0.32706413115E+02  0.20829759883E+02 -0.18164566417E+03  0.18573835271E+03  0.00000000000E+00 0.  1.
</event>
<event>
 4    1  0.5953944E+003  0.2443677E+02  0.7546771E-02  0.1475204E+00
          2   -1    0    0  501    0  0.00000000000E+00  0.00000000000E+00  0.13262291221E+04  0.13262291221E+04  0.00000000000E+00 0.  1.
         -2   -1    0    0    0  501 -0.00000000000E+00 -0.00000000000E+00 -0.69938685693E+01  0.69938685693E+01  0.00000000000E+00 0. -1.
          2    1    1    2  502    0 -0.38251953811E+01  0.24135525717E+02  0.13044139114E+04  0.13046427895E+04  0.00000000000E+00 0.  1.
         -2    1    1    2    0  502  0.38251953811E+01 -0.24135525717E+02  0.14821342139E+02  0.28580201261E+02  0.00000000000E+00 0. -1.
</event>
<event>
 4    1  0.5953944E+003  0.3004466E+02  0.7546771E-02  0.1419209E+00
          2   -1    0    0  501    0  0.00000000000E+00  0.00000000000E+00  0.15403033691E+03  0.15403033691E+03  0.00000000000E+00 0. -1.
         -2   -1    0    0    0  501 -0.00000000000E+00 -0.00000000000E+00 -0.12355921107E+02  0.12355921107E+02  0.00000000000E+00 0. -1.
          2    1    1    2  502    0 -0.29167548048E+02 -0.72066617058E+01  0.13115651778E+03  0.13455375873E+03  0.00000000000E+00 0. -1.
         -2    1    1    2    0  502  0.29167548048E+02  0.72066617058E+01  0.10517898023E+02  0.31832499288E+02  0.00000000000E+00 0. -1.
</event>
<event>
 4    1  0.5953944E+003  0.5396907E+02  0.7546771E-02  0.1281824E+00
          2   -1    0    0  501    0  0.00000000000E+00  0.00000000000E+00  0.22121177282E+04  0.22121177282E+04  0.00000000000E+00 0.  1.
         -2   -1    0    0    0  501 -0.00000000000E+00 -0.00000000000E+00 -0.15230808319E+01  0.15230808319E+01  0.00000000000E+00 0. -1.
          2    1    1    2  502    0 -0.48082888825E+02 -0.24509117828E+02  0.15127401741E+04  0.15137025782E+04  0.00000000000E+00 0.  1.
         -2    1    1    2    0  502  0.48082888825E+02  0.24509117828E+02  0.69785447329E+03  0.69993823080E+03  0.00000000000E+00 0. -1.
</event>
<event>
 4    1  0.5953944E+003  0.2256133E+02  0.7546771E-02  0.1498081E+00
          2   -1    0    0  501    0  0.00000000000E+00  0.00000000000E+00  0.79968646339E+03  0.79968646339E+03  0.00000000000E+00 0.  1.
         -2   -1    0    0    0  501 -0.00000000000E+00 -0.00000000000E+00 -0.19018987139E+01  0.19018987139E+01  0.00000000000E+00 0.  1.
          2    1    1    2  502    0  0.22434541276E+02 -0.23885161079E+01  0.72581008652E+03  0.72616065395E+03  0.00000000000E+00 0.  1.
         -2    1    1    2    0  502 -0.22434541276E+02  0.23885161079E+01  0.71974478160E+02  0.75427708157E+02  0.00000000000E+00 0.  1.
</event>
<event>
 4    1  0.5953944E+003  0.2328540E+02  0.7546771E-02  0.1488945E+00
          2   -1    0    0  501    0  0.00000000000E+00  0.00000000000E+00  0.13892853233E+04  0.13892853233E+04  0.00000000000E+00 0.  1.
         -2   -1    0    0    0  501 -0.00000000000E+00 -0.00000000000E+00 -0.42168989776E+00  0.42168989776E+00  0.00000000000E+00 0. -1.
          2    1    1    2  502    0  0.17563087272E+02 -0.15288791997E+02  0.50478948156E+03  0.50532626083E+03  0.00000000000E+00 0. -1.
         -2    1    1    2    0  502 -0.17563087272E+02  0.15288791997E+02  0.88407415187E+03  0.88438075239E+03  0.00000000000E+00 0.  1.
</event>
<event>
 4    1  0.5953944E+003  0.2526624E+02  0.7546771E-02  0.1465847E+00
          2   -1    0    0  501    0  0.00000000000E+00  0.00000000000E+00  0.45407722026E+03  0.45407722026E+03  0.00000000000E+00 0. -1.
         -2   -1    0    0    0  501 -0.00000000000E+00 -0.00000000000E+00 -0.13098559164E+02  0.13098559164E+02  0.00000000000E+00 0. -1.
          2    1    1    2  502    0  0.19071784322E+02  0.16572565383E+02  0.44118579737E+03  0.44190869044E+03  0.00000000000E+00 0. -1.
         -2    1    1    2    0  502 -0.19071784322E+02 -0.16572565383E+02 -0.20713627410E+00  0.25267088990E+02  0.00000000000E+00 0. -1.
</event>
<event>
 4    1  0.5953944E+003  0.2553501E+02  0.7546771E-02  0.1462906E+00
          2   -1    0    0  501    0  0.00000000000E+00  0.00000000000E+00  0.46707710556E+02  0.46707710556E+02  0.00000000000E+00 0. -1.
         -2   -1    0    0    0  501 -0.00000000000E+00 -0.00000000000E+00 -0.93249903585E+02  0.93249903585E+02  0.00000000000E+00 0. -1.
          2    1    1    2  502    0  0.23593973364E+02 -0.97652979567E+01  0.41257387286E+02  0.48520187850E+02  0.00000000000E+00 0. -1.
         -2    1    1    2    0  502 -0.23593973364E+02  0.97652979567E+01 -0.87799580315E+02  0.91437426291E+02  0.00000000000E+00 0. -1.
</event>
<event>
 4    1  0.5953944E+003  0.2586198E+02  0.7546771E-02  0.1459387E+00
          2   -1    0    0  501    0  0.00000000000E+00  0.00000000000E+00  0.51266308691E+02  0.51266308691E+02  0.00000000000E+00 0. -1.
         -2   -1    0    0    0  501 -0.00000000000E+00 -0.00000000000E+00 -0.13078064263E+02  0.13078064263E+02  0.00000000000E+00 0.  1.
          2    1    1    2  502    0 -0.21692913243E+02 -0.14080459384E+02  0.20676655318E+02  0.33111416408E+02  0.00000000000E+00 0.  1.
         -2    1    1    2    0  502  0.21692913243E+02  0.14080459384E+02  0.17511589111E+02  0.31232956546E+02  0.00000000000E+00 0. -1.
</event>
<event>
 4    1  0.5953944E+003  0.4719335E+02  0.7546771E-02  0.1310822E+00
          2   -1    0    0  501    0  0.00000000000E+00  0.00000000000E+00  0.13871585360E+04  0.13871585360E+04  0.00000000000E+00 0. -1.
         -2   -1    0    0    0  501 -0.00000000000E+00 -0.00000000000E+00 -0.10234733306E+02  0.10234733306E+02  0.00000000000E+00 0. -1.
          2    1    1    2  502    0 -0.41708457908E+02 -0.22082057457E+02  0.13300172632E+04  0.13308542869E+04  0.00000000000E+00 0. -1.
         -2    1    1    2    0  502  0.41708457908E+02  0.22082057457E+02  0.46906539469E+02  0.66538982315E+02  0.00000000000E+00 0. -1.
</event>
<event>
 4    1  0.5953944E+003  0.2454208E+02  0.7546771E-02  0.1473992E+00
          2   -1    0    0  501    0  0.00000000000E+00  0.00000000000E+00  0.37342556054E+02  0.37342556054E+02  0.00000000000E+00 0.  1.
         -2   -1    0    0    0  501 -0.00000000000E+00 -0.00000000000E+00 -0.25390707038E+02  0.25390707038E+02  0.00000000000E+00 0. -1.
          2    1    1    2  502    0  0.15502190645E+02  0.19026186247E+02  0.24919685932E+02  0.34975769110E+02  0.00000000000E+00 0.  1.
         -2    1    1    2    0  502 -0.15502190645E+02 -0.19026186247E+02 -0.12967836916E+02  0.27757493982E+02  0.00000000000E+00 0. -1.
</event>
<event>
 4    1  0.5953944E+003  0.2126171E+02  0.7546771E-02  0.1515561E+00
          2   -1    0    0  501    0  0.00000000000E+00  0.00000000000E+00  0.34773980708E+03  0.34773980708E+03  0.00000000000E+00 0. -1.
         -2   -1    0    0    0  501 -0.00000000000E+00 -0.00000000000E+00 -0.25263658712E+01  0.25263658712E+01  0.00000000000E+00 0.  1.
          2    1    1    2  502    0 -0.20390129058E+02  0.60252073307E+01  0.29462664446E+03  0.29539282340E+03  0.00000000000E+00 0. -1.
         -2    1    1    2    0  502  0.20390129058E+02 -0.60252073307E+01  0.50586796744E+02  0.54873349553E+02  0.00000000000E+00 0.  1.
</event>
<event>
 4    1  0.5953944E+003  0.4050170E+02  0.7546771E-02  0.1345571E+00
          2   -1    0    0  501    0  0.00000000000E+00  0.00000000000E+00  0.48925592404E+03  0.48925592404E+03  0.00000000000E+00 0. -1.
         -2   -1    0    0    0  501 -0.00000000000E+00 -0.00000000000E+00 -0.14718553602E+02  0.14718553602E+02  0.00000000000E+00 0. -1.
          2    1    1    2  502    0  0.31239084983E+02 -0.25778043825E+02  0.45870287676E+03  0.46048747770E+03  0.00000000000E+00 0. -1.
         -2    1    1    2    0  502 -0.31239084983E+02  0.25778043825E+02  0.15834493684E+02  0.43486999946E+02  0.00000000000E+00 0. -1.
</event>
<event>
 4    1  0.5953944E+003  0.2087916E+02  0.7546771E-02  0.1520997E+00
          2   -1    0    0  501    0  0.00000000000E+00  0.00000000000E+00  0.34510179289E+03  0.34510179289E+03  0.00000000000E+00 0.  1.
         -2   -1    0    0    0  501 -0.00000000000E+00 -0.00000000000E+00 -0.15775632378E+03  0.15775632378E+03  0.00000000000E+00 0.  1.
          2    1    1    2  502    0 -0.15908688561E+02 -0.13522311528E+02  0.34409312197E+03  0.34472600115E+03  0.00000000000E+00 0.  1.
         -2    1    1    2    0  502  0.15908688561E+02  0.13522311528E+02 -0.15674765286E+03  0.15813211552E+03  0.00000000000E+00 0.  1.
</event>
<event>
 4    1  0.5953944E+003  0.3176327E+02  0.7546771E-02  0.1404868E+00
          2   -1    0    0  501    0  0.00000000000E+00  0.00000000000E+00  0.23553448483E+03  0.23553448483E+03  0.00000000000E+00 0. -1.
         -2   -1    0    0    0  501 -0.00000000000E+00 -0.00000000000E+00 -0.45883261869E+01  0.45883261869E+01  0.00000000000E+00 0. -1.
          2    1    1    2  502    0 -0.11820753249E+02 -0.29481771779E+02  0.14642041450E+03  0.14982604199E+03  0.00000000000E+00 0. -1.
         -2    1    1    2    0  502  0.11820753249E+02  0.29481771779E+02  0.84525744144E+02  0.90296769032E+02  0.00000000000E+00 0. -1.
</event>
<event>
 4    1  0.5953944E+003  0.3397978E+02  0.7546771E-02  0.1387881E+00
          2   -1    0    0  501    0  0.00000000000E+00  0.00000000000E+00  0.41429743933E+02  0.41429743933E+02  0.00000000000E+00 0.  1.
         -2   -1    0    0    0  501 -0.00000000000E+00 -0.00000000000E+00 -0.28040510690E+02  0.28040510690E+02  0.00000000000E+00 0.  1.
          2    1    1    2  502    0 -0.18305695677E+02  0.28627361248E+02  0.39816335339E+01  0.34212245057E+02  0.00000000000E+00 0.  1.
         -2    1    1    2    0  502  0.18305695677E+02 -0.28627361248E+02  0.94075997088E+01  0.35258009566E+02  0.00000000000E+00 0.  1.
</event>
<event>
 4    1  0.5953944E+003  0.5042664E+02  0.7546771E-02  0.1296333E+00
          2   -1    0    0  501    0  0.00000000000E+00  0.00000000000E+00  0.43329258623E+02  0.43329258623E+02  0.00000000000E+00 0.  1.
         -2   -1    0    0    0  501 -0.00000000000E+00 -0.00000000000E+00 -0.10506549852E+03  0.10506549852E+03  0.00000000000E+00 0. -1.
          2    1    1    2  502    0  0.23351399276E+02 -0.44694055800E+02  0.18428683237E+02  0.53688572693E+02  0.00000000000E+00 0.  1.
         -2    1    1    2    0  502 -0.23351399276E+02  0.44694055800E+02 -0.80164923130E+02  0.94706184446E+02  0.00000000000E+00 0. -1.
</event>
<event>
 4    1  0.5953944E+003  0.2575003E+02  0.7546771E-02  0.1460585E+00
          2   -1    0    0  501    0  0.00000000000E+00  0.00000000000E+00  0.18183131293E+04  0.18183131293E+04  0.00000000000E+00 0. -1.
         -2   -1    0    0    0  501 -0.00000000000E+00 -0.00000000000E+00 -0.11791495023E+01  0.11791495023E+01  0.00000000000E+00 0. -1.
          2    1    1    2  502    0  0.25221271185E+02  0.51914763098E+01  0.16646662997E+04  0.16648654460E+04  0.00000000000E+00 0. -1.
         -2    1    1    2    0  502 -0.25221271185E+02 -0.51914763098E+01  0.15246768011E+03  0.15462683281E+03  0.00000000000E+00 0. -1.
</event>
<event>
 4    1  0.5953944E+003  0.4957861E+02  0.7546771E-02  0.1300010E+00
          2   -1    0    0  501    0  0.00000000000E+00  0.00000000000E+00  0.45791845708E+02  0.45791845708E+02  0.00000000000E+00 0. -1.
         -2   -1    0    0    0  501 -0.00000000000E+00 -0.00000000000E+00 -0.10911887516E+03  0.10911887516E+03  0.00000000000E+00 0.  1.
          2    1    1    2  502    0  0.49561941509E+02 -0.12856954166E+01  0.23546071665E+02  0.54885850178E+02  0.00000000000E+00 0. -1.
         -2    1    1    2    0  502 -0.49561941509E+02  0.12856954166E+01 -0.86873101121E+02  0.10002487069E+03  0.00000000000E+00 0.  1.
</event>
<event>
 4    1  0.5953944E+003  0.2115887E+02  0.7546771E-02  0.1517009E+00
          2   -1    0    0  501    0  0.00000000000E+00  0.00000000000E+00  0.77444721991E+03  0.77444721991E+03  0.00000000000E+00 0. -1.
         -2   -1    0    0    0  501 -0.00000000000E+00 -0.00000000000E+00 -0.40329147467E+01  0.40329147467E+01  0.00000000000E+00 0.  1.
          2    1    1    2  502    0 -0.82655397274E+01 -0.19477639272E+02  0.74547146344E+03  0.74577168114E+03  0.00000000000E+00 0. -1.
         -2    1    1    2    0  502  0.82655397274E+01  0.19477639272E+02  0.24942841724E+02  0.32708453523E+02  0.00000000000E+00 0.  1.
</event>
<event>
 4    1  0.5953944E+003  0.2391728E+02  0.7546771E-02  0.1481290E+00
          2   -1    0    0  501    0  0.00000000000E+00  0.00000000000E+00  0.26922362915E+03  0.26922362915E+03  0.00000000000E+00 0.  1.
         -2   -1    0    0    0  501 -0.00000000000E+00 -0.00000000000E+00 -0.16923578296E+02  0.16923578296E+02  0.00000000000E+00 0.  1.
          2    1    1    2  502    0  0.23879866172E+02 -0.13372118780E+01  0.25994102793E+03  0.26103902801E+03  0.00000000000E+00 0.  1.
         -2    1    1    2    0  502 -0.23879866172E+02  0.13372118780E+01 -0.76409770731E+01  0.25108179437E+02  0.00000000000E+00 0.  1.
</event>
<event>
 4    1  0.5953944E+003  0.2602612E+02  0.7546771E-02  0.1457644E+00
          2   -1    0    0  501    0  0.00000000000E+00  0.00000000000E+00  0.39714463080E+03  0.39714463080E+03  0.00000000000E+00 0.  1.
         -2   -1    0    0    0  501 -0.00000000000E+00 -0.00000000000E+00 -0.17651768833E+01  0.17651768833E+01  0.00000000000E+00 0.  1.
          2    1    1    2  502    0 -0.24401151237E+02 -0.90521855160E+01  0.16103784539E+03  0.16312739160E+03  0.00000000000E+00 0.  1.
         -2    1    1    2    0  502  0.24401151237E+02  0.90521855160E+01  0.23434160853E+03  0.23578241608E+03  0.00000000000E+00 0.  1.
</event>
<event>
 4    1  0.5953944E+003  0.2169085E+02  0.7546771E-02  0.1509626E+00
          2   -1    0    0  501    0  0.00000000000E+00  0.00000000000E+00  0.16104112982E+04  0.16104112982E+04  0.00000000000E+00 0.  1.
         -2   -1    0    0    0  501 -0.00000000000E+00 -0.00000000000E+00 -0.46069347164E+00  0.46069347164E+00  0.00000000000E+00 0. -1.
          2    1    1    2  502    0 -0.20012108753E+02 -0.83671028367E+01  0.12921356999E+04  0.12923177473E+04  0.00000000000E+00 0.  1.
         -2    1    1    2    0  502  0.20012108753E+02  0.83671028367E+01  0.31781490482E+03  0.31855424441E+03  0.00000000000E+00 0. -1.
</event>
<event>
 4    1  0.5953944E+003  0.2166976E+02  0.7546771E-02  0.1509913E+00
          2   -1    0    0  501    0  0.00000000000E+00  0.00000000000E+00  0.78831707091E+01  0.78831707091E+01  0.00000000000E+00 0. -1.
         -2   -1    0    0    0  501 -0.00000000000E+00 -0.00000000000E+00 -0.38105496041E+03  0.38105496041E+03  0.00000000000E+00 0. -1.
          2    1    1    2  502    0 -0.18256363441E+02 -0.11674068846E+02 -0.79622631542E+01  0.23086279996E+02  0.00000000000E+00 0. -1.
         -2    1    1    2    0  502  0.18256363441E+02  0.11674068846E+02 -0.36520952654E+03  0.36585185112E+03  0.00000000000E+00 0. -1.
</event>
<event>
 4    1  0.5953944E+003  0.4282111E+02  0.7546771E-02  0.1332703E+00
          2   -1    0    0  501    0  0.00000000000E+00  0.00000000000E+00  0.14389230855E+04  0.14389230855E+04  0.00000000000E+00 0.  1.
         -2   -1    0    0    0  501 -0.00000000000E+00 -0.00000000000E+00 -0.88831914705E+01  0.88831914705E+01  0.00000000000E+00 0. -1.
          2    1    1    2  502    0 -0.36381902790E+02  0.22583286953E+02  0.13849910746E+04  0.13856528874E+04  0.00000000000E+00 0.  1.
         -2    1    1    2    0  502  0.36381902790E+02 -0.22583286953E+02  0.45048819426E+02  0.62153389545E+02  0.00000000000E+00 0. -1.
</event>
<event>
 4    1  0.5953944E+003  0.2208605E+02  0.7546771E-02  0.1504305E+00
          2   -1    0    0  501    0  0.00000000000E+00  0.00000000000E+00  0.27968938482E+02  0.27968938482E+02  0.00000000000E+00 0.  1.
         -2   -1    0    0    0  501 -0.00000000000E+00 -0.00000000000E+00 -0.40927616037E+02  0.40927616037E+02  0.00000000000E+00 0. -1.
          2    1    1    2  502    0 -0.18352939091E+01  0.22009664714E+02  0.19616645171E+02  0.29539912192E+02  0.00000000000E+00 0.  1.
         -2    1    1    2    0  502  0.18352939091E+01 -0.22009664714E+02 -0.32575322727E+02  0.39356642327E+02  0.00000000000E+00 0. -1.
</event>
<event>
 4    1  0.5953944E+003  0.2310254E+02  0.7546771E-02  0.1491215E+00
          2   -1    0    0  501    0  0.00000000000E+00  0.00000000000E+00  0.85913345502E+03  0.85913345502E+03  0.00000000000E+00 0.  1.
         -2   -1    0    0    0  501 -0.00000000000E+00 -0.00000000000E+00 -0.55199037303E+01  0.55199037303E+01  0.00000000000E+00 0. -1.
          2    1    1    2  502    0 -0.29894292536E+01 -0.22908309894E+02  0.83407932264E+03  0.83439921130E+03  0.00000000000E+00 0.  1.
         -2    1    1    2    0  502  0.29894292536E+01  0.22908309894E+02  0.19534228648E+02  0.30254147457E+02  0.00000000000E+00 0. -1.
</event>
<event>
 4    1  0.5953944E+003  0.2102876E+02  0.7546771E-02  0.1518854E+00
          2   -1    0    0  501    0  0.00000000000E+00  0.00000000000E+00  0.10889403280E+04  0.10889403280E+04  0.00000000000E+00 0.  1.
         -2   -1    0    0    0  501 -0.00000000000E+00 -0.00000000000E+00 -0.77396819138E+00  0.77396819138E+00  0.00000000000E+00 0. -1.
          2    1    1    2  502    0  0.20896266866E+02  0.23568818072E+01  0.91972378463E+03  0.91996415630E+03  0.00000000000E+00 0.  1.
         -2    1    1    2    0  502 -0.20896266866E+02 -0.23568818072E+01  0.16844257522E+03  0.16975013993E+03  0.00000000000E+00 0. -1.
</event>
<event>
 4    1  0.5953944E+003  0.2384116E+02  0.7546771E-02  0.1482197E+00
          2   -1    0    0  501    0  0.00000000000E+00  0.00000000000E+00  0.34885200193E+03  0.34885200193E+03  0.00000000000E+00 0.  1.
         -2   -1    0    0    0  501 -0.00000000000E+00 -0.00000000000E+00 -0.19434701829E+01  0.19434701829E+01  0.00000000000E+00 0. -1.
          2    1    1    2  502    0  0.22963699261E+02 -0.64085144647E+01  0.10293855764E+03  0.10566336731E+03  0.00000000000E+00 0.  1.
         -2    1    1    2    0  502 -0.22963699261E+02  0.64085144647E+01  0.24396997411E+03  0.24513210481E+03  0.00000000000E+00 0. -1.
</event>
<event>
 4    1  0.5953944E+003  0.2692986E+02  0.7546771E-02  0.1448314E+00
          2   -1    0    0  501    0  0.00000000000E+00  0.00000000000E+00  0.88779159331E+03  0.88779159331E+03  0.00000000000E+00 0.  1.
         -2   -1    0    0    0  501 -0.00000000000E+00 -0.00000000000E+00 -0.50817468637E+02  0.50817468637E+02  0.00000000000E+00 0.  1.
          2    1    1    2  502    0 -0.26124765457E+02  0.65355886862E+01  0.88400433651E+03  0.88441443015E+03  0.00000000000E+00 0.  1.
         -2    1    1    2    0  502  0.26124765457E+02 -0.65355886862E+01 -0.47030211840E+02  0.54194631794E+02  0.00000000000E+00 0.  1.
</event>
<event>
 4    1  0.5953944E+003  0.2102146E+02  0.7546771E-02  0.1518959E+00
          2   -1    0    0  501    0  0.00000000000E+00  0.00000000000E+00  0.41329736001E+03  0.41329736001E+03  0.00000000000E+00 0. -1.
         -2   -1    0    0    0  501 -0.00000000000E+00 -0.00000000000E+00 -0.10569438170E+02  0.10569438170E+02  0.00000000000E+00 0. -1.
          2    1    1    2  502    0  0.10409319887E+02 -0.18263288708E+02  0.40229196546E+03  0.40284082108E+03  0.00000000000E+00 0. -1.
         -2    1    1    2    0  502 -0.10409319887E+02  0.18263288708E+02  0.43595637814E+00  0.21025977098E+02  0.00000000000E+00 0. -1.
</event>
<event>
 4    1  0.5953944E+003  0.2703397E+02  0.7546771E-02  0.1447267E+00
          2   -1    0    0  501    0  0.00000000000E+00  0.00000000000E+00  0.10952153869E+04  0.10952153869E+04  0.00000000000E+00 0.  1.
         -2   -1    0    0    0  501 -0.00000000000E+00 -0.00000000000E+00 -0.28819817197E+01  0.28819817197E+01  0.00000000000E+00 0. -1.
          2    1    1    2  502    0  0.22792895693E+02 -0.14536824504E+02  0.10274724768E+04  0.10278280624E+04  0.00000000000E+00 0.  1.
         -2    1    1    2    0  502 -0.22792895693E+02  0.14536824504E+02  0.64860928408E+02  0.70269306206E+02  0.00000000000E+00 0. -1.
</event>
<event>
 4    1  0.5953944E+003  0.2536109E+02  0.7546771E-02  0.1464804E+00
          2   -1    0    0  501    0  0.00000000000E+00  0.00000000000E+00  0.14480393403E+04  0.14480393403E+04  0.00000000000E+00 0.  1.
         -2   -1    0    0    0  501 -0.00000000000E+00 -0.00000000000E+00 -0.87002378387E+00  0.87002378387E+00  0.00000000000E+00 0. -1.
          2    1    1    2  502    0  0.30630124622E+01 -0.25175444240E+02  0.12304266684E+04  0.12306880073E+04  0.00000000000E+00 0.  1.
         -2    1    1    2    0  502 -0.30630124622E+01  0.25175444240E+02  0.21674264818E+03  0.21822135683E+03  0.00000000000E+00 0. -1.
</event>
<event>
 4    1  0.5953944E+003  0.2244365E+02  0.7546771E-02  0.1499605E+00
          2   -1    0    0  501    0  0.00000000000E+00  0.00000000000E+00  0.33889989135E+03  0.33889989135E+03  0.00000000000E+00 0.  1.
         -2   -1    0    0    0  501 -0.00000000000E+00 -0.00000000000E+00 -0.14008242329E+02  0.14008242329E+02  0.00000000000E+00 0.  1.
          2    1    1    2  502    0 -0.22240874341E+02 -0.30101690987E+01  0.32927620923E+03  0.33004020903E+03  0.00000000000E+00 0.  1.
         -2    1    1    2    0  502  0.22240874341E+02  0.30101690987E+01 -0.43845602139E+01  0.22867924648E+02  0.00000000000E+00 0.  1.
</event>
<event>
 4    1  0.5953944E+003  0.2756425E+02  0.7546771E-02  0.1442021E+00
          2   -1    0    0  501    0  0.00000000000E+00  0.00000000000E+00  0.14067204950E+04  0.14067204950E+04  0.00000000000E+00 0.  1.
         -2   -1    0    0    0  501 -0.00000000000E+00 -0.00000000000E+00 -0.52044628979E+02  0.52044628979E+02  0.00000000000E+00 0.  1.
          2    1    1    2  502    0  0.65068204502E+00 -0.27556570710E+02  0.14029259016E+04  0.14031966624E+04  0.00000000000E+00 0.  1.
         -2    1    1    2    0  502 -0.65068204502E+00  0.27556570710E+02 -0.48250035641E+02  0.55568461521E+02  0.00000000000E+00 0.  1.
</event>
<event>
 4    1  0.5953944E+003  0.2246703E+02  0.7546771E-02  0.1499301E+00
          2   -1    0    0  501    0  0.00000000000E+00  0.00000000000E+00  0.13695299007E+04  0.13695299007E+04  0.00000000000E+00 0. -1.
         -2   -1    0    0    0  501 -0.00000000000E+00 -0.00000000000E+00 -0.14948797969E+01  0.14948797969E+01  0.00000000000E+00 0.  1.
          2    1    1    2  502    0  0.11551308071E+02 -0.19270041904E+02  0.12790506586E+04  0.12792479644E+04  0.00000000000E+00 0. -1.
         -2    1    1    2    0  502 -0.11551308071E+02  0.19270041904E+02  0.88984362342E+02  0.91776816105E+02  0.00000000000E+00 0.  1.
</event>
<event>
 4    1  0.5953944E+003  0.3433876E+02  0.7546771E-02  0.1385272E+00
          2   -1    0    0  501    0  0.00000000000E+00  0.00000000000E+00  0.12785566504E+04  0.12785566504E+04  0.00000000000E+00 0.  1.
         -2   -1    0    0    0  501 -0.00000000000E+00 -0.00000000000E+00 -0.25150658717E+01  0.25150658717E+01  0.00000000000E+00 0.  1.
          2    1    1    2  502    0 -0.29796714716E+02 -0.17067702631E+02  0.11477638965E+04  0.11482774547E+04  0.00000000000E+00 0.  1.
         -2    1    1    2    0  502  0.29796714716E+02  0.17067702631E+02  0.12827768795E+03  0.13279426158E+03  0.00000000000E+00 0.  1.
</event>
<event>
 4    1  0.5953944E+003  0.2798872E+02  0.7546771E-02  0.1437921E+00
          2   -1    0    0  501    0  0.00000000000E+00  0.00000000000E+00  0.28850831406E+03  0.28850831406E+03  0.00000000000E+00 0.  1.
         -2   -1    0    0    0  501 -0.00000000000E+00 -0.00000000000E+00 -0.20665553599E+02  0.20665553599E+02  0.00000000000E+00 0.  1.
          2    1    1    2  502    0  0.25847813505E+02  0.10735878419E+02  0.27799528060E+03  0.27940068823E+03  0.00000000000E+00 0.  1.
         -2    1    1    2    0  502 -0.25847813505E+02 -0.10735878419E+02 -0.10152520134E+02  0.29773179432E+02  0.00000000000E+00 0.  1.
</event>
<event>
 4    1  0.5953944E+003  0.3863999E+02  0.7546771E-02  0.1356645E+00
          2   -1    0    0  501    0  0.00000000000E+00  0.00000000000E+00  0.14656023432E+04  0.14656023432E+04  0.00000000000E+00 0. -1.
         -2   -1    0    0    0  501 -0.00000000000E+00 -0.00000000000E+00 -0.35919854937E+02  0.35919854937E+02  0.00000000000E+00 0.  1.
          2    1    1    2  502    0  0.84609748202E+00 -0.38630722524E+02  0.14548795599E+04  0.14553925870E+04  0.00000000000E+00 0. -1.
         -2    1    1    2    0  502 -0.84609748202E+00  0.38630722524E+02 -0.25197071616E+02  0.46129611116E+02  0.00000000000E+00 0.  1.
</event>
<event>
 4    1  0.5953944E+003  0.2489200E+02  0.7546771E-02  0.1470015E+00
          2   -1    0    0  501    0  0.00000000000E+00  0.00000000000E+00  0.44077286391E+03  0.44077286391E+03  0.00000000000E+00 0. -1.
         -2   -1    0    0    0  501 -0.00000000000E+00 -0.00000000000E+00 -0.43072741698E+01  0.43072741698E+01  0.00000000000E+00 0. -1.
          2    1    1    2  502    0 -0.72282204948E+01 -0.23819409082E+02  0.40088331402E+03  0.40165537825E+03  0.00000000000E+00 0. -1.
         -2    1    1    2    0  502  0.72282204948E+01  0.23819409082E+02  0.35582275721E+02  0.43424759826E+02  0.00000000000E+00 0. -1.
</event>
<event>
 4    1  0.5953944E+003  0.2109854E+02  0.7546771E-02  0.1517862E+00
          2   -1    0    0  501    0  0.00000000000E+00  0.00000000000E+00  0.53071117739E+03  0.53071117739E+03  0.00000000000E+00 0. -1.
         -2   -1    0    0    0  501 -0.00000000000E+00 -0.00000000000E+00 -0.40942216743E+01  0.40942216743E+01  0.00000000000E+00 0.  1.
          2    1    1    2  502    0 -0.28011632268E+01 -0.20911765960E+02  0.50175184854E+03  0.50219524687E+03  0.00000000000E+00 0. -1.
         -2    1    1    2    0  502  0.28011632268E+01  0.20911765960E+02  0.24865107180E+02  0.32610152193E+02  0.00000000000E+00 0.  1.
</event>
<event>
 4    1  0.5953944E+003  0.3045407E+02  0.7546771E-02  0.1415691E+00
          2   -1    0    0  501    0  0.00000000000E+00  0.00000000000E+00  0.64063202051E+03  0.64063202051E+03  0.00000000000E+00 0. -1.
         -2   -1    0    0    0  501 -0.00000000000E+00 -0.00000000000E+00 -0.15354626490E+01  0.15354626490E+01  0.00000000000E+00 0. -1.
          2    1    1    2  502    0  0.23505066330E+02  0.19363948461E+02  0.39630632920E+03  0.39747472524E+03  0.00000000000E+00 0. -1.
         -2    1    1    2    0  502 -0.23505066330E+02 -0.19363948461E+02  0.24279022867E+03  0.24469275792E+03  0.00000000000E+00 0. -1.
</event>
<event>
 4    1  0.5953944E+003  0.3870599E+02  0.7546771E-02  0.1356240E+00
          2   -1    0    0  501    0  0.00000000000E+00  0.00000000000E+00  0.45495266082E+02  0.45495266082E+02  0.00000000000E+00 0.  1.
         -2   -1    0    0    0  501 -0.00000000000E+00 -0.00000000000E+00 -0.52630436474E+02  0.52630436474E+02  0.00000000000E+00 0. -1.
          2    1    1    2  502    0 -0.30052078422E+02 -0.24393160049E+02  0.26449847060E+02  0.46880145949E+02  0.00000000000E+00 0.  1.
         -2    1    1    2    0  502  0.30052078422E+02  0.24393160049E+02 -0.33585017452E+02  0.51245556607E+02  0.00000000000E+00 0. -1.
</event>
<event>
 4    1  0.5953944E+003  0.2837050E+02  0.7546771E-02  0.1434306E+00
          2   -1    0    0  501    0  0.00000000000E+00  0.00000000000E+00  0.15322649745E+04  0.15322649745E+04  0.00000000000E+00 0. -1.
         -2   -1    0    0    0  501 -0.00000000000E+00 -0.00000000000E+00 -0.55112323910E+01  0.55112323910E+01  0.00000000000E+00 0. -1.
          2    1    1    2  502    0  0.18853690417E+02 -0.21199615578E+02  0.14947051283E+04  0.14949743496E+04  0.00000000000E+00 0. -1.
         -2    1    1    2    0  502 -0.18853690417E+02  0.21199615578E+02  0.32048613856E+02  0.42801857356E+02  0.00000000000E+00 0. -1.
</event>
<event>
 4    1  0.5953944E+003  0.2187494E+02  0.7546771E-02  0.1507130E+00
          2   -1    0    0  501    0  0.00000000000E+00  0.00000000000E+00  0.15793978713E+03  0.15793978713E+03  0.00000000000E+00 0. -1.
         -2   -1    0    0    0  501 -0.00000000000E+00 -0.00000000000E+00 -0.10004808592E+02  0.10004808592E+02  0.00000000000E+00 0.  1.
          2    1    1    2  502    0 -0.13881441510E+02 -0.16906171154E+02  0.14408178349E+03  0.14573288364E+03  0.00000000000E+00 0. -1.
         -2    1    1    2    0  502  0.13881441510E+02  0.16906171154E+02  0.38531950508E+01  0.22211712081E+02  0.00000000000E+00 0.  1.
</event>
<event>
 4    1  0.5953944E+003  0.2551655E+02  0.7546771E-02  0.1463107E+00
          2   -1    0    0  501    0  0.00000000000E+00  0.00000000000E+00  0.32369063992E+02  0.32369063992E+02  0.00000000000E+00 0.  1.
         -2   -1    0    0    0  501 -0.00000000000E+00 -0.00000000000E+00 -0.45684371975E+02  0.45684371975E+02  0.00000000000E+00 0.  1.
          2    1    1    2  502    0 -0.72388598082E+01  0.24468207532E+02  0.22539512797E+02  0.34045908834E+02  0.00000000000E+00 0.  1.
         -2    1    1    2    0  502  0.72388598082E+01 -0.24468207532E+02 -0.35854820780E+02  0.44007527133E+02  0.00000000000E+00 0.  1.
</event>
<event>
 4    1  0.5953944E+003  0.2460268E+02  0.7546771E-02  0.1473298E+00
          2   -1    0    0  501    0  0.00000000000E+00  0.00000000000E+00  0.16941767429E+04  0.16941767429E+04  0.00000000000E+00 0.  1.
         -2   -1    0    0    0  501 -0.00000000000E+00 -0.00000000000E+00 -0.36712560822E+00  0.36712560822E+00  0.00000000000E+00 0.  1.
          2    1    1    2  502    0  0.10881111938E+02  0.22065641652E+02  0.70813560554E+03  0.70856286029E+03  0.00000000000E+00 0.  1.
         -2    1    1    2    0  502 -0.10881111938E+02 -0.22065641652E+02  0.98567401175E+03  0.98598100822E+03  0.00000000000E+00 0.  1.
</event>
<event>
 4    1  0.5953944E+003  0.2360712E+02  0.7546771E-02  0.1485012E+00
          2   -1    0    0  501    0  0.00000000000E+00  0.00000000000E+00  0.74345991103E+03  0.74345991103E+03  0.00000000000E+00 0. -1.
         -2   -1    0    0    0  501 -0.00000000000E+00 -0.00000000000E+00 -0.31579873132E+01  0.31579873132E+01  0.00000000000E+00 0.  1.
          2    1    1    2  502    0  0.21489896453E+02 -0.97714038929E+01  0.69615769214E+03  0.69655784276E+03  0.00000000000E+00 0. -1.
         -2    1    1    2    0  502 -0.21489896453E+02  0.97714038929E+01  0.44144231579E+02  0.50060055586E+02  0.00000000000E+00 0.  1.
</event>
<event>
 4    1  0.5953944E+003  0.2343996E+02  0.7546771E-02  0.1487046E+00
          2   -1    0    0  501    0  0.00000000000E+00  0.00000000000E+00  0.12263303042E+04  0.12263303042E+04  0.00000000000E+00 0.  1.
         -2   -1    0    0    0  501 -0.00000000000E+00 -0.00000000000E+00 -0.17881047511E+01  0.17881047511E+01  0.00000000000E+00 0.  1.
          2    1    1    2  502    0  0.94549311640E+01 -0.21448448688E+02  0.11438630838E+04  0.11441032236E+04  0.00000000000E+00 0.  1.
         -2    1    1    2    0  502 -0.94549311640E+01  0.21448448688E+02  0.80679115595E+02  0.84015185340E+02  0.00000000000E+00 0.  1.
</event>
<event>
 4    1  0.5953944E+003  0.2271686E+02  0.7546771E-02  0.1496084E+00
          2   -1    0    0  501    0  0.00000000000E+00  0.00000000000E+00  0.34106082986E+03  0.34106082986E+03  0.00000000000E+00 0.  1.
         -2   -1    0    0    0  501 -0.00000000000E+00 -0.00000000000E+00 -0.17856344071E+02  0.17856344071E+02  0.00000000000E+00 0. -1.
          2    1    1    2  502    0 -0.16207989621E+02  0.15917189233E+02  0.33328917209E+03  0.33406246133E+03  0.00000000000E+00 0.  1.
         -2    1    1    2    0  502  0.16207989621E+02 -0.15917189233E+02 -0.10084686299E+02  0.24854712599E+02  0.00000000000E+00 0. -1.
</event>
<event>
 4    1  0.5953944E+003  0.3845738E+02  0.7546771E-02  0.1357770E+00
          2   -1    0    0  501    0  0.00000000000E+00  0.00000000000E+00  0.14998494287E+04  0.14998494287E+04  0.00000000000E+00 0. -1.
         -2   -1    0    0    0  501 -0.00000000000E+00 -0.00000000000E+00 -0.80319938445E+01  0.80319938445E+01  0.00000000000E+00 0. -1.
          2    1    1    2  502    0 -0.38267093249E+02  0.38209611141E+01  0.14520542299E+04  0.14525634088E+04  0.00000000000E+00 0. -1.
         -2    1    1    2    0  502  0.38267093249E+02 -0.38209611141E+01  0.39763204930E+02  0.55318013666E+02  0.00000000000E+00 0. -1.
</event>
<event>
 4    1  0.5953944E+003  0.2391308E+02  0.7546771E-02  0.1481340E+00
          2   -1    0    0  501    0  0.00000000000E+00  0.00000000000E+00  0.13552418277E+04  0.13552418277E+04  0.00000000000E+00 0.  1.
         -2   -1    0    0    0  501 -0.00000000000E+00 -0.00000000000E+00 -0.43407419037E+00  0.43407419037E+00  0.00000000000E+00 0. -1.
          2    1    1    2  502    0  0.23460694352E+02  0.46293386904E+01  0.56408726574E+03  0.56459390567E+03  0.00000000000E+00 0.  1.
         -2    1    1    2    0  502 -0.23460694352E+02 -0.46293386904E+01  0.79072048778E+03  0.79108199623E+03  0.00000000000E+00 0. -1.
</event>
<event>
 4    1  0.5953944E+003  0.2523783E+02  0.7546771E-02  0.1466160E+00
          2   -1    0    0  501    0  0.00000000000E+00  0.00000000000E+00  0.16282995072E+04  0.16282995072E+04  0.00000000000E+00 0. -1.
         -2   -1    0    0    0  501 -0.00000000000E+00 -0.00000000000E+00 -0.40340283879E+00  0.40340283879E+00  0.00000000000E+00 0. -1.
          2    1    1    2  502    0 -0.18540014406E+02  0.17123550452E+02  0.95573572375E+03  0.95606888966E+03  0.00000000000E+00 0. -1.
         -2    1    1    2    0  502  0.18540014406E+02 -0.17123550452E+02  0.67216038063E+03  0.67263402040E+03  0.00000000000E+00 0. -1.
</event>
<event>
 4    1  0.5953944E+003  0.2135126E+02  0.7546771E-02  0.1514308E+00
          2   -1    0    0  501    0  0.00000000000E+00  0.00000000000E+00  0.15832704428E+04  0.15832704428E+04  0.00000000000E+00 0.  1.
         -2   -1    0    0    0  501 -0.00000000000E+00 -0.00000000000E+00 -0.73645438406E+00  0.73645438406E+00  0.00000000000E+00 0.  1.
          2    1    1    2  502    0  0.97799841187E+01 -0.18979674797E+02  0.14093483175E+04  0.14095100412E+04  0.00000000000E+00 0.  1.
         -2    1    1    2    0  502 -0.97799841187E+01  0.18979674797E+02  0.17318567082E+03  0.17449685591E+03  0.00000000000E+00 0.  1.
</event>
<event>
 4    1  0.5953944E+003  0.5245061E+02  0.7546771E-02  0.1287883E+00
          2   -1    0    0  501    0  0.00000000000E+00  0.00000000000E+00  0.25595291206E+04  0.25595291206E+04  0.00000000000E+00 0.  1.
         -2   -1    0    0    0  501 -0.00000000000E+00 -0.00000000000E+00 -0.26267605740E+03  0.26267605740E+03  0.00000000000E+00 0.  1.
          2    1    1    2  502    0  0.52360637945E+02  0.30708415473E+01  0.25566391457E+04  0.25571771131E+04  0.00000000000E+00 0.  1.
         -2    1    1    2    0  502 -0.52360637945E+02 -0.30708415473E+01 -0.25978608254E+03  0.26502806485E+03  0.00000000000E+00 0.  1.
</event>
<event>
 4    1  0.5953944E+003  0.4213207E+02  0.7546771E-02  0.1336425E+00
          2   -1    0    0  501    0  0.00000000000E+00  0.00000000000E+00  0.82077734610E+03  0.82077734610E+03  0.00000000000E+00 0. -1.
         -2   -1    0    0    0  501 -0.00000000000E+00 -0.00000000000E+00 -0.98302522186E+02  0.98302522186E+02  0.00000000000E+00 0.  1.
          2    1    1    2  502    0  0.41346501227E+02 -0.80980528701E+01  0.81569414197E+03  0.81678151599E+03  0.00000000000E+00 0. -1.
         -2    1    1    2    0  502 -0.41346501227E+02  0.80980528701E+01 -0.93219318054E+02  0.10229835230E+03  0.00000000000E+00 0.  1.
</event>
<event>
 4    1  0.5953944E+003  0.2400639E+02  0.7546771E-02  0.1480233E+00
          2   -1    0    0  501    0  0.00000000000E+00  0.00000000000E+00  0.45230390900E+00  0.45230390900E+00  0.00000000000E+00 0.  1.
         -2   -1    0    0    0  501 -0.00000000000E+00 -0.00000000000E+00 -0.14943808365E+04  0.14943808365E+04  0.00000000000E+00 0.  1.
          2    1    1    2  502    0  0.13812941604E+00  0.24005990741E+02 -0.46004269928E+03  0.46066863560E+03  0.00000000000E+00 0.  1.
         -2    1    1    2    0  502 -0.13812941604E+00 -0.24005990741E+02 -0.10338858333E+04  0.10341645048E+04  0.00000000000E+00 0.  1.
</event>
<event>
 4    1  0.5953944E+003  0.2013767E+02  0.7546771E-02  0.1531942E+00
          2   -1    0    0  501    0  0.00000000000E+00  0.00000000000E+00  0.19456338633E+03  0.19456338633E+03  0.00000000000E+00 0.  1.
         -2   -1    0    0    0  501 -0.00000000000E+00 -0.00000000000E+00 -0.32076121561E+02  0.32076121561E+02  0.00000000000E+00 0. -1.
          2    1    1    2  502    0 -0.20126304642E+02 -0.67637421419E+00  0.19081982980E+03  0.19187947536E+03  0.00000000000E+00 0.  1.
         -2    1    1    2    0  502  0.20126304642E+02  0.67637421419E+00 -0.28332565027E+02  0.34760032532E+02  0.00000000000E+00 0. -1.
</event>
<event>
 4    1  0.5953944E+003  0.2359233E+02  0.7546771E-02  0.1485191E+00
          2   -1    0    0  501    0  0.00000000000E+00  0.00000000000E+00  0.13856522679E+04  0.13856522679E+04  0.00000000000E+00 0.  1.
         -2   -1    0    0    0  501 -0.00000000000E+00 -0.00000000000E+00 -0.67903587570E+02  0.67903587570E+02  0.00000000000E+00 0.  1.
          2    1    1    2  502    0 -0.16872101563E+00 -0.23591721783E+02  0.13834994369E+04  0.13837005780E+04  0.00000000000E+00 0.  1.
         -2    1    1    2    0  502  0.16872101563E+00  0.23591721783E+02 -0.65750756532E+02  0.69855277453E+02  0.00000000000E+00 0.  1.
</event>
<event>
 4    1  0.5953944E+003  0.2458526E+02  0.7546771E-02  0.1473497E+00
          2   -1    0    0  501    0  0.00000000000E+00  0.00000000000E+00  0.57431745657E+02  0.57431745657E+02  0.00000000000E+00 0. -1.
         -2   -1    0    0    0  501 -0.00000000000E+00 -0.00000000000E+00 -0.31039510233E+02  0.31039510233E+02  0.00000000000E+00 0.  1.
          2    1    1    2  502    0 -0.10254643714E+02 -0.22344508990E+02  0.49158766285E+02  0.54963798107E+02  0.00000000000E+00 0. -1.
         -2    1    1    2    0  502  0.10254643714E+02  0.22344508990E+02 -0.22766530861E+02  0.33507457784E+02  0.00000000000E+00 0.  1.
</event>
<event>
 4    1  0.5953944E+003  0.3694117E+02  0.7546771E-02  0.1367407E+00
          2   -1    0    0  501    0  0.00000000000E+00  0.00000000000E+00  0.25971888159E+03  0.25971888159E+03  0.00000000000E+00 0. -1.
         -2   -1    0    0    0  501 -0.00000000000E+00 -0.00000000000E+00 -0.96592964701E+02  0.96592964701E+02  0.00000000000E+00 0. -1.
          2    1    1    2  502    0 -0.23044577746E+02 -0.28872092858E+02  0.25480558564E+03  0.25746948709E+03  0.00000000000E+00 0. -1.
         -2    1    1    2    0  502  0.23044577746E+02  0.28872092858E+02 -0.91679668752E+02  0.98842359199E+02  0.00000000000E+00 0. -1.
</event>
<event>
 4    1  0.5953944E+003  0.4429263E+02  0.7546771E-02  0.1325015E+00
          2   -1    0    0  501    0  0.00000000000E+00  0.00000000000E+00  0.92145701797E+03  0.92145701797E+03  0.00000000000E+00 0. -1.
         -2   -1    0    0    0  501 -0.00000000000E+00 -0.00000000000E+00 -0.37780540789E+02  0.37780540789E+02  0.00000000000E+00 0.  1.
          2    1    1    2  502    0 -0.36942968372E+02  0.24434697067E+02  0.90774700339E+03  0.90882696896E+03  0.00000000000E+00 0. -1.
         -2    1    1    2    0  502  0.36942968372E+02 -0.24434697067E+02 -0.24070526207E+02  0.50410589808E+02  0.00000000000E+00 0.  1.
</event>
<event>
 4    1  0.5953944E+003  0.2176978E+02  0.7546771E-02  0.1508552E+00
          2   -1    0    0  501    0  0.00000000000E+00  0.00000000000E+00  0.89829547953E+02  0.89829547953E+02  0.00000000000E+00 0.  1.
         -2   -1    0    0    0  501 -0.00000000000E+00 -0.00000000000E+00 -0.65638292282E+01  0.65638292282E+01  0.00000000000E+00 0.  1.
          2    1    1    2  502    0  0.20496654058E+02  0.73355671320E+01  0.62982974182E+02  0.66639165733E+02  0.00000000000E+00 0.  1.
         -2    1    1    2    0  502 -0.20496654058E+02 -0.73355671320E+01  0.20282744542E+02  0.29754211448E+02  0.00000000000E+00 0.  1.
</event>
<event>
 4    1  0.5953944E+003  0.2398867E+02  0.7546771E-02  0.1480443E+00
          2   -1    0    0  501    0  0.00000000000E+00  0.00000000000E+00  0.17483484406E+02  0.17483484406E+02  0.00000000000E+00 0. -1.
         -2   -1    0    0    0  501 -0.00000000000E+00 -0.00000000000E+00 -0.33582126906E+02  0.33582126906E+02  0.00000000000E+00 0. -1.
          2    1    1    2  502    0 -0.11854655315E+02  0.20854818511E+02 -0.44486557610E+01  0.24397681157E+02  0.00000000000E+00 0. -1.
         -2    1    1    2    0  502  0.11854655315E+02 -0.20854818511E+02 -0.11649986739E+02  0.26667930155E+02  0.00000000000E+00 0. -1.
</event>
<event>
 4    1  0.5953944E+003  0.3068641E+02  0.7546771E-02  0.1413724E+00
          2   -1    0    0  501    0  0.00000000000E+00  0.00000000000E+00  0.93150326284E+02  0.93150326284E+02  0.00000000000E+00 0.  1.
         -2   -1    0    0    0  501 -0.00000000000E+00 -0.00000000000E+00 -0.49309190236E+02  0.49309190236E+02  0.00000000000E+00 0. -1.
          2    1    1    2  502    0  0.26313711887E+02 -0.15787466911E+02  0.85430505929E+02  0.90774593846E+02  0.00000000000E+00 0.  1.
         -2    1    1    2    0  502 -0.26313711887E+02  0.15787466911E+02 -0.41589369881E+02  0.51684922674E+02  0.00000000000E+00 0. -1.
</event>
<event>
 4    1  0.5953944E+003  0.2673018E+02  0.7546771E-02  0.1450337E+00
          2   -1    0    0  501    0  0.00000000000E+00  0.00000000000E+00  0.29468612644E+03  0.29468612644E+03  0.00000000000E+00 0. -1.
         -2   -1    0    0    0  501 -0.00000000000E+00 -0.00000000000E+00 -0.66771844661E+02  0.66771844661E+02  0.00000000000E+00 0.  1.
          2    1    1    2  502    0  0.19141340264E+02 -0.18657750965E+02  0.29137446542E+03  0.29259798646E+03  0.00000000000E+00 0. -1.
         -2    1    1    2    0  502 -0.19141340264E+02  0.18657750965E+02 -0.63460183640E+02  0.68859984649E+02  0.00000000000E+00 0.  1.
</event>
<event>
 4    1  0.5953944E+003  0.2088339E+02  0.7546771E-02  0.1520936E+00
          2   -1    0    0  501    0  0.00000000000E+00  0.00000000000E+00  0.14666949361E+02  0.14666949361E+02  0.00000000000E+00 0. -1.
         -2   -1    0    0    0  501 -0.00000000000E+00 -0.00000000000E+00 -0.29736864277E+02  0.29736864277E+02  0.00000000000E+00 0. -1.
          2    1    1    2  502    0 -0.74207810145E+01 -0.19520434262E+02 -0.77302256990E+01  0.22268177608E+02  0.00000000000E+00 0. -1.
         -2    1    1    2    0  502  0.74207810145E+01  0.19520434262E+02 -0.73396892168E+01  0.22135636030E+02  0.00000000000E+00 0. -1.
</event>
<event>
 4    1  0.5953944E+003  0.3058626E+02  0.7546771E-02  0.1414569E+00
          2   -1    0    0  501    0  0.00000000000E+00  0.00000000000E+00  0.48919146149E+02  0.48919146149E+02  0.00000000000E+00 0.  1.
         -2   -1    0    0    0  501 -0.00000000000E+00 -0.00000000000E+00 -0.23405078409E+02  0.23405078409E+02  0.00000000000E+00 0.  1.
          2    1    1    2  502    0 -0.18069713143E+02 -0.24678027929E+02  0.28223313598E+02  0.41618205463E+02  0.00000000000E+00 0.  1.
         -2    1    1    2    0  502  0.18069713143E+02  0.24678027929E+02 -0.27092458574E+01  0.30706019095E+02  0.00000000000E+00 0.  1.
</event>
<event>
 4    1  0.5953944E+003  0.2139614E+02  0.7546771E-02  0.1513683E+00
          2   -1    0    0  501    0  0.00000000000E+00  0.00000000000E+00  0.22702072246E+01  0.22702072246E+01  0.00000000000E+00 0. -1.
         -2   -1    0    0    0  501 -0.00000000000E+00 -0.00000000000E+00 -0.38878354742E+03  0.38878354742E+03  0.00000000000E+00 0.  1.
          2    1    1    2  502    0 -0.22039375793E+01  0.21282331249E+02 -0.57605224488E+02  0.61450442248E+02  0.00000000000E+00 0. -1.
         -2    1    1    2    0  502  0.22039375793E+01 -0.21282331249E+02 -0.32890811570E+03  0.32960331239E+03  0.00000000000E+00 0.  1.
</event>
<event>
 4    1  0.5953944E+003  0.2038791E+02  0.7546771E-02  0.1528186E+00
          2   -1    0    0  501    0  0.00000000000E+00  0.00000000000E+00  0.73791262612E+03  0.73791262612E+03  0.00000000000E+00 0. -1.
         -2   -1    0    0    0  501 -0.00000000000E+00 -0.00000000000E+00 -0.73012772366E+00  0.73012772366E+00  0.00000000000E+00 0. -1.
          2    1    1    2  502    0  0.17473779058E+02  0.10504001260E+02  0.54512904555E+03  0.54551016791E+03  0.00000000000E+00 0. -1.
         -2    1    1    2    0  502 -0.17473779058E+02 -0.10504001260E+02  0.19205345284E+03  0.19313258593E+03  0.00000000000E+00 0. -1.
</event>
<event>
 4    1  0.5953944E+003  0.2504030E+02  0.7546771E-02  0.1468353E+00
          2   -1    0    0  501    0  0.00000000000E+00  0.00000000000E+00  0.79814329346E+03  0.79814329346E+03  0.00000000000E+00 0.  1.
         -2   -1    0    0    0  501 -0.00000000000E+00 -0.00000000000E+00 -0.20778312866E+01  0.20778312866E+01  0.00000000000E+00 0.  1.
          2    1    1    2  502    0 -0.18923784569E+02 -0.16398381006E+02  0.71356662898E+03  0.71400584767E+03  0.00000000000E+00 0.  1.
         -2    1    1    2    0  502  0.18923784569E+02  0.16398381006E+02  0.82498833192E+02  0.86215277069E+02  0.00000000000E+00 0.  1.
</event>
<event>
 4    1  0.5953944E+003  0.5691241E+02  0.7546771E-02  0.1270700E+00
          2   -1    0    0  501    0  0.00000000000E+00  0.00000000000E+00  0.11964252200E+04  0.11964252200E+04  0.00000000000E+00 0. -1.
         -2   -1    0    0    0  501 -0.00000000000E+00 -0.00000000000E+00 -0.50342696548E+01  0.50342696548E+01  0.00000000000E+00 0.  1.
          2    1    1    2  502    0 -0.56343113200E+02 -0.80296767089E+01  0.10041191701E+04  0.10057307442E+04  0.00000000000E+00 0. -1.
         -2    1    1    2    0  502  0.56343113200E+02  0.80296767089E+01  0.18727178031E+03  0.19572874550E+03  0.00000000000E+00 0.  1.
</event>
<event>
 4    1  0.5953944E+003  0.2533181E+02  0.7546771E-02  0.1465125E+00
          2   -1    0    0  501    0  0.00000000000E+00  0.00000000000E+00  0.13549786385E+03  0.13549786385E+03  0.00000000000E+00 0. -1.
         -2   -1    0    0    0  501 -0.00000000000E+00 -0.00000000000E+00 -0.29573588432E+02  0.29573588432E+02  0.00000000000E+00 0. -1.
          2    1    1    2  502    0  0.25286468603E+02 -0.15150398869E+01  0.12860113745E+03  0.13107232124E+03  0.00000000000E+00 0. -1.
         -2    1    1    2    0  502 -0.25286468603E+02  0.15150398869E+01 -0.22676862033E+02  0.33999131047E+02  0.00000000000E+00 0. -1.
</event>
<event>
 4    1  0.5953944E+003  0.2583314E+02  0.7546771E-02  0.1459695E+00
          2   -1    0    0  501    0  0.00000000000E+00  0.00000000000E+00  0.35440266940E+03  0.35440266940E+03  0.00000000000E+00 0.  1.
         -2   -1    0    0    0  501 -0.00000000000E+00 -0.00000000000E+00 -0.21667405761E+01  0.21667405761E+01  0.00000000000E+00 0.  1.
          2    1    1    2  502    0  0.54557190932E+01 -0.25250462187E+02  0.11160474590E+03  0.11455553247E+03  0.00000000000E+00 0.  1.
         -2    1    1    2    0  502 -0.54557190932E+01  0.25250462187E+02  0.24063118292E+03  0.24201387750E+03  0.00000000000E+00 0.  1.
</event>
<event>
 4    1  0.5953944E+003  0.2134142E+02  0.7546771E-02  0.1514446E+00
          2   -1    0    0  501    0  0.00000000000E+00  0.00000000000E+00  0.25063497221E+03  0.25063497221E+03  0.00000000000E+00 0.  1.
         -2   -1    0    0    0  501 -0.00000000000E+00 -0.00000000000E+00 -0.12916973341E+02  0.12916973341E+02  0.00000000000E+00 0. -1.
          2    1    1    2  502    0 -0.13323492583E+02  0.16671552523E+02  0.24101441603E+03  0.24195744430E+03  0.00000000000E+00 0.  1.
         -2    1    1    2    0  502  0.13323492583E+02 -0.16671552523E+02 -0.32964171616E+01  0.21594501251E+02  0.00000000000E+00 0. -1.
</event>
<event>
 4    1  0.5953944E+003  0.2258340E+02  0.7546771E-02  0.1497797E+00
          2   -1    0    0  501    0  0.00000000000E+00  0.00000000000E+00  0.11532427897E+04  0.11532427897E+04  0.00000000000E+00 0. -1.
         -2   -1    0    0    0  501 -0.00000000000E+00 -0.00000000000E+00 -0.81385267014E+00  0.81385267014E+00  0.00000000000E+00 0. -1.
          2    1    1    2  502    0 -0.18188176411E+02  0.13386562588E+02  0.96612918537E+03  0.96639309426E+03  0.00000000000E+00 0. -1.
         -2    1    1    2    0  502  0.18188176411E+02 -0.13386562588E+02  0.18629975171E+03  0.18766354816E+03  0.00000000000E+00 0. -1.
</event>
<event>
 4    1  0.5953944E+003  0.2221880E+02  0.7546771E-02  0.1502548E+00
          2   -1    0    0  501    0  0.00000000000E+00  0.00000000000E+00  0.10820088174E+04  0.10820088174E+04  0.00000000000E+00 0. -1.
         -2   -1    0    0    0  501 -0.00000000000E+00 -0.00000000000E+00 -0.86310133547E+00  0.86310133547E+00  0.00000000000E+00 0.  1.
          2    1    1    2  502    0  0.96464668107E+01 -0.20015516617E+02  0.91230471472E+03  0.91257523949E+03  0.00000000000E+00 0. -1.
         -2    1    1    2    0  502 -0.96464668107E+01  0.20015516617E+02  0.16884100131E+03  0.17029667921E+03  0.00000000000E+00 0.  1.
</event>
<event>
 4    1  0.5953944E+003  0.2280682E+02  0.7546771E-02  0.1494938E+00
          2   -1    0    0  501    0  0.00000000000E+00  0.00000000000E+00  0.48273992543E+03  0.48273992543E+03  0.00000000000E+00 0. -1.
         -2   -1    0    0    0  501 -0.00000000000E+00 -0.00000000000E+00 -0.11522585862E+01  0.11522585862E+01  0.00000000000E+00 0.  1.
          2    1    1    2  502    0 -0.70187130993E+00  0.22796020877E+02  0.30242220098E+03  0.30328095693E+03  0.00000000000E+00 0. -1.
         -2    1    1    2    0  502  0.70187130993E+00 -0.22796020877E+02  0.17916546587E+03  0.18061122709E+03  0.00000000000E+00 0.  1.
</event>
<event>
 4    1  0.5953944E+003  0.2248720E+02  0.7546771E-02  0.1499040E+00
          2   -1    0    0  501    0  0.00000000000E+00  0.00000000000E+00  0.16841316961E+02  0.16841316961E+02  0.00000000000E+00 0.  1.
         -2   -1    0    0    0  501 -0.00000000000E+00 -0.00000000000E+00 -0.68835537934E+03  0.68835537934E+03  0.00000000000E+00 0.  1.
          2    1    1    2  502    0  0.22477689369E+02  0.65410288774E+00  0.90654682318E+01  0.24245764253E+02  0.00000000000E+00 0.  1.
         -2    1    1    2    0  502 -0.22477689369E+02 -0.65410288774E+00 -0.68057953061E+03  0.68095093205E+03  0.00000000000E+00 0.  1.
</event>
<event>
 4    1  0.5953944E+003  0.2003518E+02  0.7546771E-02  0.1533499E+00
          2   -1    0    0  501    0  0.00000000000E+00  0.00000000000E+00  0.43563397421E+03  0.43563397421E+03  0.00000000000E+00 0.  1.
         -2   -1    0    0    0  501 -0.00000000000E+00 -0.00000000000E+00 -0.10668540200E+01  0.10668540200E+01  0.00000000000E+00 0.  1.
          2    1    1    2  502    0 -0.16917778622E+02  0.10732988947E+02  0.29789793491E+03  0.29857090935E+03  0.00000000000E+00 0.  1.
         -2    1    1    2    0  502  0.16917778622E+02 -0.10732988947E+02  0.13666918528E+03  0.13812991889E+03  0.00000000000E+00 0.  1.
</event>
<event>
 4    1  0.5953944E+003  0.2922497E+02  0.7546771E-02  0.1426453E+00
          2   -1    0    0  501    0  0.00000000000E+00  0.00000000000E+00  0.21064107977E+04  0.21064107977E+04  0.00000000000E+00 0.  1.
         -2   -1    0    0    0  501 -0.00000000000E+00 -0.00000000000E+00 -0.11506188536E+01  0.11506188536E+01  0.00000000000E+00 0. -1.
          2    1    1    2  502    0  0.29163920016E+02 -0.18880642871E+01  0.19006465298E+04  0.19008712030E+04  0.00000000000E+00 0.  1.
         -2    1    1    2    0  502 -0.29163920016E+02  0.18880642871E+01  0.20461364901E+03  0.20669021355E+03  0.00000000000E+00 0. -1.
</event>
<event>
 4    1  0.5953944E+003  0.3032391E+02  0.7546771E-02  0.1416802E+00
          2   -1    0    0  501    0  0.00000000000E+00  0.00000000000E+00  0.38089413859E+03  0.38089413859E+03  0.00000000000E+00 0. -1.
         -2   -1    0    0    0  501 -0.00000000000E+00 -0.00000000000E+00 -0.53249812807E+01  0.53249812807E+01  0.00000000000E+00 0. -1.
          2    1    1    2  502    0 -0.42600841178E+01 -0.30023175030E+02  0.33055969068E+03  0.33194765922E+03  0.00000000000E+00 0. -1.
         -2    1    1    2    0  502  0.42600841178E+01  0.30023175030E+02  0.45009466633E+02  0.54271460660E+02  0.00000000000E+00 0. -1.
</event>
<event>
 4    1  0.5953944E+003  0.2446260E+02  0.7546771E-02  0.1474906E+00
          2   -1    0    0  501    0  0.00000000000E+00  0.00000000000E+00  0.19852184245E+02  0.19852184245E+02  0.00000000000E+00 0. -1.
         -2   -1    0    0    0  501 -0.00000000000E+00 -0.00000000000E+00 -0.58731172253E+02  0.58731172253E+02  0.00000000000E+00 0. -1.
          2    1    1    2  502    0 -0.15714149262E+02  0.18747909304E+02  0.79733444087E+01  0.25729220963E+02  0.00000000000E+00 0. -1.
         -2    1    1    2    0  502  0.15714149262E+02 -0.18747909304E+02 -0.46852332416E+02  0.52854135535E+02  0.00000000000E+00 0. -1.
</event>
<event>
 4    1  0.5953944E+003  0.2201461E+02  0.7546771E-02  0.1505257E+00
          2   -1    0    0  501    0  0.00000000000E+00  0.00000000000E+00  0.77666012412E+03  0.77666012412E+03  0.00000000000E+00 0.  1.
         -2   -1    0    0    0  501 -0.00000000000E+00 -0.00000000000E+00 -0.21067717881E+02  0.21067717881E+02  0.00000000000E+00 0. -1.
          2    1    1    2  502    0 -0.13678564488E+02  0.17249346206E+02  0.77070870620E+03  0.77102305600E+03  0.00000000000E+00 0.  1.
         -2    1    1    2    0  502  0.13678564488E+02 -0.17249346206E+02 -0.15116299960E+02  0.26704786003E+02  0.00000000000E+00 0. -1.
</event>
<event>
 4    1  0.5953944E+003  0.3662270E+02  0.7546771E-02  0.1369500E+00
          2   -1    0    0  501    0  0.00000000000E+00  0.00000000000E+00  0.13688497706E+02  0.13688497706E+02  0.00000000000E+00 0.  1.
         -2   -1    0    0    0  501 -0.00000000000E+00 -0.00000000000E+00 -0.13728203467E+03  0.13728203467E+03  0.00000000000E+00 0.  1.
          2    1    1    2  502    0  0.36598306760E+02  0.13364186473E+01 -0.21408657258E+02  0.42421134805E+02  0.00000000000E+00 0.  1.
         -2    1    1    2    0  502 -0.36598306760E+02 -0.13364186473E+01 -0.10218487970E+03  0.10854939757E+03  0.00000000000E+00 0.  1.
</event>
<event>
 4    1  0.5953944E+003  0.4568923E+02  0.7546771E-02  0.1318029E+00
          2   -1    0    0  501    0  0.00000000000E+00  0.00000000000E+00  0.32135739507E+04  0.32135739507E+04  0.00000000000E+00 0.  1.
         -2   -1    0    0    0  501 -0.00000000000E+00 -0.00000000000E+00 -0.83134753488E+00  0.83134753488E+00  0.00000000000E+00 0.  1.
          2    1    1    2  502    0 -0.98660550195E+01  0.44611257815E+02  0.85487587944E+03  0.85609594825E+03  0.00000000000E+00 0.  1.
         -2    1    1    2    0  502  0.98660550195E+01 -0.44611257815E+02  0.23578667237E+04  0.23583093500E+04  0.00000000000E+00 0.  1.
</event>
<event>
 4    1  0.5953944E+003  0.2205971E+02  0.7546771E-02  0.1504655E+00
          2   -1    0    0  501    0  0.00000000000E+00  0.00000000000E+00  0.61331772790E+03  0.61331772790E+03  0.00000000000E+00 0. -1.
         -2   -1    0    0    0  501 -0.00000000000E+00 -0.00000000000E+00 -0.99702130504E+00  0.99702130504E+00  0.00000000000E+00 0. -1.
          2    1    1    2  502    0 -0.12468677233E+02 -0.18197879824E+02  0.44495662701E+03  0.44550312082E+03  0.00000000000E+00 0. -1.
         -2    1    1    2    0  502  0.12468677233E+02  0.18197879824E+02  0.16736407959E+03  0.16881162839E+03  0.00000000000E+00 0. -1.
</event>
<event>
 4    1  0.5953944E+003  0.4222787E+02  0.7546771E-02  0.1335903E+00
          2   -1    0    0  501    0  0.00000000000E+00  0.00000000000E+00  0.41802143497E+03  0.41802143497E+03  0.00000000000E+00 0. -1.
         -2   -1    0    0    0  501 -0.00000000000E+00 -0.00000000000E+00 -0.60984788593E+01  0.60984788593E+01  0.00000000000E+00 0. -1.
          2    1    1    2  502    0  0.31049308841E+02  0.28620472022E+02  0.89711611196E+02  0.99153235861E+02  0.00000000000E+00 0. -1.
         -2    1    1    2    0  502 -0.31049308841E+02 -0.28620472022E+02  0.32221134492E+03  0.32496667797E+03  0.00000000000E+00 0. -1.
</event>
<event>
 4    1  0.5953944E+003  0.4317355E+02  0.7546771E-02  0.1330829E+00
          2   -1    0    0  501    0  0.00000000000E+00  0.00000000000E+00  0.22746308144E+03  0.22746308144E+03  0.00000000000E+00 0. -1.
         -2   -1    0    0    0  501 -0.00000000000E+00 -0.00000000000E+00 -0.14433052111E+02  0.14433052111E+02  0.00000000000E+00 0. -1.
          2    1    1    2  502    0  0.41405590454E+02  0.12228351641E+02  0.18603207643E+03  0.19097614764E+03  0.00000000000E+00 0. -1.
         -2    1    1    2    0  502 -0.41405590454E+02 -0.12228351641E+02  0.26997952893E+02  0.50919985911E+02  0.00000000000E+00 0. -1.
</event>
<event>
 4    1  0.5953944E+003  0.2351801E+02  0.7546771E-02  0.1486094E+00
          2   -1    0    0  501    0  0.00000000000E+00  0.00000000000E+00  0.50358718420E+01  0.50358718420E+01  0.00000000000E+00 0.  1.
         -2   -1    0    0    0  501 -0.00000000000E+00 -0.00000000000E+00 -0.20140395921E+03  0.20140395921E+03  0.00000000000E+00 0.  1.
          2    1    1    2  502    0 -0.66321276711E+01 -0.22563501805E+02 -0.28583564207E+02  0.37015089814E+02  0.00000000000E+00 0.  1.
         -2    1    1    2    0  502  0.66321276711E+01  0.22563501805E+02 -0.16778452316E+03  0.16942474124E+03  0.00000000000E+00 0.  1.
</event>
<event>
 4    1  0.5953944E+003  0.2254003E+02  0.7546771E-02  0.1498356E+00
          2   -1    0    0  501    0  0.00000000000E+00  0.00000000000E+00  0.10313305560E+02  0.10313305560E+02  0.00000000000E+00 0.  1.
         -2   -1    0    0    0  501 -0.00000000000E+00 -0.00000000000E+00 -0.11606488812E+03  0.11606488812E+03  0.00000000000E+00 0.  1.
          2    1    1    2  502    0 -0.19745142077E+02  0.10871161474E+02 -0.49367063838E+01  0.23074311634E+02  0.00000000000E+00 0.  1.
         -2    1    1    2    0  502  0.19745142077E+02 -0.10871161474E+02 -0.10081487618E+03  0.10330388205E+03  0.00000000000E+00 0.  1.
</event>
<event>
 4    1  0.5953944E+003  0.2457573E+02  0.7546771E-02  0.1473606E+00
          2   -1    0    0  501    0  0.00000000000E+00  0.00000000000E+00  0.89076487769E+03  0.89076487769E+03  0.00000000000E+00 0.  1.
         -2   -1    0    0    0  501 -0.00000000000E+00 -0.00000000000E+00 -0.21170527431E+01  0.21170527431E+01  0.00000000000E+00 0.  1.
          2    1    1    2  502    0 -0.16841933683E+02  0.17897374537E+02  0.81239506849E+03  0.81276670333E+03  0.00000000000E+00 0.  1.
         -2    1    1    2    0  502  0.16841933683E+02 -0.17897374537E+02  0.76252756459E+02  0.80115227099E+02  0.00000000000E+00 0.  1.
</event>
<event>
 4    1  0.5953944E+003  0.2081871E+02  0.7546771E-02  0.1521869E+00
          2   -1    0    0  501    0  0.00000000000E+00  0.00000000000E+00  0.47108780049E+03  0.47108780049E+03  0.00000000000E+00 0. -1.
         -2   -1    0    0    0  501 -0.00000000000E+00 -0.00000000000E+00 -0.18737010971E+01  0.18737010971E+01  0.00000000000E+00 0.  1.
          2    1    1    2  502    0 -0.20817957496E+02  0.17717536796E+00  0.40331793177E+03  0.40385489082E+03  0.00000000000E+00 0. -1.
         -2    1    1    2    0  502  0.20817957496E+02 -0.17717536796E+00  0.65896167616E+02  0.69106610768E+02  0.00000000000E+00 0.  1.
</event>
<event>
 4    1  0.5953944E+003  0.2814110E+02  0.7546771E-02  0.1436470E+00
          2   -1    0    0  501    0  0.00000000000E+00  0.00000000000E+00  0.54915723638E+03  0.54915723638E+03  0.00000000000E+00 0. -1.
         -2   -1    0    0    0  501 -0.00000000000E+00 -0.00000000000E+00 -0.17113844807E+03  0.17113844807E+03  0.00000000000E+00 0.  1.
          2    1    1    2  502    0 -0.56914818764E+00 -0.28135341621E+02  0.54763666655E+03  0.54835922526E+03  0.00000000000E+00 0. -1.
         -2    1    1    2    0  502  0.56914818764E+00  0.28135341621E+02 -0.16961787825E+03  0.17193645919E+03  0.00000000000E+00 0.  1.
</event>
<event>
 4    1  0.5953944E+003  0.3256271E+02  0.7546771E-02  0.1398558E+00
          2   -1    0    0  501    0  0.00000000000E+00  0.00000000000E+00  0.10383932526E+04  0.10383932526E+04  0.00000000000E+00 0. -1.
         -2   -1    0    0    0  501 -0.00000000000E+00 -0.00000000000E+00 -0.33833338383E+01  0.33833338383E+01  0.00000000000E+00 0.  1.
          2    1    1    2  502    0  0.22668776257E+02 -0.23376414731E+02  0.95274740164E+03  0.95330369846E+03  0.00000000000E+00 0. -1.
         -2    1    1    2    0  502 -0.22668776257E+02  0.23376414731E+02  0.82262517138E+02  0.88472887986E+02  0.00000000000E+00 0.  1.
</event>
<event>
 4    1  0.5953944E+003  0.2554676E+02  0.7546771E-02  0.1462779E+00
          2   -1    0    0  501    0  0.00000000000E+00  0.00000000000E+00  0.33950761261E+01  0.33950761261E+01  0.00000000000E+00 0. -1.
         -2   -1    0    0    0  501 -0.00000000000E+00 -0.00000000000E+00 -0.84674565182E+03  0.84674565182E+03  0.00000000000E+00 0. -1.
          2    1    1    2  502    0  0.24529961024E+02 -0.71356727564E+01 -0.47957105726E+02  0.54337103375E+02  0.00000000000E+00 0. -1.
         -2    1    1    2    0  502 -0.24529961024E+02  0.71356727564E+01 -0.79539346996E+03  0.79580362457E+03  0.00000000000E+00 0. -1.
</event>
<event>
 4    1  0.5953944E+003  0.2009224E+02  0.7546771E-02  0.1532630E+00
          2   -1    0    0  501    0  0.00000000000E+00  0.00000000000E+00  0.37950129111E+03  0.37950129111E+03  0.00000000000E+00 0.  1.
         -2   -1    0    0    0  501 -0.00000000000E+00 -0.00000000000E+00 -0.11414189226E+02  0.11414189226E+02  0.00000000000E+00 0. -1.
          2    1    1    2  502    0  0.11729497941E+02 -0.16313097519E+02  0.37017061223E+03  0.37071549796E+03  0.00000000000E+00 0.  1.
         -2    1    1    2    0  502 -0.11729497941E+02  0.16313097519E+02 -0.20835103421E+01  0.20199982375E+02  0.00000000000E+00 0. -1.
</event>
<event>
 4    1  0.5953944E+003  0.4575556E+02  0.7546771E-02  0.1317704E+00
          2   -1    0    0  501    0  0.00000000000E+00  0.00000000000E+00  0.31133929632E+03  0.31133929632E+03  0.00000000000E+00 0.  1.
         -2   -1    0    0    0  501 -0.00000000000E+00 -0.00000000000E+00 -0.71940298398E+02  0.71940298398E+02  0.00000000000E+00 0. -1.
          2    1    1    2  502    0  0.16557808940E+02  0.42654545742E+02  0.30216312946E+03  0.30560780114E+03  0.00000000000E+00 0.  1.
         -2    1    1    2    0  502 -0.16557808940E+02 -0.42654545742E+02 -0.62764131543E+02  0.77671793579E+02  0.00000000000E+00 0. -1.
</event>
<event>
 4    1  0.5953944E+003  0.4607829E+02  0.7546771E-02  0.1316134E+00
          2   -1    0    0  501    0  0.00000000000E+00  0.00000000000E+00  0.33363931713E+03  0.33363931713E+03  0.00000000000E+00 0.  1.
         -2   -1    0    0    0  501 -0.00000000000E+00 -0.00000000000E+00 -0.13477196143E+02  0.13477196143E+02  0.00000000000E+00 0.  1.
          2    1    1    2  502    0  0.40212666546E+02  0.22497792707E+02  0.28617215902E+03  0.28985809256E+03  0.00000000000E+00 0.  1.
         -2    1    1    2    0  502 -0.40212666546E+02 -0.22497792707E+02  0.33989961967E+02  0.57258420707E+02  0.00000000000E+00 0.  1.
</event>
<event>
 4    1  0.5953944E+003  0.2944115E+02  0.7546771E-02  0.1424516E+00
          2   -1    0    0  501    0  0.00000000000E+00  0.00000000000E+00  0.50915094106E+03  0.50915094106E+03  0.00000000000E+00 0.  1.
         -2   -1    0    0    0  501 -0.00000000000E+00 -0.00000000000E+00 -0.25543312444E+01  0.25543312444E+01  0.00000000000E+00 0.  1.
          2    1    1    2  502    0 -0.81193540947E+01 -0.28299424290E+02  0.40105670420E+03  0.40213587418E+03  0.00000000000E+00 0.  1.
         -2    1    1    2    0  502  0.81193540947E+01  0.28299424290E+02  0.10553990562E+03  0.10956939812E+03  0.00000000000E+00 0.  1.
</event>
<event>
 4    1  0.5953944E+003  0.2150787E+02  0.7546771E-02  0.1512136E+00
          2   -1    0    0  501    0  0.00000000000E+00  0.00000000000E+00  0.24561891133E+02  0.24561891133E+02  0.00000000000E+00 0. -1.
         -2   -1    0    0    0  501 -0.00000000000E+00 -0.00000000000E+00 -0.33909658010E+02  0.33909658010E+02  0.00000000000E+00 0. -1.
          2    1    1    2  502    0  0.13815573795E+02 -0.16483883970E+02  0.14819938234E+02  0.26119323867E+02  0.00000000000E+00 0. -1.
         -2    1    1    2    0  502 -0.13815573795E+02  0.16483883970E+02 -0.24167705110E+02  0.32352225276E+02  0.00000000000E+00 0. -1.
</event>
<event>
 4    1  0.5953944E+003  0.3055980E+02  0.7546771E-02  0.1414793E+00
          2   -1    0    0  501    0  0.00000000000E+00  0.00000000000E+00  0.12537152004E+04  0.12537152004E+04  0.00000000000E+00 0. -1.
         -2   -1    0    0    0  501 -0.00000000000E+00 -0.00000000000E+00 -0.15681115035E+01  0.15681115035E+01  0.00000000000E+00 0. -1.
          2    1    1    2  502    0  0.20343312847E+02  0.22804620022E+02  0.10808282389E+04  0.10812601829E+04  0.00000000000E+00 0. -1.
         -2    1    1    2    0  502 -0.20343312847E+02 -0.22804620022E+02  0.17131885000E+03  0.17402312903E+03  0.00000000000E+00 0. -1.
</event>
<event>
 4    1  0.5953944E+003  0.2693897E+02  0.7546771E-02  0.1448222E+00
          2   -1    0    0  501    0  0.00000000000E+00  0.00000000000E+00  0.21131351009E+03  0.21131351009E+03  0.00000000000E+00 0.  1.
         -2   -1    0    0    0  501 -0.00000000000E+00 -0.00000000000E+00 -0.26060661651E+03  0.26060661651E+03  0.00000000000E+00 0.  1.
          2    1    1    2  502    0  0.26742900092E+02  0.32443104579E+01  0.20975361362E+03  0.21147644474E+03  0.00000000000E+00 0.  1.
         -2    1    1    2    0  502 -0.26742900092E+02 -0.32443104579E+01 -0.25904672004E+03  0.26044368186E+03  0.00000000000E+00 0.  1.
</event>
<event>
 4    1  0.5953944E+003  0.2359476E+02  0.7546771E-02  0.1485162E+00
          2   -1    0    0  501    0  0.00000000000E+00  0.00000000000E+00  0.17475228149E+03  0.17475228149E+03  0.00000000000E+00 0.  1.
         -2   -1    0    0    0  501 -0.00000000000E+00 -0.00000000000E+00 -0.43017429451E+01  0.43017429451E+01  0.00000000000E+00 0. -1.
          2    1    1    2  502    0  0.21072643775E+01 -0.23500468545E+02  0.13082555813E+03  0.13293622248E+03  0.00000000000E+00 0.  1.
         -2    1    1    2    0  502 -0.21072643775E+01  0.23500468545E+02  0.39624980408E+02  0.46117801956E+02  0.00000000000E+00 0. -1.
</event>
<event>
 4    1  0.5953944E+003  0.2179554E+02  0.7546771E-02  0.1508203E+00
          2   -1    0    0  501    0  0.00000000000E+00  0.00000000000E+00  0.15661831399E+03  0.15661831399E+03  0.00000000000E+00 0.  1.
         -2   -1    0    0    0  501 -0.00000000000E+00 -0.00000000000E+00 -0.19607325575E+02  0.19607325575E+02  0.00000000000E+00 0.  1.
          2    1    1    2  502    0  0.16392822311E+02  0.14363882733E+02  0.14951686450E+03  0.15109711619E+03  0.00000000000E+00 0.  1.
         -2    1    1    2    0  502 -0.16392822311E+02 -0.14363882733E+02 -0.12505876085E+02  0.25128523377E+02  0.00000000000E+00 0.  1.
</event>
<event>
 4    1  0.5953944E+003  0.5907378E+02  0.7546771E-02  0.1263012E+00
          2   -1    0    0  501    0  0.00000000000E+00  0.00000000000E+00  0.89758994942E+02  0.89758994942E+02  0.00000000000E+00 0.  1.
         -2   -1    0    0    0  501 -0.00000000000E+00 -0.00000000000E+00 -0.38927730793E+02  0.38927730793E+02  0.00000000000E+00 0. -1.
          2    1    1    2  502    0 -0.36602090804E+02 -0.46368034560E+02  0.23130702597E+02  0.63440815591E+02  0.00000000000E+00 0.  1.
         -2    1    1    2    0  502  0.36602090804E+02  0.46368034560E+02  0.27700561551E+02  0.65245910144E+02  0.00000000000E+00 0. -1.
</event>
<event>
 4    1  0.5953944E+003  0.2112585E+02  0.7546771E-02  0.1517476E+00
          2   -1    0    0  501    0  0.00000000000E+00  0.00000000000E+00  0.12754078687E+03  0.12754078687E+03  0.00000000000E+00 0.  1.
         -2   -1    0    0    0  501 -0.00000000000E+00 -0.00000000000E+00 -0.39264381389E+01  0.39264381389E+01  0.00000000000E+00 0.  1.
          2    1    1    2  502    0  0.56776959406E+01  0.20348594348E+02  0.83488212735E+02  0.86119586558E+02  0.00000000000E+00 0.  1.
         -2    1    1    2    0  502 -0.56776959406E+01 -0.20348594348E+02  0.40126135997E+02  0.45347638452E+02  0.00000000000E+00 0.  1.
</event>
<event>
 4    1  0.5953944E+003  0.2957665E+02  0.7546771E-02  0.1423311E+00
          2   -1    0    0  501    0  0.00000000000E+00  0.00000000000E+00  0.13818462279E+04  0.13818462279E+04  0.00000000000E+00 0. -1.
         -2   -1    0    0    0  501 -0.00000000000E+00 -0.00000000000E+00 -0.27667991101E+01  0.27667991101E+01  0.00000000000E+00 0. -1.
          2    1    1    2  502    0 -0.28924986706E+02 -0.61744032062E+01  0.12975084608E+04  0.12978455162E+04  0.00000000000E+00 0. -1.
         -2    1    1    2    0  502  0.28924986706E+02  0.61744032062E+01  0.81570967998E+02  0.86767510803E+02  0.00000000000E+00 0. -1.
</event>
<event>
 4    1  0.5953944E+003  0.3680059E+02  0.7546771E-02  0.1368328E+00
          2   -1    0    0  501    0  0.00000000000E+00  0.00000000000E+00  0.36659397666E+03  0.36659397666E+03  0.00000000000E+00 0. -1.
         -2   -1    0    0    0  501 -0.00000000000E+00 -0.00000000000E+00 -0.37396726178E+01  0.37396726178E+01  0.00000000000E+00 0. -1.
          2    1    1    2  502    0  0.79226842793E+01  0.35937629874E+02  0.16101532126E+03  0.16516723600E+03  0.00000000000E+00 0. -1.
         -2    1    1    2    0  502 -0.79226842793E+01 -0.35937629874E+02  0.20183898278E+03  0.20516641327E+03  0.00000000000E+00 0. -1.
</event>
<event>
 4    1  0.5953944E+003  0.4374991E+02  0.7546771E-02  0.1327810E+00
          2   -1    0    0  501    0  0.00000000000E+00  0.00000000000E+00  0.14085968049E+02  0.14085968049E+02  0.00000000000E+00 0. -1.
         -2   -1    0    0    0  501 -0.00000000000E+00 -0.00000000000E+00 -0.15287209236E+03  0.15287209236E+03  0.00000000000E+00 0. -1.
          2    1    1    2  502    0  0.37924994359E+02  0.21811688213E+02 -0.41564671870E+02  0.60346307985E+02  0.00000000000E+00 0. -1.
         -2    1    1    2    0  502 -0.37924994359E+02 -0.21811688213E+02 -0.97221452441E+02  0.10661175242E+03  0.00000000000E+00 0. -1.
</event>
<event>
 4    1  0.5953944E+003  0.2551424E+02  0.7546771E-02  0.1463132E+00
          2   -1    0    0  501    0  0.00000000000E+00  0.00000000000E+00  0.24183021284E+03  0.24183021284E+03  0.00000000000E+00 0.  1.
         -2   -1    0    0    0  501 -0.00000000000E+00 -0.00000000000E+00 -0.75936054598E+02  0.75936054598E+02  0.00000000000E+00 0. -1.
          2    1    1    2  502    0  0.17165078514E+02  0.18876882758E+02  0.23898866053E+03  0.24034674220E+03  0.00000000000E+00 0.  1.
         -2    1    1    2    0  502 -0.17165078514E+02 -0.18876882758E+02 -0.73094502290E+02  0.77419525238E+02  0.00000000000E+00 0. -1.
</event>
<event>
 4    1  0.5953944E+003  0.2955655E+02  0.7546771E-02  0.1423490E+00
          2   -1    0    0  501    0  0.00000000000E+00  0.00000000000E+00  0.30211219324E+02  0.30211219324E+02  0.00000000000E+00 0.  1.
         -2   -1    0    0    0  501 -0.00000000000E+00 -0.00000000000E+00 -0.28945586591E+02  0.28945586591E+02  0.00000000000E+00 0.  1.
          2    1    1    2  502    0 -0.28883105151E+02 -0.62733474365E+01 -0.31228815464E+00  0.29558182880E+02  0.00000000000E+00 0.  1.
         -2    1    1    2    0  502  0.28883105151E+02  0.62733474365E+01  0.15779208872E+01  0.29598623035E+02  0.00000000000E+00 0.  1.
</event>
<event>
 4    1  0.5953944E+003  0.2113483E+02  0.7546771E-02  0.1517348E+00
          2   -1    0    0  501    0  0.00000000000E+00  0.00000000000E+00  0.47542677020E+03  0.47542677020E+03  0.00000000000E+00 0. -1.
         -2   -1    0    0    0  501 -0.00000000000E+00 -0.00000000000E+00 -0.10771204776E+01  0.10771204776E+01  0.00000000000E+00 0.  1.
          2    1    1    2  502    0  0.76137395721E+01 -0.19715781141E+02  0.32232536476E+03  0.32301752556E+03  0.00000000000E+00 0. -1.
         -2    1    1    2    0  502 -0.76137395721E+01  0.19715781141E+02  0.15202428496E+03  0.15348636511E+03  0.00000000000E+00 0.  1.
</event>
<event>
 4    1  0.5953944E+003  0.2701706E+02  0.7546771E-02  0.1447437E+00
          2   -1    0    0  501    0  0.00000000000E+00  0.00000000000E+00  0.20276323879E+03  0.20276323879E+03  0.00000000000E+00 0.  1.
         -2   -1    0    0    0  501 -0.00000000000E+00 -0.00000000000E+00 -0.14505515342E+02  0.14505515342E+02  0.00000000000E+00 0. -1.
          2    1    1    2  502    0  0.25825661800E+02 -0.79345232369E+01  0.18832353970E+03  0.19025161516E+03  0.00000000000E+00 0.  1.
         -2    1    1    2    0  502 -0.25825661800E+02  0.79345232369E+01 -0.65816250861E-01  0.27017138971E+02  0.00000000000E+00 0. -1.
</event>
<event>
 4    1  0.5953944E+003  0.2746494E+02  0.7546771E-02  0.1442993E+00
          2   -1    0    0  501    0  0.00000000000E+00  0.00000000000E+00  0.11590116916E+03  0.11590116916E+03  0.00000000000E+00 0.  1.
         -2   -1    0    0    0  501 -0.00000000000E+00 -0.00000000000E+00 -0.71696785709E+01  0.71696785709E+01  0.00000000000E+00 0.  1.
          2    1    1    2  502    0 -0.12393343038E+02  0.24509748808E+02  0.73054977677E+02  0.78047117190E+02  0.00000000000E+00 0.  1.
         -2    1    1    2    0  502  0.12393343038E+02 -0.24509748808E+02  0.35676512915E+02  0.45023730544E+02  0.00000000000E+00 0.  1.
</event>
<event>
 4    1  0.5953944E+003  0.2001280E+02  0.7546771E-02  0.1533840E+00
          2   -1    0    0  501    0  0.00000000000E+00  0.00000000000E+00  0.81173180923E+03  0.81173180923E+03  0.00000000000E+00 0.  1.
         -2   -1    0    0    0  501 -0.00000000000E+00 -0.00000000000E+00 -0.63225361482E+02  0.63225361482E+02  0.00000000000E+00 0.  1.
          2    1    1    2  502    0  0.66395792920E+01 -0.18879309942E+02  0.81002144492E+03  0.81026863051E+03  0.00000000000E+00 0.  1.
         -2    1    1    2    0  502 -0.66395792920E+01  0.18879309942E+02 -0.61514997170E+02  0.64688540205E+02  0.00000000000E+00 0.  1.
</event>
<event>
 4    1  0.5953944E+003  0.2269064E+02  0.7546771E-02  0.1496420E+00
          2   -1    0    0  501    0  0.00000000000E+00  0.00000000000E+00  0.72967320186E+03  0.72967320186E+03  0.00000000000E+00 0. -1.
         -2   -1    0    0    0  501 -0.00000000000E+00 -0.00000000000E+00 -0.19876021896E+01  0.19876021896E+01  0.00000000000E+00 0.  1.
          2    1    1    2  502    0 -0.56367751277E+01  0.21979356767E+02  0.65764672925E+03  0.65803805806E+03  0.00000000000E+00 0. -1.
         -2    1    1    2    0  502  0.56367751277E+01 -0.21979356767E+02  0.70038870413E+02  0.73622745985E+02  0.00000000000E+00 0.  1.
</event>
<event>
 4    1  0.5953944E+003  0.2024676E+02  0.7546771E-02  0.1530296E+00
          2   -1    0    0  501    0  0.00000000000E+00  0.00000000000E+00  0.18342920471E+03  0.18342920471E+03  0.00000000000E+00 0. -1.
         -2   -1    0    0    0  501 -0.00000000000E+00 -0.00000000000E+00 -0.37848743885E+02  0.37848743885E+02  0.00000000000E+00 0. -1.
          2    1    1    2  502    0  0.12018720236E+02  0.16293612413E+02  0.18011310892E+03  0.18124751984E+03  0.00000000000E+00 0. -1.
         -2    1    1    2    0  502 -0.12018720236E+02 -0.16293612413E+02 -0.34532648099E+02  0.40030428755E+02  0.00000000000E+00 0. -1.
</event>
<event>
 4    1  0.5953944E+003  0.4794388E+02  0.7546771E-02  0.1307342E+00
          2   -1    0    0  501    0  0.00000000000E+00  0.00000000000E+00  0.57459481991E+02  0.57459481991E+02  0.00000000000E+00 0. -1.
         -2   -1    0    0    0  501 -0.00000000000E+00 -0.00000000000E+00 -0.40783143599E+02  0.40783143599E+02  0.00000000000E+00 0. -1.
          2    1    1    2  502    0 -0.10282693122E+02 -0.46828211425E+02  0.15127219773E+02  0.50273730130E+02  0.00000000000E+00 0. -1.
         -2    1    1    2    0  502  0.10282693122E+02  0.46828211425E+02  0.15491186184E+01  0.47968895459E+02  0.00000000000E+00 0. -1.
</event>
<event>
 4    1  0.5953944E+003  0.4478267E+02  0.7546771E-02  0.1322530E+00
          2   -1    0    0  501    0  0.00000000000E+00  0.00000000000E+00  0.42052798655E+03  0.42052798655E+03  0.00000000000E+00 0. -1.
         -2   -1    0    0    0  501 -0.00000000000E+00 -0.00000000000E+00 -0.56996099129E+01  0.56996099129E+01  0.00000000000E+00 0.  1.
          2    1    1    2  502    0 -0.43596066613E+02 -0.10240630556E+02  0.29352915283E+03  0.29692566595E+03  0.00000000000E+00 0. -1.
         -2    1    1    2    0  502  0.43596066613E+02  0.10240630556E+02  0.12129922381E+03  0.12930193051E+03  0.00000000000E+00 0.  1.
</event>
<event>
 4    1  0.6071481E+003  0.2095175E+02  0.7546771E-02  0.1519955E+00
          2   -1    0    0  501    0  0.00000000000E+00  0.00000000000E+00  0.10413085861E+04  0.10413085861E+04  0.00000000000E+00 0.  1.
         -2   -1    0    0    0  501 -0.00000000000E+00 -0.00000000000E+00 -0.10137368661E+03  0.10137368661E+03  0.00000000000E+00 0. -1.
          2    1    1    2  502    0  0.19163269704E+02 -0.84702303029E+01  0.10401193899E+04  0.10403303903E+04  0.00000000000E+00 0.  1.
         -2    1    1    2    0  502 -0.19163269704E+02  0.84702303029E+01 -0.10018449043E+03  0.10235188240E+03  0.00000000000E+00 0. -1.
</event>
<event>
 4    1  0.5953944E+003  0.2221683E+02  0.7546771E-02  0.1502574E+00
          2   -1    0    0  501    0  0.00000000000E+00  0.00000000000E+00  0.22569363067E+02  0.22569363067E+02  0.00000000000E+00 0. -1.
         -2   -1    0    0    0  501 -0.00000000000E+00 -0.00000000000E+00 -0.18668618509E+03  0.18668618509E+03  0.00000000000E+00 0.  1.
          2    1    1    2  502    0 -0.40889595556E+01 -0.21837301212E+02  0.16250094950E+02  0.27525495461E+02  0.00000000000E+00 0. -1.
         -2    1    1    2    0  502  0.40889595556E+01  0.21837301212E+02 -0.18036691697E+03  0.18173005269E+03  0.00000000000E+00 0.  1.
</event>
<event>
 4    1  0.5953944E+003  0.2292496E+02  0.7546771E-02  0.1493443E+00
          2   -1    0    0  501    0  0.00000000000E+00  0.00000000000E+00  0.97732663711E+03  0.97732663711E+03  0.00000000000E+00 0. -1.
         -2   -1    0    0    0  501 -0.00000000000E+00 -0.00000000000E+00 -0.37185083962E+01  0.37185083962E+01  0.00000000000E+00 0. -1.
          2    1    1    2  502    0  0.22400736226E+01  0.22815254034E+02  0.94047422003E+03  0.94075358745E+03  0.00000000000E+00 0. -1.
         -2    1    1    2    0  502 -0.22400736226E+01 -0.22815254034E+02  0.33133908685E+02  0.40291558064E+02  0.00000000000E+00 0. -1.
</event>
<event>
 4    1  0.5953944E+003  0.3889450E+02  0.7546771E-02  0.1355089E+00
          2   -1    0    0  501    0  0.00000000000E+00  0.00000000000E+00  0.10517332784E+04  0.10517332784E+04  0.00000000000E+00 0. -1.
         -2   -1    0    0    0  501 -0.00000000000E+00 -0.00000000000E+00 -0.33650563688E+01  0.33650563688E+01  0.00000000000E+00 0.  1.
          2    1    1    2  502    0  0.26268846839E+02 -0.28683262212E+02  0.92336731141E+03  0.92418611417E+03  0.00000000000E+00 0. -1.
         -2    1    1    2    0  502 -0.26268846839E+02  0.28683262212E+02  0.12500091058E+03  0.13091222056E+03  0.00000000000E+00 0.  1.
</event>
<event>
 4    1  0.5953944E+003  0.2292694E+02  0.7546771E-02  0.1493418E+00
          2   -1    0    0  501    0  0.00000000000E+00  0.00000000000E+00  0.74634983949E+03  0.74634983949E+03  0.00000000000E+00 0. -1.
         -2   -1    0    0    0  501 -0.00000000000E+00 -0.00000000000E+00 -0.46293627994E+02  0.46293627994E+02  0.00000000000E+00 0. -1.
          2    1    1    2  502    0  0.15071499558E+02 -0.17276992105E+02  0.74332356938E+03  0.74367706254E+03  0.00000000000E+00 0. -1.
         -2    1    1    2    0  502 -0.15071499558E+02  0.17276992105E+02 -0.43267357882E+02  0.48966404945E+02  0.00000000000E+00 0. -1.
</event>
<event>
 4    1  0.5953944E+003  0.5512422E+02  0.7546771E-02  0.1277364E+00
          2   -1    0    0  501    0  0.00000000000E+00  0.00000000000E+00  0.27728609563E+04  0.27728609563E+04  0.00000000000E+00 0.  1.
         -2   -1    0    0    0  501 -0.00000000000E+00 -0.00000000000E+00 -0.16180677689E+01  0.16180677689E+01  0.00000000000E+00 0.  1.
          2    1    1    2  502    0 -0.12290920384E+02  0.53736512559E+02  0.21737062357E+04  0.21744050862E+04  0.00000000000E+00 0.  1.
         -2    1    1    2    0  502  0.12290920384E+02 -0.53736512559E+02  0.59753665278E+03  0.60007393788E+03  0.00000000000E+00 0.  1.
</event>
<event>
 4    1  0.5953944E+003  0.5377319E+02  0.7546771E-02  0.1282593E+00
          2   -1    0    0  501    0  0.00000000000E+00  0.00000000000E+00  0.11085752662E+04  0.11085752662E+04  0.00000000000E+00 0. -1.
         -2   -1    0    0    0  501 -0.00000000000E+00 -0.00000000000E+00 -0.51550244248E+03  0.51550244248E+03  0.00000000000E+00 0. -1.
          2    1    1    2  502    0  0.46994276045E+02 -0.26136064709E+02  0.11065182728E+04  0.11078241033E+04  0.00000000000E+00 0. -1.
         -2    1    1    2    0  502 -0.46994276045E+02  0.26136064709E+02 -0.51344544908E+03  0.51625360535E+03  0.00000000000E+00 0. -1.
</event>
<event>
 4    1  0.5953944E+003  0.2551249E+02  0.7546771E-02  0.1463151E+00
          2   -1    0    0  501    0  0.00000000000E+00  0.00000000000E+00  0.94343531026E+01  0.94343531026E+01  0.00000000000E+00 0.  1.
         -2   -1    0    0    0  501 -0.00000000000E+00 -0.00000000000E+00 -0.14322437915E+03  0.14322437915E+03  0.00000000000E+00 0.  1.
          2    1    1    2  502    0 -0.11905512354E+02  0.22564263828E+02 -0.11943171928E+02  0.28169603871E+02  0.00000000000E+00 0.  1.
         -2    1    1    2    0  502  0.11905512354E+02 -0.22564263828E+02 -0.12184685412E+03  0.12448912838E+03  0.00000000000E+00 0.  1.
</event>
<event>
 4    1  0.5953944E+003  0.2818295E+02  0.7546771E-02  0.1436074E+00
          2   -1    0    0  501    0  0.00000000000E+00  0.00000000000E+00  0.13940264004E+03  0.13940264004E+03  0.00000000000E+00 0. -1.
         -2   -1    0    0    0  501 -0.00000000000E+00 -0.00000000000E+00 -0.66549653423E+01  0.66549653423E+01  0.00000000000E+00 0.  1.
          2    1    1    2  502    0 -0.12933008969E+02  0.25040288850E+02  0.94070685306E+02  0.98201693573E+02  0.00000000000E+00 0. -1.
         -2    1    1    2    0  502  0.12933008969E+02 -0.25040288850E+02  0.38676989392E+02  0.47855911809E+02  0.00000000000E+00 0.  1.
</event>
<event>
 4    1  0.5953944E+003  0.2033120E+02  0.7546771E-02  0.1529031E+00
          2   -1    0    0  501    0  0.00000000000E+00  0.00000000000E+00  0.43536089273E+01  0.43536089273E+01  0.00000000000E+00 0.  1.
         -2   -1    0    0    0  501 -0.00000000000E+00 -0.00000000000E+00 -0.10795577249E+03  0.10795577249E+03  0.00000000000E+00 0.  1.
          2    1    1    2  502    0 -0.13421742459E+02  0.15271364556E+02 -0.32307215474E+02  0.38172161554E+02  0.00000000000E+00 0.  1.
         -2    1    1    2    0  502  0.13421742459E+02 -0.15271364556E+02 -0.71294948084E+02  0.74137219858E+02  0.00000000000E+00 0.  1.
</event>
<event>
 4    1  0.5953944E+003  0.2877626E+02  0.7546771E-02  0.1430537E+00
          2   -1    0    0  501    0  0.00000000000E+00  0.00000000000E+00  0.12974017881E+02  0.12974017881E+02  0.00000000000E+00 0.  1.
         -2   -1    0    0    0  501 -0.00000000000E+00 -0.00000000000E+00 -0.73005861570E+02  0.73005861570E+02  0.00000000000E+00 0. -1.
          2    1    1    2  502    0  0.68884380185E+01 -0.27939626186E+02 -0.14771264724E+02  0.32345997454E+02  0.00000000000E+00 0.  1.
         -2    1    1    2    0  502 -0.68884380185E+01  0.27939626186E+02 -0.45260578965E+02  0.53633881996E+02  0.00000000000E+00 0. -1.
</event>
<event>
 4    1  0.5953944E+003  0.3115730E+02  0.7546771E-02  0.1409799E+00
          2   -1    0    0  501    0  0.00000000000E+00  0.00000000000E+00  0.83406398287E+03  0.83406398287E+03  0.00000000000E+00 0.  1.
         -2   -1    0    0    0  501 -0.00000000000E+00 -0.00000000000E+00 -0.11897813326E+01  0.11897813326E+01  0.00000000000E+00 0.  1.
          2    1    1    2  502    0  0.15623587754E+02 -0.26957016111E+02  0.47801801600E+03  0.47903235886E+03  0.00000000000E+00 0.  1.
         -2    1    1    2    0  502 -0.15623587754E+02  0.26957016111E+02  0.35485618554E+03  0.35622140535E+03  0.00000000000E+00 0.  1.
</event>
<event>
 4    1  0.5953944E+003  0.2665497E+02  0.7546771E-02  0.1451105E+00
          2   -1    0    0  501    0  0.00000000000E+00  0.00000000000E+00  0.11515131404E+04  0.11515131404E+04  0.00000000000E+00 0. -1.
         -2   -1    0    0    0  501 -0.00000000000E+00 -0.00000000000E+00 -0.87519942030E+01  0.87519942030E+01  0.00000000000E+00 0.  1.
          2    1    1    2  502    0  0.11384668357E+02 -0.24101390280E+02  0.11306901621E+04  0.11310043017E+04  0.00000000000E+00 0. -1.
         -2    1    1    2    0  502 -0.11384668357E+02  0.24101390280E+02  0.12070984072E+02  0.29260832925E+02  0.00000000000E+00 0.  1.
</event>
<event>
 4    1  0.5953944E+003  0.2164044E+02  0.7546771E-02  0.1510314E+00
          2   -1    0    0  501    0  0.00000000000E+00  0.00000000000E+00  0.15561400204E+04  0.15561400204E+04  0.00000000000E+00 0. -1.
         -2   -1    0    0    0  501 -0.00000000000E+00 -0.00000000000E+00 -0.36437049970E+00  0.36437049970E+00  0.00000000000E+00 0. -1.
          2    1    1    2  502    0  0.42676976270E+01  0.21215448963E+02  0.11025932831E+04  0.11028056295E+04  0.00000000000E+00 0. -1.
         -2    1    1    2    0  502 -0.42676976270E+01 -0.21215448963E+02  0.45318236682E+03  0.45369876142E+03  0.00000000000E+00 0. -1.
</event>
<event>
 4    1  0.5953944E+003  0.3332790E+02  0.7546771E-02  0.1392716E+00
          2   -1    0    0  501    0  0.00000000000E+00  0.00000000000E+00  0.83479776186E+02  0.83479776186E+02  0.00000000000E+00 0.  1.
         -2   -1    0    0    0  501 -0.00000000000E+00 -0.00000000000E+00 -0.26539165243E+03  0.26539165243E+03  0.00000000000E+00 0. -1.
          2    1    1    2  502    0 -0.26519538138E+02  0.20185713287E+02  0.79050818960E+02  0.85789165413E+02  0.00000000000E+00 0.  1.
         -2    1    1    2    0  502  0.26519538138E+02 -0.20185713287E+02 -0.26096269521E+03  0.26308226321E+03  0.00000000000E+00 0. -1.
</event>
<event>
 4    1  0.5953944E+003  0.4060597E+02  0.7546771E-02  0.1344971E+00
          2   -1    0    0  501    0  0.00000000000E+00  0.00000000000E+00  0.47999903980E+03  0.47999903980E+03  0.00000000000E+00 0.  1.
         -2   -1    0    0    0  501 -0.00000000000E+00 -0.00000000000E+00 -0.20878262658E+02  0.20878262658E+02  0.00000000000E+00 0.  1.
          2    1    1    2  502    0 -0.99494658936E+01  0.39368169799E+02  0.45847145782E+03  0.46026614290E+03  0.00000000000E+00 0.  1.
         -2    1    1    2    0  502  0.99494658936E+01 -0.39368169799E+02  0.64931932097E+00  0.40611159556E+02  0.00000000000E+00 0.  1.
</event>
<event>
 4    1  0.5953944E+003  0.2557063E+02  0.7546771E-02  0.1462520E+00
          2   -1    0    0  501    0  0.00000000000E+00  0.00000000000E+00  0.22388727218E+03  0.22388727218E+03  0.00000000000E+00 0. -1.
         -2   -1    0    0    0  501 -0.00000000000E+00 -0.00000000000E+00 -0.90239318521E+02  0.90239318521E+02  0.00000000000E+00 0. -1.
          2    1    1    2  502    0  0.10038951474E+02  0.23517581151E+02  0.22132479707E+03  0.22279704434E+03  0.00000000000E+00 0. -1.
         -2    1    1    2    0  502 -0.10038951474E+02 -0.23517581151E+02 -0.87676843404E+02  0.91329546365E+02  0.00000000000E+00 0. -1.
</event>
<event>
 4    1  0.5953944E+003  0.3251103E+02  0.7546771E-02  0.1398960E+00
          2   -1    0    0  501    0  0.00000000000E+00  0.00000000000E+00  0.18027230874E+04  0.18027230874E+04  0.00000000000E+00 0.  1.
         -2   -1    0    0    0  501 -0.00000000000E+00 -0.00000000000E+00 -0.30615425025E+01  0.30615425025E+01  0.00000000000E+00 0.  1.
          2    1    1    2  502    0  0.32049805238E+02  0.54568408899E+01  0.17116759189E+04  0.17119846431E+04  0.00000000000E+00 0.  1.
         -2    1    1    2    0  502 -0.32049805238E+02 -0.54568408899E+01  0.87985626049E+02  0.93799986778E+02  0.00000000000E+00 0.  1.
</event>
<event>
 4    1  0.5953944E+003  0.2451404E+02  0.7546771E-02  0.1474314E+00
          2   -1    0    0  501    0  0.00000000000E+00  0.00000000000E+00  0.96718091141E+02  0.96718091141E+02  0.00000000000E+00 0.  1.
         -2   -1    0    0    0  501 -0.00000000000E+00 -0.00000000000E+00 -0.89454510627E+01  0.89454510627E+01  0.00000000000E+00 0.  1.
          2    1    1    2  502    0  0.10116416214E+02 -0.22329268427E+02  0.73083892102E+02  0.77085623759E+02  0.00000000000E+00 0.  1.
         -2    1    1    2    0  502 -0.10116416214E+02  0.22329268427E+02  0.14688747977E+02  0.28577918445E+02  0.00000000000E+00 0.  1.
</event>
<event>
 4    1  0.5953944E+003  0.2490196E+02  0.7546771E-02  0.1469903E+00
          2   -1    0    0  501    0  0.00000000000E+00  0.00000000000E+00  0.13645957820E+04  0.13645957820E+04  0.00000000000E+00 0.  1.
         -2   -1    0    0    0  501 -0.00000000000E+00 -0.00000000000E+00 -0.81750578195E+01  0.81750578195E+01  0.00000000000E+00 0. -1.
          2    1    1    2  502    0  0.40324753657E+01 -0.24573289033E+02  0.13452460387E+04  0.13454765000E+04  0.00000000000E+00 0.  1.
         -2    1    1    2    0  502 -0.40324753657E+01  0.24573289033E+02  0.11174685494E+02  0.27294339841E+02  0.00000000000E+00 0. -1.
</event>
<event>
 4    1  0.5953944E+003  0.3060848E+02  0.7546771E-02  0.1414381E+00
          2   -1    0    0  501    0  0.00000000000E+00  0.00000000000E+00  0.22419854517E+04  0.22419854517E+04  0.00000000000E+00 0.  1.
         -2   -1    0    0    0  501 -0.00000000000E+00 -0.00000000000E+00 -0.23893099743E+01  0.23893099743E+01  0.00000000000E+00 0.  1.
          2    1    1    2  502    0  0.26981117220E+02  0.14453324254E+02  0.21391400021E+04  0.21393589759E+04  0.00000000000E+00 0.  1.
         -2    1    1    2    0  502 -0.26981117220E+02 -0.14453324254E+02  0.10045613957E+03  0.10501578570E+03  0.00000000000E+00 0.  1.
</event>
<event>
 4    1  0.5953944E+003  0.3540990E+02  0.7546771E-02  0.1377704E+00
          2   -1    0    0  501    0  0.00000000000E+00  0.00000000000E+00  0.16342128292E+04  0.16342128292E+04  0.00000000000E+00 0. -1.
         -2   -1    0    0    0  501 -0.00000000000E+00 -0.00000000000E+00 -0.96313133455E+00  0.96313133455E+00  0.00000000000E+00 0. -1.
          2    1    1    2  502    0 -0.23042347329E+02  0.26887008825E+02  0.11853312329E+04  0.11858600224E+04  0.00000000000E+00 0. -1.
         -2    1    1    2    0  502  0.23042347329E+02 -0.26887008825E+02  0.44791846496E+03  0.44931593814E+03  0.00000000000E+00 0. -1.
</event>
<event>
 4    1  0.5953944E+003  0.2106047E+02  0.7546771E-02  0.1518403E+00
          2   -1    0    0  501    0  0.00000000000E+00  0.00000000000E+00  0.46454543353E+03  0.46454543353E+03  0.00000000000E+00 0. -1.
         -2   -1    0    0    0  501 -0.00000000000E+00 -0.00000000000E+00 -0.17953080825E+01  0.17953080825E+01  0.00000000000E+00 0.  1.
          2    1    1    2  502    0  0.51134294034E+01 -0.20430262125E+02  0.71832077339E+02  0.74855795404E+02  0.00000000000E+00 0.  1.
         -2    1    1    2    0  502 -0.51134294034E+01  0.20430262125E+02  0.39091804811E+03  0.39148494621E+03  0.00000000000E+00 0. -1.
</event>
<event>
 4    1  0.5953944E+003  0.2677955E+02  0.7546771E-02  0.1449835E+00
          2   -1    0    0  501    0  0.00000000000E+00  0.00000000000E+00  0.10079447721E+04  0.10079447721E+04  0.00000000000E+00 0.  1.
         -2   -1    0    0    0  501 -0.00000000000E+00 -0.00000000000E+00 -0.27451207958E+02  0.27451207958E+02  0.00000000000E+00 0.  1.
          2    1    1    2  502    0  0.23304872226E+02 -0.13191945535E+02  0.10011917718E+04  0.10015498532E+04  0.00000000000E+00 0.  1.
         -2    1    1    2    0  502 -0.23304872226E+02  0.13191945535E+02 -0.20698207727E+02  0.33846126804E+02  0.00000000000E+00 0.  1.
</event>
<event>
 4    1  0.5953944E+003  0.2287281E+02  0.7546771E-02  0.1494102E+00
          2   -1    0    0  501    0  0.00000000000E+00  0.00000000000E+00  0.76398186979E+01  0.76398186979E+01  0.00000000000E+00 0.  1.
         -2   -1    0    0    0  501 -0.00000000000E+00 -0.00000000000E+00 -0.79152244319E+02  0.79152244319E+02  0.00000000000E+00 0. -1.
          2    1    1    2  502    0 -0.22271354356E+02  0.52107602283E+01 -0.19820493267E+02  0.30265776057E+02  0.00000000000E+00 0.  1.
         -2    1    1    2    0  502  0.22271354356E+02 -0.52107602283E+01 -0.51691932354E+02  0.56526286960E+02  0.00000000000E+00 0. -1.
</event>
<event>
 4    1  0.5953944E+003  0.2111066E+02  0.7546771E-02  0.1517691E+00
          2   -1    0    0  501    0  0.00000000000E+00  0.00000000000E+00  0.25350954850E+02  0.25350954850E+02  0.00000000000E+00 0. -1.
         -2   -1    0    0    0  501 -0.00000000000E+00 -0.00000000000E+00 -0.31919520044E+03  0.31919520044E+03  0.00000000000E+00 0. -1.
          2    1    1    2  502    0  0.20921841472E+01  0.21006735324E+02  0.20539818662E+02  0.29454105217E+02  0.00000000000E+00 0. -1.
         -2    1    1    2    0  502 -0.20921841472E+01 -0.21006735324E+02 -0.31438406426E+03  0.31509205008E+03  0.00000000000E+00 0. -1.
</event>
<event>
 4    1  0.5953944E+003  0.2160480E+02  0.7546771E-02  0.1510802E+00
          2   -1    0    0  501    0  0.00000000000E+00  0.00000000000E+00  0.12318207885E+01  0.12318207885E+01  0.00000000000E+00 0. -1.
         -2   -1    0    0    0  501 -0.00000000000E+00 -0.00000000000E+00 -0.10986119171E+04  0.10986119171E+04  0.00000000000E+00 0.  1.
          2    1    1    2  502    0  0.19300030828E+02 -0.97095933220E+01 -0.10359709822E+03  0.10582592381E+03  0.00000000000E+00 0. -1.
         -2    1    1    2    0  502 -0.19300030828E+02  0.97095933220E+01 -0.99378299807E+03  0.99401781405E+03  0.00000000000E+00 0.  1.
</event>
<event>
 4    1  0.5953944E+003  0.2100108E+02  0.7546771E-02  0.1519249E+00
          2   -1    0    0  501    0  0.00000000000E+00  0.00000000000E+00  0.18102572380E+01  0.18102572380E+01  0.00000000000E+00 0. -1.
         -2   -1    0    0    0  501 -0.00000000000E+00 -0.00000000000E+00 -0.84351308870E+03  0.84351308870E+03  0.00000000000E+00 0. -1.
          2    1    1    2  502    0  0.71718987975E+01 -0.19738521879E+02 -0.64418516469E+02  0.67755373531E+02  0.00000000000E+00 0. -1.
         -2    1    1    2    0  502 -0.71718987975E+01  0.19738521879E+02 -0.77728431500E+03  0.77756797241E+03  0.00000000000E+00 0. -1.
</event>
<event>
 4    1  0.5953944E+003  0.2290154E+02  0.7546771E-02  0.1493738E+00
          2   -1    0    0  501    0  0.00000000000E+00  0.00000000000E+00  0.15032588952E+01  0.15032588952E+01  0.00000000000E+00 0.  1.
         -2   -1    0    0    0  501 -0.00000000000E+00 -0.00000000000E+00 -0.51156054700E+03  0.51156054700E+03  0.00000000000E+00 0. -1.
          2    1    1    2  502    0 -0.20084443965E+02 -0.11004342497E+02 -0.11037152103E+03  0.11272246049E+03  0.00000000000E+00 0.  1.
         -2    1    1    2    0  502  0.20084443965E+02  0.11004342497E+02 -0.39968576707E+03  0.40034134541E+03  0.00000000000E+00 0. -1.
</event>
<event>
 4    1  0.5953944E+003  0.2541350E+02  0.7546771E-02  0.1464230E+00
          2   -1    0    0  501    0  0.00000000000E+00  0.00000000000E+00  0.26140679318E+03  0.26140679318E+03  0.00000000000E+00 0. -1.
         -2   -1    0    0    0  501 -0.00000000000E+00 -0.00000000000E+00 -0.11045994091E+02  0.11045994091E+02  0.00000000000E+00 0.  1.
          2    1    1    2  502    0 -0.23967347756E+02  0.84505691437E+01  0.24520893839E+03  0.24652235060E+03  0.00000000000E+00 0. -1.
         -2    1    1    2    0  502  0.23967347756E+02 -0.84505691437E+01  0.51518606938E+01  0.25930436670E+02  0.00000000000E+00 0.  1.
</event>
<event>
 4    1  0.5953944E+003  0.2602838E+02  0.7546771E-02  0.1457620E+00
          2   -1    0    0  501    0  0.00000000000E+00  0.00000000000E+00  0.65176043853E+00  0.65176043853E+00  0.00000000000E+00 0. -1.
         -2   -1    0    0    0  501 -0.00000000000E+00 -0.00000000000E+00 -0.12755596214E+04  0.12755596214E+04  0.00000000000E+00 0. -1.
          2    1    1    2  502    0  0.76421884251E+00 -0.26017162127E+02 -0.36292196748E+03  0.36385413456E+03  0.00000000000E+00 0. -1.
         -2    1    1    2    0  502 -0.76421884251E+00  0.26017162127E+02 -0.91198589344E+03  0.91235724724E+03  0.00000000000E+00 0. -1.
</event>
<event>
 4    1  0.5953944E+003  0.2051349E+02  0.7546771E-02  0.1526326E+00
          2   -1    0    0  501    0  0.00000000000E+00  0.00000000000E+00  0.32552870427E+02  0.32552870427E+02  0.00000000000E+00 0.  1.
         -2   -1    0    0    0  501 -0.00000000000E+00 -0.00000000000E+00 -0.99731020854E+02  0.99731020854E+02  0.00000000000E+00 0. -1.
          2    1    1    2  502    0 -0.11553815913E+02 -0.16950302950E+02  0.28117626457E+02  0.34805234518E+02  0.00000000000E+00 0.  1.
         -2    1    1    2    0  502  0.11553815913E+02  0.16950302950E+02 -0.95295776884E+02  0.97478656763E+02  0.00000000000E+00 0. -1.
</event>
<event>
 4    1  0.5953944E+003  0.2243519E+02  0.7546771E-02  0.1499715E+00
          2   -1    0    0  501    0  0.00000000000E+00  0.00000000000E+00  0.83964569831E+03  0.83964569831E+03  0.00000000000E+00 0.  1.
         -2   -1    0    0    0  501 -0.00000000000E+00 -0.00000000000E+00 -0.12087454185E+01  0.12087454185E+01  0.00000000000E+00 0. -1.
          2    1    1    2  502    0 -0.14623104014E+02 -0.17014778191E+02  0.71771011561E+03  0.71806068539E+03  0.00000000000E+00 0.  1.
         -2    1    1    2    0  502  0.14623104014E+02  0.17014778191E+02  0.12072683728E+03  0.12279375834E+03  0.00000000000E+00 0. -1.
</event>
<event>
 4    1  0.5953944E+003  0.2081483E+02  0.7546771E-02  0.1521925E+00
          2   -1    0    0  501    0  0.00000000000E+00  0.00000000000E+00  0.33652570105E+03  0.33652570105E+03  0.00000000000E+00 0.  1.
         -2   -1    0    0    0  501 -0.00000000000E+00 -0.00000000000E+00 -0.68607413079E+02  0.68607413079E+02  0.00000000000E+00 0.  1.
          2    1    1    2  502    0  0.14877664822E+02  0.14557199966E+02  0.33461608547E+03  0.33526285455E+03  0.00000000000E+00 0.  1.
         -2    1    1    2    0  502 -0.14877664822E+02 -0.14557199966E+02 -0.66697797506E+02  0.69870259578E+02  0.00000000000E+00 0.  1.
</event>
<event>
 4    1  0.5953944E+003  0.2891229E+02  0.7546771E-02  0.1429290E+00
          2   -1    0    0  501    0  0.00000000000E+00  0.00000000000E+00  0.10007092000E+04  0.10007092000E+04  0.00000000000E+00 0.  1.
         -2   -1    0    0    0  501 -0.00000000000E+00 -0.00000000000E+00 -0.24343943476E+01  0.24343943476E+01  0.00000000000E+00 0.  1.
          2    1    1    2  502    0  0.24957861835E+02 -0.14595395378E+02  0.90564707410E+03  0.90610846109E+03  0.00000000000E+00 0.  1.
         -2    1    1    2    0  502 -0.24957861835E+02  0.14595395378E+02  0.92627731538E+02  0.97035133243E+02  0.00000000000E+00 0.  1.
</event>
<event>
 4    1  0.5953944E+003  0.3088244E+02  0.7546771E-02  0.1412080E+00
          2   -1    0    0  501    0  0.00000000000E+00  0.00000000000E+00  0.47146009137E+03  0.47146009137E+03  0.00000000000E+00 0. -1.
         -2   -1    0    0    0  501 -0.00000000000E+00 -0.00000000000E+00 -0.16159585211E+03  0.16159585211E+03  0.00000000000E+00 0.  1.
          2    1    1    2  502    0 -0.67385422919E+01 -0.30138297598E+02  0.46947264380E+03  0.47048728804E+03  0.00000000000E+00 0. -1.
         -2    1    1    2    0  502  0.67385422919E+01  0.30138297598E+02 -0.15960840453E+03  0.16256865544E+03  0.00000000000E+00 0.  1.
</event>
<event>
 4    1  0.5953944E+003  0.2231193E+02  0.7546771E-02  0.1501324E+00
          2   -1    0    0  501    0  0.00000000000E+00  0.00000000000E+00  0.28027704130E+02  0.28027704130E+02  0.00000000000E+00 0. -1.
         -2   -1    0    0    0  501 -0.00000000000E+00 -0.00000000000E+00 -0.19512412953E+02  0.19512412953E+02  0.00000000000E+00 0. -1.
          2    1    1    2  502    0  0.20463136506E+02 -0.88927986300E+01 -0.28622351105E+01  0.22494759677E+02  0.00000000000E+00 0. -1.
         -2    1    1    2    0  502 -0.20463136506E+02  0.88927986300E+01  0.11377526288E+02  0.25045357405E+02  0.00000000000E+00 0. -1.
</event>
<event>
 4    1  0.5953944E+003  0.2718061E+02  0.7546771E-02  0.1445802E+00
          2   -1    0    0  501    0  0.00000000000E+00  0.00000000000E+00  0.98889761565E+01  0.98889761565E+01  0.00000000000E+00 0.  1.
         -2   -1    0    0    0  501 -0.00000000000E+00 -0.00000000000E+00 -0.42091954574E+03  0.42091954574E+03  0.00000000000E+00 0.  1.
          2    1    1    2  502    0  0.27024188216E+02  0.29118231449E+01 -0.10159836633E+02  0.29017369680E+02  0.00000000000E+00 0.  1.
         -2    1    1    2    0  502 -0.27024188216E+02 -0.29118231449E+01 -0.40087073295E+03  0.40179115221E+03  0.00000000000E+00 0.  1.
</event>
<event>
 4    1  0.5953944E+003  0.2106026E+02  0.7546771E-02  0.1518406E+00
          2   -1    0    0  501    0  0.00000000000E+00  0.00000000000E+00  0.75569038755E+03  0.75569038755E+03  0.00000000000E+00 0. -1.
         -2   -1    0    0    0  501 -0.00000000000E+00 -0.00000000000E+00 -0.10189153429E+01  0.10189153429E+01  0.00000000000E+00 0. -1.
          2    1    1    2  502    0 -0.18886856545E+02 -0.93177975429E+01  0.62369352660E+03  0.62404899633E+03  0.00000000000E+00 0. -1.
         -2    1    1    2    0  502  0.18886856545E+02  0.93177975429E+01  0.13097794561E+03  0.13266030656E+03  0.00000000000E+00 0. -1.
</event>
<event>
 4    1  0.5953944E+003  0.2049088E+02  0.7546771E-02  0.1526659E+00
          2   -1    0    0  501    0  0.00000000000E+00  0.00000000000E+00  0.81482771206E+02  0.81482771206E+02  0.00000000000E+00 0. -1.
         -2   -1    0    0    0  501 -0.00000000000E+00 -0.00000000000E+00 -0.68202496482E+01  0.68202496482E+01  0.00000000000E+00 0.  1.
          2    1    1    2  502    0 -0.12930971554E+02 -0.15895474924E+02  0.59161226510E+02  0.62609319359E+02  0.00000000000E+00 0. -1.
         -2    1    1    2    0  502  0.12930971554E+02  0.15895474924E+02  0.15501295047E+02  0.25693701495E+02  0.00000000000E+00 0.  1.
</event>
<event>
 4    1  0.5953944E+003  0.2453877E+02  0.7546771E-02  0.1474030E+00
          2   -1    0    0  501    0  0.00000000000E+00  0.00000000000E+00  0.18986703461E+04  0.18986703461E+04  0.00000000000E+00 0.  1.
         -2   -1    0    0    0  501 -0.00000000000E+00 -0.00000000000E+00 -0.11288887416E+01  0.11288887416E+01  0.00000000000E+00 0.  1.
          2    1    1    2  502    0 -0.11506582335E+02  0.21673711823E+02  0.17542641183E+04  0.17544357349E+04  0.00000000000E+00 0.  1.
         -2    1    1    2    0  502  0.11506582335E+02 -0.21673711823E+02  0.14327733915E+03  0.14536350001E+03  0.00000000000E+00 0.  1.
</event>
<event>
 4    1  0.5953944E+003  0.2032801E+02  0.7546771E-02  0.1529079E+00
          2   -1    0    0  501    0  0.00000000000E+00  0.00000000000E+00  0.48427875088E+02  0.48427875088E+02  0.00000000000E+00 0. -1.
         -2   -1    0    0    0  501 -0.00000000000E+00 -0.00000000000E+00 -0.95243813722E+02  0.95243813722E+02  0.00000000000E+00 0. -1.
          2    1    1    2  502    0 -0.70086078683E+01 -0.19081599784E+02  0.45134509535E+02  0.49501030146E+02  0.00000000000E+00 0. -1.
         -2    1    1    2    0  502  0.70086078683E+01  0.19081599784E+02 -0.91950448169E+02  0.94170658663E+02  0.00000000000E+00 0. -1.
</event>
<event>
 4    1  0.5953944E+003  0.5175722E+02  0.7546771E-02  0.1290728E+00
          2   -1    0    0  501    0  0.00000000000E+00  0.00000000000E+00  0.14275615306E+04  0.14275615306E+04  0.00000000000E+00 0. -1.
         -2   -1    0    0    0  501 -0.00000000000E+00 -0.00000000000E+00 -0.39115149134E+02  0.39115149134E+02  0.00000000000E+00 0.  1.
          2    1    1    2  502    0 -0.21467134889E+02  0.47095353830E+02  0.14097549116E+04  0.14107046895E+04  0.00000000000E+00 0. -1.
         -2    1    1    2    0  502  0.21467134889E+02 -0.47095353830E+02 -0.21308530135E+02  0.55971990220E+02  0.00000000000E+00 0.  1.
</event>
<event>
 4    1  0.5953944E+003  0.2134069E+02  0.7546771E-02  0.1514456E+00
          2   -1    0    0  501    0  0.00000000000E+00  0.00000000000E+00  0.65906011097E+03  0.65906011097E+03  0.00000000000E+00 0. -1.
         -2   -1    0    0    0  501 -0.00000000000E+00 -0.00000000000E+00 -0.79829502422E+00  0.79829502422E+00  0.00000000000E+00 0. -1.
          2    1    1    2  502    0  0.20071148788E+02  0.72507734111E+01  0.20818665045E+03  0.20927758159E+03  0.00000000000E+00 0. -1.
         -2    1    1    2    0  502 -0.20071148788E+02 -0.72507734111E+01  0.45007516550E+03  0.45058082441E+03  0.00000000000E+00 0. -1.
</event>
<event>
 4    1  0.5953944E+003  0.4677026E+02  0.7546771E-02  0.1312817E+00
          2   -1    0    0  501    0  0.00000000000E+00  0.00000000000E+00  0.65501494147E+03  0.65501494147E+03  0.00000000000E+00 0. -1.
         -2   -1    0    0    0  501 -0.00000000000E+00 -0.00000000000E+00 -0.39298045072E+01  0.39298045072E+01  0.00000000000E+00 0.  1.
          2    1    1    2  502    0  0.42500928050E+02 -0.19522497353E+02  0.45323120969E+03  0.45563799910E+03  0.00000000000E+00 0. -1.
         -2    1    1    2    0  502 -0.42500928050E+02  0.19522497353E+02  0.19785392727E+03  0.20330674687E+03  0.00000000000E+00 0.  1.
</event>
<event>
 4    1  0.5953944E+003  0.2897397E+02  0.7546771E-02  0.1428727E+00
          2   -1    0    0  501    0  0.00000000000E+00  0.00000000000E+00  0.86343134007E+02  0.86343134007E+02  0.00000000000E+00 0.  1.
         -2   -1    0    0    0  501 -0.00000000000E+00 -0.00000000000E+00 -0.10098856684E+03  0.10098856684E+03  0.00000000000E+00 0. -1.
          2    1    1    2  502    0  0.51710232319E+01  0.28508799436E+02  0.81720182815E+02  0.86704552394E+02  0.00000000000E+00 0.  1.
         -2    1    1    2    0  502 -0.51710232319E+01 -0.28508799436E+02 -0.96365615648E+02  0.10062714845E+03  0.00000000000E+00 0. -1.
</event>
<event>
 4    1  0.5953944E+003  0.2106655E+02  0.7546771E-02  0.1518317E+00
          2   -1    0    0  501    0  0.00000000000E+00  0.00000000000E+00  0.54995794039E+03  0.54995794039E+03  0.00000000000E+00 0. -1.
         -2   -1    0    0    0  501 -0.00000000000E+00 -0.00000000000E+00 -0.11686221960E+02  0.11686221960E+02  0.00000000000E+00 0. -1.
          2    1    1    2  502    0 -0.19124696214E+02  0.88343447989E+01  0.54008869600E+03  0.54049939796E+03  0.00000000000E+00 0. -1.
         -2    1    1    2    0  502  0.19124696214E+02 -0.88343447989E+01 -0.18169775733E+01  0.21144764383E+02  0.00000000000E+00 0. -1.
</event>
<event>
 4    1  0.5953944E+003  0.2118420E+02  0.7546771E-02  0.1516651E+00
          2   -1    0    0  501    0  0.00000000000E+00  0.00000000000E+00  0.47256261486E+03  0.47256261486E+03  0.00000000000E+00 0.  1.
         -2   -1    0    0    0  501 -0.00000000000E+00 -0.00000000000E+00 -0.10999895161E+01  0.10999895161E+01  0.00000000000E+00 0. -1.
          2    1    1    2  502    0 -0.47031592421E+01  0.20655526202E+02  0.32328555192E+03  0.32397888596E+03  0.00000000000E+00 0.  1.
         -2    1    1    2    0  502  0.47031592421E+01 -0.20655526202E+02  0.14817707343E+03  0.14968371842E+03  0.00000000000E+00 0. -1.
</event>
<event>
 4    1  0.5953944E+003  0.5315089E+02  0.7546771E-02  0.1285060E+00
          2   -1    0    0  501    0  0.00000000000E+00  0.00000000000E+00  0.30091604525E+02  0.30091604525E+02  0.00000000000E+00 0. -1.
         -2   -1    0    0    0  501 -0.00000000000E+00 -0.00000000000E+00 -0.15129575749E+03  0.15129575749E+03  0.00000000000E+00 0. -1.
          2    1    1    2  502    0 -0.55226724971E+01  0.52863197894E+02 -0.47322953481E+01  0.53361148997E+02  0.00000000000E+00 0. -1.
         -2    1    1    2    0  502  0.55226724971E+01 -0.52863197894E+02 -0.11647185762E+03  0.12802621302E+03  0.00000000000E+00 0. -1.
</event>
<event>
 4    1  0.5953944E+003  0.2316626E+02  0.7546771E-02  0.1490421E+00
          2   -1    0    0  501    0  0.00000000000E+00  0.00000000000E+00  0.36188653665E+02  0.36188653665E+02  0.00000000000E+00 0. -1.
         -2   -1    0    0    0  501 -0.00000000000E+00 -0.00000000000E+00 -0.17098155527E+03  0.17098155527E+03  0.00000000000E+00 0.  1.
          2    1    1    2  502    0  0.20377012427E+02 -0.11020560489E+02  0.31594597633E+02  0.39177723116E+02  0.00000000000E+00 0. -1.
         -2    1    1    2    0  502 -0.20377012427E+02  0.11020560489E+02 -0.16638749923E+03  0.16799248581E+03  0.00000000000E+00 0.  1.
</event>
<event>
 4    1  0.5953944E+003  0.2295462E+02  0.7546771E-02  0.1493069E+00
          2   -1    0    0  501    0  0.00000000000E+00  0.00000000000E+00  0.25027580168E+02  0.25027580168E+02  0.00000000000E+00 0.  1.
         -2   -1    0    0    0  501 -0.00000000000E+00 -0.00000000000E+00 -0.53365201349E+02  0.53365201349E+02  0.00000000000E+00 0.  1.
          2    1    1    2  502    0 -0.22203116998E+02  0.58254609248E+01  0.16331054967E+02  0.28171222120E+02  0.00000000000E+00 0.  1.
         -2    1    1    2    0  502  0.22203116998E+02 -0.58254609248E+01 -0.44668676148E+02  0.50221559396E+02  0.00000000000E+00 0.  1.
</event>
<event>
 4    1  0.5953944E+003  0.4798432E+02  0.7546771E-02  0.1307156E+00
          2   -1    0    0  501    0  0.00000000000E+00  0.00000000000E+00  0.13953448719E+04  0.13953448719E+04  0.00000000000E+00 0.  1.
         -2   -1    0    0    0  501 -0.00000000000E+00 -0.00000000000E+00 -0.20591257213E+03  0.20591257213E+03  0.00000000000E+00 0. -1.
          2    1    1    2  502    0  0.28894714299E+02  0.38309138024E+02  0.13921304116E+04  0.13929571341E+04  0.00000000000E+00 0.  1.
         -2    1    1    2    0  502 -0.28894714299E+02 -0.38309138024E+02 -0.20269811183E+03  0.20830030991E+03  0.00000000000E+00 0. -1.
</event>
<event>
 4    1  0.5953944E+003  0.2672405E+02  0.7546771E-02  0.1450400E+00
          2   -1    0    0  501    0  0.00000000000E+00  0.00000000000E+00  0.54861896993E+03  0.54861896993E+03  0.00000000000E+00 0. -1.
         -2   -1    0    0    0  501 -0.00000000000E+00 -0.00000000000E+00 -0.13871548515E+01  0.13871548515E+01  0.00000000000E+00 0. -1.
          2    1    1    2  502    0  0.12295448588E+02  0.23727550996E+02  0.34184506898E+03  0.34288806617E+03  0.00000000000E+00 0. -1.
         -2    1    1    2    0  502 -0.12295448588E+02 -0.23727550996E+02  0.20538674610E+03  0.20711805862E+03  0.00000000000E+00 0. -1.
</event>
<event>
 4    1  0.5953944E+003  0.2379175E+02  0.7546771E-02  0.1482788E+00
          2   -1    0    0  501    0  0.00000000000E+00  0.00000000000E+00  0.54795004078E+02  0.54795004078E+02  0.00000000000E+00 0.  1.
         -2   -1    0    0    0  501 -0.00000000000E+00 -0.00000000000E+00 -0.12824110451E+02  0.12824110451E+02  0.00000000000E+00 0.  1.
          2    1    1    2  502    0  0.10530737614E+02  0.21334261808E+02  0.35894849043E+02  0.43063759118E+02  0.00000000000E+00 0.  1.
         -2    1    1    2    0  502 -0.10530737614E+02 -0.21334261808E+02  0.60760445837E+01  0.24555355411E+02  0.00000000000E+00 0.  1.
</event>
<event>
 4    1  0.5953944E+003  0.2545461E+02  0.7546771E-02  0.1463781E+00
          2   -1    0    0  501    0  0.00000000000E+00  0.00000000000E+00  0.78140286100E+03  0.78140286100E+03  0.00000000000E+00 0.  1.
         -2   -1    0    0    0  501 -0.00000000000E+00 -0.00000000000E+00 -0.17531520041E+01  0.17531520041E+01  0.00000000000E+00 0.  1.
          2    1    1    2  502    0  0.22188287313E+02  0.12474621841E+02  0.10555284237E+03  0.10857872175E+03  0.00000000000E+00 0.  1.
         -2    1    1    2    0  502 -0.22188287313E+02 -0.12474621841E+02  0.67409686662E+03  0.67457729126E+03  0.00000000000E+00 0.  1.
</event>
<event>
 4    1  0.5953944E+003  0.2626404E+02  0.7546771E-02  0.1455144E+00
          2   -1    0    0  501    0  0.00000000000E+00  0.00000000000E+00  0.16042211809E+04  0.16042211809E+04  0.00000000000E+00 0.  1.
         -2   -1    0    0    0  501 -0.00000000000E+00 -0.00000000000E+00 -0.89795060149E+00  0.89795060149E+00  0.00000000000E+00 0.  1.
          2    1    1    2  502    0 -0.21709441181E+02 -0.14781749642E+02  0.13810308627E+04  0.13812805811E+04  0.00000000000E+00 0.  1.
         -2    1    1    2    0  502  0.21709441181E+02  0.14781749642E+02  0.22229236756E+03  0.22383855037E+03  0.00000000000E+00 0.  1.
</event>
<event>
 4    1  0.5953944E+003  0.2108365E+02  0.7546771E-02  0.1518074E+00
          2   -1    0    0  501    0  0.00000000000E+00  0.00000000000E+00  0.54536153005E+03  0.54536153005E+03  0.00000000000E+00 0. -1.
         -2   -1    0    0    0  501 -0.00000000000E+00 -0.00000000000E+00 -0.11057149858E+01  0.11057149858E+01  0.00000000000E+00 0. -1.
          2    1    1    2  502    0  0.21080188171E+02  0.38207898146E+00  0.41220813583E+03  0.41274697765E+03  0.00000000000E+00 0. -1.
         -2    1    1    2    0  502 -0.21080188171E+02 -0.38207898146E+00  0.13204767923E+03  0.13372026738E+03  0.00000000000E+00 0. -1.
</event>
<event>
 4    1  0.5953944E+003  0.3001320E+02  0.7546771E-02  0.1419482E+00
          2   -1    0    0  501    0  0.00000000000E+00  0.00000000000E+00  0.49536483448E+01  0.49536483448E+01  0.00000000000E+00 0. -1.
         -2   -1    0    0    0  501 -0.00000000000E+00 -0.00000000000E+00 -0.19762316696E+03  0.19762316696E+03  0.00000000000E+00 0. -1.
          2    1    1    2  502    0  0.19700039492E+02  0.22642869283E+02 -0.12495565710E+03  0.12850956123E+03  0.00000000000E+00 0. -1.
         -2    1    1    2    0  502 -0.19700039492E+02 -0.22642869283E+02 -0.67713861512E+02  0.74067254075E+02  0.00000000000E+00 0. -1.
</event>
<event>
 4    1  0.5953944E+003  0.3611201E+02  0.7546771E-02  0.1372910E+00
          2   -1    0    0  501    0  0.00000000000E+00  0.00000000000E+00  0.31575809497E+03  0.31575809497E+03  0.00000000000E+00 0.  1.
         -2   -1    0    0    0  501 -0.00000000000E+00 -0.00000000000E+00 -0.72999099484E+01  0.72999099484E+01  0.00000000000E+00 0. -1.
          2    1    1    2  502    0  0.25888920016E+01  0.36019093752E+02  0.26067181447E+03  0.26316130479E+03  0.00000000000E+00 0.  1.
         -2    1    1    2    0  502 -0.25888920016E+01 -0.36019093752E+02  0.47786370551E+02  0.59896700134E+02  0.00000000000E+00 0. -1.
</event>
<event>
 4    1  0.5953944E+003  0.2146639E+02  0.7546771E-02  0.1512709E+00
          2   -1    0    0  501    0  0.00000000000E+00  0.00000000000E+00  0.14092388784E+04  0.14092388784E+04  0.00000000000E+00 0. -1.
         -2   -1    0    0    0  501 -0.00000000000E+00 -0.00000000000E+00 -0.36348425891E+00  0.36348425891E+00  0.00000000000E+00 0.  1.
          2    1    1    2  502    0 -0.16190273878E+02  0.14095426294E+02  0.92776424812E+03  0.92801255708E+03  0.00000000000E+00 0. -1.
         -2    1    1    2    0  502  0.16190273878E+02 -0.14095426294E+02  0.48111114598E+03  0.48158980554E+03  0.00000000000E+00 0.  1.
</event>
<event>
 4    1  0.5953944E+003  0.2421668E+02  0.7546771E-02  0.1477760E+00
          2   -1    0    0  501    0  0.00000000000E+00  0.00000000000E+00  0.11064513098E+04  0.11064513098E+04  0.00000000000E+00 0.  1.
         -2   -1    0    0    0  501 -0.00000000000E+00 -0.00000000000E+00 -0.13184575090E+02  0.13184575090E+02  0.00000000000E+00 0.  1.
          2    1    1    2  502    0  0.91614791861E+01 -0.22416840571E+02  0.10950834297E+04  0.10953511608E+04  0.00000000000E+00 0.  1.
         -2    1    1    2    0  502 -0.91614791861E+01  0.22416840571E+02 -0.18166950253E+01  0.24284724064E+02  0.00000000000E+00 0.  1.
</event>
<event>
 4    1  0.5953944E+003  0.4068081E+02  0.7546771E-02  0.1344542E+00
          2   -1    0    0  501    0  0.00000000000E+00  0.00000000000E+00  0.34336765411E+03  0.34336765411E+03  0.00000000000E+00 0.  1.
         -2   -1    0    0    0  501 -0.00000000000E+00 -0.00000000000E+00 -0.12534864510E+02  0.12534864510E+02  0.00000000000E+00 0.  1.
          2    1    1    2  502    0  0.15805124840E+02 -0.37485016291E+02  0.30502554826E+03  0.30772636141E+03  0.00000000000E+00 0.  1.
         -2    1    1    2    0  502 -0.15805124840E+02  0.37485016291E+02  0.25807241337E+02  0.48176157205E+02  0.00000000000E+00 0.  1.
</event>
<event>
 4    1  0.5953944E+003  0.2260513E+02  0.7546771E-02  0.1497517E+00
          2   -1    0    0  501    0  0.00000000000E+00  0.00000000000E+00  0.60585904510E+03  0.60585904510E+03  0.00000000000E+00 0. -1.
         -2   -1    0    0    0  501 -0.00000000000E+00 -0.00000000000E+00 -0.17000453647E+02  0.17000453647E+02  0.00000000000E+00 0.  1.
          2    1    1    2  502    0  0.14579203225E+01 -0.22558069424E+02  0.59803553438E+03  0.59846260736E+03  0.00000000000E+00 0. -1.
         -2    1    1    2    0  502 -0.14579203225E+01  0.22558069424E+02 -0.91769429283E+01  0.24396891386E+02  0.00000000000E+00 0.  1.
</event>
<event>
 4    1  0.5953944E+003  0.2184180E+02  0.7546771E-02  0.1507577E+00
          2   -1    0    0  501    0  0.00000000000E+00  0.00000000000E+00  0.40331993531E+03  0.40331993531E+03  0.00000000000E+00 0.  1.
         -2   -1    0    0    0  501 -0.00000000000E+00 -0.00000000000E+00 -0.15068975818E+01  0.15068975818E+01  0.00000000000E+00 0.  1.
          2    1    1    2  502    0 -0.18524063473E+02 -0.11572530495E+02  0.29477204799E+03  0.29558014931E+03  0.00000000000E+00 0.  1.
         -2    1    1    2    0  502  0.18524063473E+02  0.11572530495E+02  0.10704098974E+03  0.10924668358E+03  0.00000000000E+00 0.  1.
</event>
<event>
 4    1  0.5953944E+003  0.2205849E+02  0.7546771E-02  0.1504672E+00
          2   -1    0    0  501    0  0.00000000000E+00  0.00000000000E+00  0.10118119748E+04  0.10118119748E+04  0.00000000000E+00 0. -1.
         -2   -1    0    0    0  501 -0.00000000000E+00 -0.00000000000E+00 -0.29655387606E+01  0.29655387606E+01  0.00000000000E+00 0.  1.
          2    1    1    2  502    0  0.19995702602E+02  0.93139073201E+01  0.96885395824E+03  0.96910503527E+03  0.00000000000E+00 0. -1.
         -2    1    1    2    0  502 -0.19995702602E+02 -0.93139073201E+01  0.39992477766E+02  0.45672478256E+02  0.00000000000E+00 0.  1.
</event>
<event>
 4    1  0.5953944E+003  0.2754929E+02  0.7546771E-02  0.1442167E+00
          2   -1    0    0  501    0  0.00000000000E+00  0.00000000000E+00  0.21743289063E+04  0.21743289063E+04  0.00000000000E+00 0.  1.
         -2   -1    0    0    0  501 -0.00000000000E+00 -0.00000000000E+00 -0.81952364414E+00  0.81952364414E+00  0.00000000000E+00 0.  1.
          2    1    1    2  502    0  0.26757361646E+02 -0.65579799632E+01  0.19107843374E+04  0.19109829271E+04  0.00000000000E+00 0.  1.
         -2    1    1    2    0  502 -0.26757361646E+02  0.65579799632E+01  0.26272504522E+03  0.26416550284E+03  0.00000000000E+00 0.  1.
</event>
<event>
 4    1  0.5953944E+003  0.2143192E+02  0.7546771E-02  0.1513187E+00
          2   -1    0    0  501    0  0.00000000000E+00  0.00000000000E+00  0.59498002329E+01  0.59498002329E+01  0.00000000000E+00 0. -1.
         -2   -1    0    0    0  501 -0.00000000000E+00 -0.00000000000E+00 -0.35845134148E+03  0.35845134148E+03  0.00000000000E+00 0.  1.
          2    1    1    2  502    0  0.17437542177E+02  0.12460316511E+02 -0.14858932466E+02  0.26079019130E+02  0.00000000000E+00 0. -1.
         -2    1    1    2    0  502 -0.17437542177E+02 -0.12460316511E+02 -0.33764260878E+03  0.33832212258E+03  0.00000000000E+00 0.  1.
</event>
<event>
 4    1  0.5953944E+003  0.3793767E+02  0.7546771E-02  0.1361014E+00
          2   -1    0    0  501    0  0.00000000000E+00  0.00000000000E+00  0.55310420126E+03  0.55310420126E+03  0.00000000000E+00 0.  1.
         -2   -1    0    0    0  501 -0.00000000000E+00 -0.00000000000E+00 -0.27252930854E+01  0.27252930854E+01  0.00000000000E+00 0.  1.
          2    1    1    2  502    0  0.13465697559E+02  0.35467452004E+02  0.21611579777E+03  0.21942038011E+03  0.00000000000E+00 0.  1.
         -2    1    1    2    0  502 -0.13465697559E+02 -0.35467452004E+02  0.33426311040E+03  0.33640911423E+03  0.00000000000E+00 0.  1.
</event>
<event>
 4    1  0.5953944E+003  0.2170149E+02  0.7546771E-02  0.1509481E+00
          2   -1    0    0  501    0  0.00000000000E+00  0.00000000000E+00  0.17125281046E+03  0.17125281046E+03  0.00000000000E+00 0.  1.
         -2   -1    0    0    0  501 -0.00000000000E+00 -0.00000000000E+00 -0.35247674435E+01  0.35247674435E+01  0.00000000000E+00 0.  1.
          2    1    1    2  502    0  0.18942097504E+02  0.10590172680E+02  0.12483350401E+03  0.12670579520E+03  0.00000000000E+00 0.  1.
         -2    1    1    2    0  502 -0.18942097504E+02 -0.10590172680E+02  0.42894539012E+02  0.48071782704E+02  0.00000000000E+00 0.  1.
</event>
<event>
 4    1  0.5953944E+003  0.2239767E+02  0.7546771E-02  0.1500203E+00
          2   -1    0    0  501    0  0.00000000000E+00  0.00000000000E+00  0.25826897572E+03  0.25826897572E+03  0.00000000000E+00 0.  1.
         -2   -1    0    0    0  501 -0.00000000000E+00 -0.00000000000E+00 -0.54108515826E+01  0.54108515826E+01  0.00000000000E+00 0. -1.
          2    1    1    2  502    0 -0.80020740764E+01 -0.20919431850E+02  0.23198516136E+03  0.23306387731E+03  0.00000000000E+00 0.  1.
         -2    1    1    2    0  502  0.80020740764E+01  0.20919431850E+02  0.20872962778E+02  0.30615949987E+02  0.00000000000E+00 0. -1.
</event>
<event>
 4    1  0.5953944E+003  0.2157908E+02  0.7546771E-02  0.1511155E+00
          2   -1    0    0  501    0  0.00000000000E+00  0.00000000000E+00  0.40425002396E+03  0.40425002396E+03  0.00000000000E+00 0. -1.
         -2   -1    0    0    0  501 -0.00000000000E+00 -0.00000000000E+00 -0.11520390081E+01  0.11520390081E+01  0.00000000000E+00 0. -1.
          2    1    1    2  502    0  0.21486810183E+02 -0.19933565650E+01  0.20375809789E+03  0.20489758158E+03  0.00000000000E+00 0. -1.
         -2    1    1    2    0  502 -0.21486810183E+02  0.19933565650E+01  0.19933988707E+03  0.20050448139E+03  0.00000000000E+00 0. -1.
</event>
<event>
 4    1  0.5953944E+003  0.2332167E+02  0.7546771E-02  0.1488498E+00
          2   -1    0    0  501    0  0.00000000000E+00  0.00000000000E+00  0.25377559530E+02  0.25377559530E+02  0.00000000000E+00 0.  1.
         -2   -1    0    0    0  501 -0.00000000000E+00 -0.00000000000E+00 -0.16779663336E+03  0.16779663336E+03  0.00000000000E+00 0. -1.
          2    1    1    2  502    0 -0.23243193172E+02 -0.19115683349E+01  0.18998468558E+02  0.30080590584E+02  0.00000000000E+00 0.  1.
         -2    1    1    2    0  502  0.23243193172E+02  0.19115683349E+01 -0.16141754239E+03  0.16309360231E+03  0.00000000000E+00 0. -1.
</event>
<event>
 4    1  0.5953944E+003  0.4048312E+02  0.7546771E-02  0.1345678E+00
          2   -1    0    0  501    0  0.00000000000E+00  0.00000000000E+00  0.20944604587E+01  0.20944604587E+01  0.00000000000E+00 0.  1.
         -2   -1    0    0    0  501 -0.00000000000E+00 -0.00000000000E+00 -0.85499202972E+03  0.85499202972E+03  0.00000000000E+00 0.  1.
          2    1    1    2  502    0  0.80999496727E+01  0.39664518516E+02 -0.30165164028E+03  0.30435603378E+03  0.00000000000E+00 0.  1.
         -2    1    1    2    0  502 -0.80999496727E+01 -0.39664518516E+02 -0.55124592898E+03  0.55273045640E+03  0.00000000000E+00 0.  1.
</event>
<event>
 4    1  0.5953944E+003  0.2014763E+02  0.7546771E-02  0.1531791E+00
          2   -1    0    0  501    0  0.00000000000E+00  0.00000000000E+00  0.18852285954E+04  0.18852285954E+04  0.00000000000E+00 0. -1.
         -2   -1    0    0    0  501 -0.00000000000E+00 -0.00000000000E+00 -0.21552473030E+00  0.21552473030E+00  0.00000000000E+00 0. -1.
          2    1    1    2  502    0 -0.19878472118E+02  0.32823003514E+01  0.97157211823E+03  0.97178099800E+03  0.00000000000E+00 0. -1.
         -2    1    1    2    0  502  0.19878472118E+02 -0.32823003514E+01  0.91344095241E+03  0.91366312210E+03  0.00000000000E+00 0. -1.
</event>
<event>
 4    1  0.5953944E+003  0.2873870E+02  0.7546771E-02  0.1430883E+00
          2   -1    0    0  501    0  0.00000000000E+00  0.00000000000E+00  0.68967846927E+03  0.68967846927E+03  0.00000000000E+00 0. -1.
         -2   -1    0    0    0  501 -0.00000000000E+00 -0.00000000000E+00 -0.15238970592E+01  0.15238970592E+01  0.00000000000E+00 0.  1.
          2    1    1    2  502    0 -0.28734476270E+02  0.49295794423E+00  0.50401400228E+03  0.50483267290E+03  0.00000000000E+00 0. -1.
         -2    1    1    2    0  502  0.28734476270E+02 -0.49295794423E+00  0.18414056993E+03  0.18636969343E+03  0.00000000000E+00 0.  1.
</event>
<event>
 4    1  0.5953944E+003  0.2149173E+02  0.7546771E-02  0.1512359E+00
          2   -1    0    0  501    0  0.00000000000E+00  0.00000000000E+00  0.15791598221E+03  0.15791598221E+03  0.00000000000E+00 0.  1.
         -2   -1    0    0    0  501 -0.00000000000E+00 -0.00000000000E+00 -0.14917048033E+02  0.14917048033E+02  0.00000000000E+00 0.  1.
          2    1    1    2  502    0  0.89380049285E+01 -0.19544988829E+02  0.14898187339E+03  0.15052406160E+03  0.00000000000E+00 0.  1.
         -2    1    1    2    0  502 -0.89380049285E+01  0.19544988829E+02 -0.59829392140E+01  0.22308968647E+02  0.00000000000E+00 0.  1.
</event>
<event>
 4    1  0.5953944E+003  0.3631816E+02  0.7546771E-02  0.1371526E+00
          2   -1    0    0  501    0  0.00000000000E+00  0.00000000000E+00  0.55612992839E+03  0.55612992839E+03  0.00000000000E+00 0.  1.
         -2   -1    0    0    0  501 -0.00000000000E+00 -0.00000000000E+00 -0.48409683336E+01  0.48409683336E+01  0.00000000000E+00 0.  1.
          2    1    1    2  502    0 -0.26309399005E+02 -0.25036453374E+02  0.47596378448E+03  0.47734739195E+03  0.00000000000E+00 0.  1.
         -2    1    1    2    0  502  0.26309399005E+02  0.25036453374E+02  0.75325175583E+02  0.83623504771E+02  0.00000000000E+00 0.  1.
</event>
<event>
 4    1  0.5953944E+003  0.2339442E+02  0.7546771E-02  0.1487604E+00
          2   -1    0    0  501    0  0.00000000000E+00  0.00000000000E+00  0.40429428613E+02  0.40429428613E+02  0.00000000000E+00 0. -1.
         -2   -1    0    0    0  501 -0.00000000000E+00 -0.00000000000E+00 -0.11413324548E+03  0.11413324548E+03  0.00000000000E+00 0.  1.
          2    1    1    2  502    0  0.12327984401E+02 -0.19882645249E+02  0.35701718971E+02  0.42683855484E+02  0.00000000000E+00 0. -1.
         -2    1    1    2    0  502 -0.12327984401E+02  0.19882645249E+02 -0.10940553583E+03  0.11187881861E+03  0.00000000000E+00 0.  1.
</event>
<event>
 4    1  0.5953944E+003  0.2294804E+02  0.7546771E-02  0.1493152E+00
          2   -1    0    0  501    0  0.00000000000E+00  0.00000000000E+00  0.11098407648E+03  0.11098407648E+03  0.00000000000E+00 0. -1.
         -2   -1    0    0    0  501 -0.00000000000E+00 -0.00000000000E+00 -0.10227918524E+03  0.10227918524E+03  0.00000000000E+00 0. -1.
          2    1    1    2  502    0  0.24350901367E+00  0.22946752500E+02  0.10848127502E+03  0.11088191817E+03  0.00000000000E+00 0. -1.
         -2    1    1    2    0  502 -0.24350901367E+00 -0.22946752500E+02 -0.99776383784E+02  0.10238134355E+03  0.00000000000E+00 0. -1.
</event>
<event>
 4    1  0.5953944E+003  0.2191718E+02  0.7546771E-02  0.1506562E+00
          2   -1    0    0  501    0  0.00000000000E+00  0.00000000000E+00  0.14672159489E+02  0.14672159489E+02  0.00000000000E+00 0. -1.
         -2   -1    0    0    0  501 -0.00000000000E+00 -0.00000000000E+00 -0.51936680391E+02  0.51936680391E+02  0.00000000000E+00 0. -1.
          2    1    1    2  502    0  0.61015695113E+01 -0.21050740831E+02  0.16156713945E+01  0.21976652022E+02  0.00000000000E+00 0. -1.
         -2    1    1    2    0  502 -0.61015695113E+01  0.21050740831E+02 -0.38880192296E+02  0.44632187858E+02  0.00000000000E+00 0. -1.
</event>
<event>
 4    1  0.5953944E+003  0.5827958E+02  0.7546771E-02  0.1265793E+00
          2   -1    0    0  501    0  0.00000000000E+00  0.00000000000E+00  0.77394117897E+02  0.77394117897E+02  0.00000000000E+00 0. -1.
         -2   -1    0    0    0  501 -0.00000000000E+00 -0.00000000000E+00 -0.88645343197E+02  0.88645343197E+02  0.00000000000E+00 0.  1.
          2    1    1    2  502    0  0.58271133806E+02 -0.99203528936E+00  0.53366748478E+02  0.79022269090E+02  0.00000000000E+00 0. -1.
         -2    1    1    2    0  502 -0.58271133806E+02  0.99203528936E+00 -0.64617973778E+02  0.87017192004E+02  0.00000000000E+00 0.  1.
</event>
<event>
 4    1  0.5953944E+003  0.2025365E+02  0.7546771E-02  0.1530193E+00
          2   -1    0    0  501    0  0.00000000000E+00  0.00000000000E+00  0.22496765281E+02  0.22496765281E+02  0.00000000000E+00 0.  1.
         -2   -1    0    0    0  501 -0.00000000000E+00 -0.00000000000E+00 -0.27478102044E+02  0.27478102044E+02  0.00000000000E+00 0.  1.
          2    1    1    2  502    0 -0.13340331832E+02  0.15239612607E+02  0.12002263107E+02  0.23542824076E+02  0.00000000000E+00 0.  1.
         -2    1    1    2    0  502  0.13340331832E+02 -0.15239612607E+02 -0.16983599869E+02  0.26432043249E+02  0.00000000000E+00 0.  1.
</event>
<event>
 4    1  0.5953944E+003  0.2134075E+02  0.7546771E-02  0.1514455E+00
          2   -1    0    0  501    0  0.00000000000E+00  0.00000000000E+00  0.29908867389E+03  0.29908867389E+03  0.00000000000E+00 0.  1.
         -2   -1    0    0    0  501 -0.00000000000E+00 -0.00000000000E+00 -0.13338439113E+02  0.13338439113E+02  0.00000000000E+00 0.  1.
          2    1    1    2  502    0 -0.21017583895E+02  0.36998315484E+01  0.28990186085E+03  0.29068628539E+03  0.00000000000E+00 0.  1.
         -2    1    1    2    0  502  0.21017583895E+02 -0.36998315484E+01 -0.41516260765E+01  0.21740827615E+02  0.00000000000E+00 0.  1.
</event>
<event>
 4    1  0.5953944E+003  0.2288134E+02  0.7546771E-02  0.1493994E+00
          2   -1    0    0  501    0  0.00000000000E+00  0.00000000000E+00  0.33405939498E+03  0.33405939498E+03  0.00000000000E+00 0. -1.
         -2   -1    0    0    0  501 -0.00000000000E+00 -0.00000000000E+00 -0.30631391546E+03  0.30631391546E+03  0.00000000000E+00 0.  1.
          2    1    1    2  502    0 -0.14173886260E+02  0.17962644618E+02  0.33323922806E+03  0.33402385958E+03  0.00000000000E+00 0. -1.
         -2    1    1    2    0  502  0.14173886260E+02 -0.17962644618E+02 -0.30549374853E+03  0.30634945086E+03  0.00000000000E+00 0.  1.
</event>
<event>
 4    1  0.5953944E+003  0.2428308E+02  0.7546771E-02  0.1476986E+00
          2   -1    0    0  501    0  0.00000000000E+00  0.00000000000E+00  0.19863035443E+02  0.19863035443E+02  0.00000000000E+00 0. -1.
         -2   -1    0    0    0  501 -0.00000000000E+00 -0.00000000000E+00 -0.81897921582E+02  0.81897921582E+02  0.00000000000E+00 0.  1.
          2    1    1    2  502    0  0.73363026441E+01 -0.23148359960E+02  0.96078669864E+01  0.26114727901E+02  0.00000000000E+00 0. -1.
         -2    1    1    2    0  502 -0.73363026441E+01  0.23148359960E+02 -0.71642753125E+02  0.75646229124E+02  0.00000000000E+00 0.  1.
</event>
<event>
 4    1  0.5953944E+003  0.2167404E+02  0.7546771E-02  0.1509855E+00
          2   -1    0    0  501    0  0.00000000000E+00  0.00000000000E+00  0.48928882445E+02  0.48928882445E+02  0.00000000000E+00 0. -1.
         -2   -1    0    0    0  501 -0.00000000000E+00 -0.00000000000E+00 -0.97055869816E+01  0.97055869816E+01  0.00000000000E+00 0. -1.
          2    1    1    2  502    0 -0.12034439105E+02  0.18025987300E+02  0.22655662072E+02  0.31353516017E+02  0.00000000000E+00 0. -1.
         -2    1    1    2    0  502  0.12034439105E+02 -0.18025987300E+02  0.16567633391E+02  0.27280953409E+02  0.00000000000E+00 0. -1.
</event>
<event>
 4    1  0.5953944E+003  0.2691798E+02  0.7546771E-02  0.1448434E+00
          2   -1    0    0  501    0  0.00000000000E+00  0.00000000000E+00  0.20151679041E+03  0.20151679041E+03  0.00000000000E+00 0. -1.
         -2   -1    0    0    0  501 -0.00000000000E+00 -0.00000000000E+00 -0.12247440547E+02  0.12247440547E+02  0.00000000000E+00 0.  1.
          2    1    1    2  502    0 -0.75800731780E+01 -0.25828666908E+02  0.18446772692E+03  0.18642135023E+03  0.00000000000E+00 0. -1.
         -2    1    1    2    0  502  0.75800731780E+01  0.25828666908E+02  0.48016229347E+01  0.27342880727E+02  0.00000000000E+00 0.  1.
</event>
<event>
 4    1  0.5953944E+003  0.2041492E+02  0.7546771E-02  0.1527785E+00
          2   -1    0    0  501    0  0.00000000000E+00  0.00000000000E+00  0.18229804338E+02  0.18229804338E+02  0.00000000000E+00 0.  1.
         -2   -1    0    0    0  501 -0.00000000000E+00 -0.00000000000E+00 -0.22937430727E+02  0.22937430727E+02  0.00000000000E+00 0. -1.
          2    1    1    2  502    0  0.12557641380E+02 -0.16095795449E+02 -0.11730860596E+01  0.20448596995E+02  0.00000000000E+00 0. -1.
         -2    1    1    2    0  502 -0.12557641380E+02  0.16095795449E+02 -0.35345403289E+01  0.20718638070E+02  0.00000000000E+00 0.  1.
</event>
<event>
 4    1  0.5953944E+003  0.4128832E+02  0.7546771E-02  0.1341097E+00
          2   -1    0    0  501    0  0.00000000000E+00  0.00000000000E+00  0.28769299843E+04  0.28769299843E+04  0.00000000000E+00 0. -1.
         -2   -1    0    0    0  501 -0.00000000000E+00 -0.00000000000E+00 -0.80584233835E+01  0.80584233835E+01  0.00000000000E+00 0. -1.
          2    1    1    2  502    0  0.37698476381E+02 -0.16838949439E+02  0.28228828926E+04  0.28231848240E+04  0.00000000000E+00 0. -1.
         -2    1    1    2    0  502 -0.37698476381E+02  0.16838949439E+02  0.45988668369E+02  0.61803583699E+02  0.00000000000E+00 0. -1.
</event>
<event>
 4    1  0.5953944E+003  0.2734285E+02  0.7546771E-02  0.1444194E+00
          2   -1    0    0  501    0  0.00000000000E+00  0.00000000000E+00  0.75720991822E+02  0.75720991822E+02  0.00000000000E+00 0. -1.
         -2   -1    0    0    0  501 -0.00000000000E+00 -0.00000000000E+00 -0.60179824176E+02  0.60179824176E+02  0.00000000000E+00 0.  1.
          2    1    1    2  502    0 -0.25346574241E+02 -0.10255846911E+02  0.69897229150E+02  0.75055005592E+02  0.00000000000E+00 0. -1.
         -2    1    1    2    0  502  0.25346574241E+02  0.10255846911E+02 -0.54356061504E+02  0.60845810405E+02  0.00000000000E+00 0.  1.
</event>
<event>
 4    1  0.5953944E+003  0.2352712E+02  0.7546771E-02  0.1485983E+00
          2   -1    0    0  501    0  0.00000000000E+00  0.00000000000E+00  0.93768934574E+01  0.93768934574E+01  0.00000000000E+00 0. -1.
         -2   -1    0    0    0  501 -0.00000000000E+00 -0.00000000000E+00 -0.12263854789E+03  0.12263854789E+03  0.00000000000E+00 0.  1.
          2    1    1    2  502    0  0.13129891387E+02 -0.19522585953E+02 -0.90933328540E+01  0.25223285125E+02  0.00000000000E+00 0. -1.
         -2    1    1    2    0  502 -0.13129891387E+02  0.19522585953E+02 -0.10416832158E+03  0.10679215622E+03  0.00000000000E+00 0.  1.
</event>
<event>
 4    1  0.5953944E+003  0.2018135E+02  0.7546771E-02  0.1531281E+00
          2   -1    0    0  501    0  0.00000000000E+00  0.00000000000E+00  0.64968831332E+03  0.64968831332E+03  0.00000000000E+00 0. -1.
         -2   -1    0    0    0  501 -0.00000000000E+00 -0.00000000000E+00 -0.33606018084E+01  0.33606018084E+01  0.00000000000E+00 0.  1.
          2    1    1    2  502    0 -0.20119854278E+02 -0.15742364649E+01  0.61766236885E+03  0.61799198106E+03  0.00000000000E+00 0. -1.
         -2    1    1    2    0  502  0.20119854278E+02  0.15742364649E+01  0.28665342659E+02  0.35056934070E+02  0.00000000000E+00 0.  1.
</event>
<event>
 4    1  0.5953944E+003  0.2669082E+02  0.7546771E-02  0.1450739E+00
          2   -1    0    0  501    0  0.00000000000E+00  0.00000000000E+00  0.79730477617E+02  0.79730477617E+02  0.00000000000E+00 0. -1.
         -2   -1    0    0    0  501 -0.00000000000E+00 -0.00000000000E+00 -0.10385273094E+03  0.10385273094E+03  0.00000000000E+00 0. -1.
          2    1    1    2  502    0 -0.52977479384E+01  0.26159777942E+02  0.75692977142E+02  0.80260992417E+02  0.00000000000E+00 0. -1.
         -2    1    1    2    0  502  0.52977479384E+01 -0.26159777942E+02 -0.99815230462E+02  0.10332221614E+03  0.00000000000E+00 0. -1.
</event>
<event>
 4    1  0.5953944E+003  0.2259472E+02  0.7546771E-02  0.1497651E+00
          2   -1    0    0  501    0  0.00000000000E+00  0.00000000000E+00  0.80295514367E+02  0.80295514367E+02  0.00000000000E+00 0.  1.
         -2   -1    0    0    0  501 -0.00000000000E+00 -0.00000000000E+00 -0.73191333488E+02  0.73191333488E+02  0.00000000000E+00 0.  1.
          2    1    1    2  502    0  0.12682412446E+02  0.18699669245E+02  0.76886501526E+02  0.80137727272E+02  0.00000000000E+00 0.  1.
         -2    1    1    2    0  502 -0.12682412446E+02 -0.18699669245E+02 -0.69782320647E+02  0.73349120583E+02  0.00000000000E+00 0.  1.
</event>
<event>
 4    1  0.5953944E+003  0.3257812E+02  0.7546771E-02  0.1398439E+00
          2   -1    0    0  501    0  0.00000000000E+00  0.00000000000E+00  0.38533935317E+02  0.38533935317E+02  0.00000000000E+00 0. -1.
         -2   -1    0    0    0  501 -0.00000000000E+00 -0.00000000000E+00 -0.13072547915E+03  0.13072547915E+03  0.00000000000E+00 0. -1.
          2    1    1    2  502    0  0.29890981093E+01  0.32440701686E+02  0.29091797069E+02  0.43676841576E+02  0.00000000000E+00 0. -1.
         -2    1    1    2    0  502 -0.29890981093E+01 -0.32440701686E+02 -0.12128334091E+03  0.12558257289E+03  0.00000000000E+00 0. -1.
</event>
<event>
 4    1  0.5953944E+003  0.2327702E+02  0.7546771E-02  0.1489049E+00
          2   -1    0    0  501    0  0.00000000000E+00  0.00000000000E+00  0.55095918169E+01  0.55095918169E+01  0.00000000000E+00 0.  1.
         -2   -1    0    0    0  501 -0.00000000000E+00 -0.00000000000E+00 -0.84068764662E+03  0.84068764662E+03  0.00000000000E+00 0. -1.
          2    1    1    2  502    0 -0.50850602616E+00  0.23271467914E+02 -0.20006219970E+02  0.30693136606E+02  0.00000000000E+00 0.  1.
         -2    1    1    2    0  502  0.50850602616E+00 -0.23271467914E+02 -0.81517183483E+03  0.81550410183E+03  0.00000000000E+00 0. -1.
</event>
<event>
 4    1  0.5953944E+003  0.2067943E+02  0.7546771E-02  0.1523891E+00
          2   -1    0    0  501    0  0.00000000000E+00  0.00000000000E+00  0.30004903895E+02  0.30004903895E+02  0.00000000000E+00 0. -1.
         -2   -1    0    0    0  501 -0.00000000000E+00 -0.00000000000E+00 -0.31231847819E+02  0.31231847819E+02  0.00000000000E+00 0.  1.
          2    1    1    2  502    0 -0.13775489727E+02  0.15423180957E+02  0.21962501329E+02  0.30166042046E+02  0.00000000000E+00 0. -1.
         -2    1    1    2    0  502  0.13775489727E+02 -0.15423180957E+02 -0.23189445253E+02  0.31070709667E+02  0.00000000000E+00 0.  1.
</event>
<event>
 4    1  0.5953944E+003  0.2472169E+02  0.7546771E-02  0.1471941E+00
          2   -1    0    0  501    0  0.00000000000E+00  0.00000000000E+00  0.40874141744E+02  0.40874141744E+02  0.00000000000E+00 0. -1.
         -2   -1    0    0    0  501 -0.00000000000E+00 -0.00000000000E+00 -0.25338824754E+02  0.25338824754E+02  0.00000000000E+00 0. -1.
          2    1    1    2  502    0  0.16038970051E+02  0.18812580807E+02  0.28963725827E+02  0.38079642471E+02  0.00000000000E+00 0. -1.
         -2    1    1    2    0  502 -0.16038970051E+02 -0.18812580807E+02 -0.13428408837E+02  0.28133324027E+02  0.00000000000E+00 0. -1.
</event>
<event>
 4    1  0.5953944E+003  0.2095948E+02  0.7546771E-02  0.1519844E+00
          2   -1    0    0  501    0  0.00000000000E+00  0.00000000000E+00  0.86460736041E+01  0.86460736041E+01  0.00000000000E+00 0. -1.
         -2   -1    0    0    0  501 -0.00000000000E+00 -0.00000000000E+00 -0.14876188251E+03  0.14876188251E+03  0.00000000000E+00 0.  1.
          2    1    1    2  502    0 -0.12062028179E+02 -0.17140809497E+02 -0.61934698107E+01  0.21855409909E+02  0.00000000000E+00 0. -1.
         -2    1    1    2    0  502  0.12062028179E+02  0.17140809497E+02 -0.13392233910E+03  0.13555254621E+03  0.00000000000E+00 0.  1.
</event>
<event>
 4    1  0.5953944E+003  0.2014189E+02  0.7546771E-02  0.1531878E+00
          2   -1    0    0  501    0  0.00000000000E+00  0.00000000000E+00  0.19497753162E+03  0.19497753162E+03  0.00000000000E+00 0. -1.
         -2   -1    0    0    0  501 -0.00000000000E+00 -0.00000000000E+00 -0.11566931056E+03  0.11566931056E+03  0.00000000000E+00 0.  1.
          2    1    1    2  502    0 -0.81899214144E+00 -0.20125237160E+02  0.19357416457E+03  0.19461925164E+03  0.00000000000E+00 0. -1.
         -2    1    1    2    0  502  0.81899214144E+00  0.20125237160E+02 -0.11426594352E+03  0.11602759054E+03  0.00000000000E+00 0.  1.
</event>
<event>
 4    1  0.5953944E+003  0.2086194E+02  0.7546771E-02  0.1521245E+00
          2   -1    0    0  501    0  0.00000000000E+00  0.00000000000E+00  0.16399816541E+01  0.16399816541E+01  0.00000000000E+00 0.  1.
         -2   -1    0    0    0  501 -0.00000000000E+00 -0.00000000000E+00 -0.82246709846E+03  0.82246709846E+03  0.00000000000E+00 0.  1.
          2    1    1    2  502    0  0.22381416685E+01  0.20741538318E+02 -0.71292020880E+02  0.74281713302E+02  0.00000000000E+00 0.  1.
         -2    1    1    2    0  502 -0.22381416685E+01 -0.20741538318E+02 -0.74953509593E+03  0.74982536681E+03  0.00000000000E+00 0.  1.
</event>
<event>
 4    1  0.5953944E+003  0.4575614E+02  0.7546771E-02  0.1317701E+00
          2   -1    0    0  501    0  0.00000000000E+00  0.00000000000E+00  0.58795057437E+03  0.58795057437E+03  0.00000000000E+00 0.  1.
         -2   -1    0    0    0  501 -0.00000000000E+00 -0.00000000000E+00 -0.17376645691E+02  0.17376645691E+02  0.00000000000E+00 0. -1.
          2    1    1    2  502    0 -0.44139546446E+02  0.12055064787E+02  0.55516319893E+03  0.55704560100E+03  0.00000000000E+00 0.  1.
         -2    1    1    2    0  502  0.44139546446E+02 -0.12055064787E+02  0.15410729744E+02  0.48281619056E+02  0.00000000000E+00 0. -1.
</event>
<event>
 4    1  0.5953944E+003  0.2083131E+02  0.7546771E-02  0.1521687E+00
          2   -1    0    0  501    0  0.00000000000E+00  0.00000000000E+00  0.25002724367E+02  0.25002724367E+02  0.00000000000E+00 0.  1.
         -2   -1    0    0    0  501 -0.00000000000E+00 -0.00000000000E+00 -0.39106699794E+02  0.39106699794E+02  0.00000000000E+00 0.  1.
          2    1    1    2  502    0 -0.13116410506E+02  0.16183431474E+02  0.16853871267E+02  0.26795459607E+02  0.00000000000E+00 0.  1.
         -2    1    1    2    0  502  0.13116410506E+02 -0.16183431474E+02 -0.30957846694E+02  0.37313964555E+02  0.00000000000E+00 0.  1.
</event>
<event>
 4    1  0.5953944E+003  0.2302377E+02  0.7546771E-02  0.1492200E+00
          2   -1    0    0  501    0  0.00000000000E+00  0.00000000000E+00  0.36405031914E+02  0.36405031914E+02  0.00000000000E+00 0.  1.
         -2   -1    0    0    0  501 -0.00000000000E+00 -0.00000000000E+00 -0.36344434416E+02  0.36344434416E+02  0.00000000000E+00 0.  1.
          2    1    1    2  502    0 -0.44623319709E+01  0.22587198617E+02  0.28191031997E+02  0.36398189969E+02  0.00000000000E+00 0.  1.
         -2    1    1    2    0  502  0.44623319709E+01 -0.22587198617E+02 -0.28130434499E+02  0.36351276361E+02  0.00000000000E+00 0.  1.
</event>
<event>
 4    1  0.5953944E+003  0.3506875E+02  0.7546771E-02  0.1380081E+00
          2   -1    0    0  501    0  0.00000000000E+00  0.00000000000E+00  0.17666544737E+04  0.17666544737E+04  0.00000000000E+00 0.  1.
         -2   -1    0    0    0  501 -0.00000000000E+00 -0.00000000000E+00 -0.43068816132E+01  0.43068816132E+01  0.00000000000E+00 0. -1.
          2    1    1    2  502    0 -0.33721027519E+02  0.96285609655E+01  0.16919417505E+04  0.16923051450E+04  0.00000000000E+00 0.  1.
         -2    1    1    2    0  502  0.33721027519E+02 -0.96285609655E+01  0.70405841588E+02  0.78656210263E+02  0.00000000000E+00 0. -1.
</event>
<event>
 4    1  0.5953944E+003  0.3474815E+02  0.7546771E-02  0.1382342E+00
          2   -1    0    0  501    0  0.00000000000E+00  0.00000000000E+00  0.49193066469E+03  0.49193066469E+03  0.00000000000E+00 0.  1.
         -2   -1    0    0    0  501 -0.00000000000E+00 -0.00000000000E+00 -0.15904620384E+02  0.15904620384E+02  0.00000000000E+00 0.  1.
          2    1    1    2  502    0 -0.28745692698E+02  0.19522233866E+02  0.45088301138E+01  0.35039435110E+02  0.00000000000E+00 0.  1.
         -2    1    1    2    0  502  0.28745692698E+02 -0.19522233866E+02  0.47151721419E+03  0.47279584996E+03  0.00000000000E+00 0.  1.
</event>
<event>
 4    1  0.5953944E+003  0.2975665E+02  0.7546771E-02  0.1421723E+00
          2   -1    0    0  501    0  0.00000000000E+00  0.00000000000E+00  0.31399893614E+03  0.31399893614E+03  0.00000000000E+00 0.  1.
         -2   -1    0    0    0  501 -0.00000000000E+00 -0.00000000000E+00 -0.17822552494E+02  0.17822552494E+02  0.00000000000E+00 0. -1.
          2    1    1    2  502    0  0.60469052649E+00 -0.29750505192E+02  0.30030864273E+03  0.30177928873E+03  0.00000000000E+00 0.  1.
         -2    1    1    2    0  502 -0.60469052649E+00  0.29750505192E+02 -0.41322590829E+01  0.30042199902E+02  0.00000000000E+00 0. -1.
</event>
<event>
 4    1  0.5953944E+003  0.2797829E+02  0.7546771E-02  0.1438021E+00
          2   -1    0    0  501    0  0.00000000000E+00  0.00000000000E+00  0.21179860609E+02  0.21179860609E+02  0.00000000000E+00 0. -1.
         -2   -1    0    0    0  501 -0.00000000000E+00 -0.00000000000E+00 -0.47302534624E+02  0.47302534624E+02  0.00000000000E+00 0. -1.
          2    1    1    2  502    0  0.25793467187E+02 -0.10838894925E+02  0.29505709613E+01  0.28133440276E+02  0.00000000000E+00 0. -1.
         -2    1    1    2    0  502 -0.25793467187E+02  0.10838894925E+02 -0.29073244976E+02  0.40348954958E+02  0.00000000000E+00 0. -1.
</event>
<event>
 4    1  0.5953944E+003  0.2394396E+02  0.7546771E-02  0.1480973E+00
          2   -1    0    0  501    0  0.00000000000E+00  0.00000000000E+00  0.63804457056E+03  0.63804457056E+03  0.00000000000E+00 0.  1.
         -2   -1    0    0    0  501 -0.00000000000E+00 -0.00000000000E+00 -0.19609067076E+01  0.19609067076E+01  0.00000000000E+00 0. -1.
          2    1    1    2  502    0 -0.23940095084E+02  0.43041311509E+00  0.55357978949E+03  0.55409737118E+03  0.00000000000E+00 0.  1.
         -2    1    1    2    0  502  0.23940095084E+02 -0.43041311509E+00  0.82503874361E+02  0.85908106094E+02  0.00000000000E+00 0. -1.
</event>
<event>
 4    1  0.5953944E+003  0.2026498E+02  0.7546771E-02  0.1530023E+00
          2   -1    0    0  501    0  0.00000000000E+00  0.00000000000E+00  0.21615916165E+01  0.21615916165E+01  0.00000000000E+00 0. -1.
         -2   -1    0    0    0  501 -0.00000000000E+00 -0.00000000000E+00 -0.24601578810E+03  0.24601578810E+03  0.00000000000E+00 0. -1.
          2    1    1    2  502    0 -0.20155241534E+02  0.21061122997E+01 -0.62707562962E+02  0.65900742962E+02  0.00000000000E+00 0. -1.
         -2    1    1    2    0  502  0.20155241534E+02 -0.21061122997E+01 -0.18114663352E+03  0.18227663676E+03  0.00000000000E+00 0. -1.
</event>
<event>
 4    1  0.5953944E+003  0.2450341E+02  0.7546771E-02  0.1474436E+00
          2   -1    0    0  501    0  0.00000000000E+00  0.00000000000E+00  0.29692664511E+03  0.29692664511E+03  0.00000000000E+00 0. -1.
         -2   -1    0    0    0  501 -0.00000000000E+00 -0.00000000000E+00 -0.20268023596E+01  0.20268023596E+01  0.00000000000E+00 0. -1.
          2    1    1    2  502    0 -0.24386769670E+02 -0.23879996901E+01  0.15464540406E+03  0.15657464058E+03  0.00000000000E+00 0. -1.
         -2    1    1    2    0  502  0.24386769670E+02  0.23879996901E+01  0.14025443869E+03  0.14237880688E+03  0.00000000000E+00 0. -1.
</event>
<event>
 4    1  0.5953944E+003  0.2053359E+02  0.7546771E-02  0.1526029E+00
          2   -1    0    0  501    0  0.00000000000E+00  0.00000000000E+00  0.15231368712E+03  0.15231368712E+03  0.00000000000E+00 0.  1.
         -2   -1    0    0    0  501 -0.00000000000E+00 -0.00000000000E+00 -0.92944453211E+02  0.92944453211E+02  0.00000000000E+00 0.  1.
          2    1    1    2  502    0  0.20468217190E+02  0.16371401041E+01  0.15047375845E+03  0.15186829862E+03  0.00000000000E+00 0.  1.
         -2    1    1    2    0  502 -0.20468217190E+02 -0.16371401041E+01 -0.91104524544E+02  0.93389841712E+02  0.00000000000E+00 0.  1.
</event>
<event>
 4    1  0.5953944E+003  0.2129385E+02  0.7546771E-02  0.1515110E+00
          2   -1    0    0  501    0  0.00000000000E+00  0.00000000000E+00  0.72908925603E+03  0.72908925603E+03  0.00000000000E+00 0.  1.
         -2   -1    0    0    0  501 -0.00000000000E+00 -0.00000000000E+00 -0.11865925170E+03  0.11865925170E+03  0.00000000000E+00 0. -1.
          2    1    1    2  502    0 -0.10877035540E+02 -0.18306236827E+02  0.72797700339E+03  0.72828836711E+03  0.00000000000E+00 0.  1.
         -2    1    1    2    0  502  0.10877035540E+02  0.18306236827E+02 -0.11754699906E+03  0.11946014062E+03  0.00000000000E+00 0. -1.
</event>
<event>
 4    1  0.5953944E+003  0.3850809E+02  0.7546771E-02  0.1357457E+00
          2   -1    0    0  501    0  0.00000000000E+00  0.00000000000E+00  0.54181373320E+03  0.54181373320E+03  0.00000000000E+00 0. -1.
         -2   -1    0    0    0  501 -0.00000000000E+00 -0.00000000000E+00 -0.40106112049E+01  0.40106112049E+01  0.00000000000E+00 0. -1.
          2    1    1    2  502    0 -0.75292625085E+01 -0.37764840772E+02  0.42270231438E+03  0.42445272950E+03  0.00000000000E+00 0. -1.
         -2    1    1    2    0  502  0.75292625085E+01  0.37764840772E+02  0.11510080761E+03  0.12137161491E+03  0.00000000000E+00 0. -1.
</event>
<event>
 4    1  0.5953944E+003  0.2534530E+02  0.7546771E-02  0.1464977E+00
          2   -1    0    0  501    0  0.00000000000E+00  0.00000000000E+00  0.62867458246E+03  0.62867458246E+03  0.00000000000E+00 0. -1.
         -2   -1    0    0    0  501 -0.00000000000E+00 -0.00000000000E+00 -0.17532637688E+01  0.17532637688E+01  0.00000000000E+00 0. -1.
          2    1    1    2  502    0  0.24972936208E+02 -0.43285785651E+01  0.51705986201E+03  0.51768067864E+03  0.00000000000E+00 0. -1.
         -2    1    1    2    0  502 -0.24972936208E+02  0.43285785651E+01  0.10986145669E+03  0.11274716759E+03  0.00000000000E+00 0. -1.
</event>
<event>
 4    1  0.5953944E+003  0.2061601E+02  0.7546771E-02  0.1524818E+00
          2   -1    0    0  501    0  0.00000000000E+00  0.00000000000E+00  0.84069499814E+01  0.84069499814E+01  0.00000000000E+00 0. -1.
         -2   -1    0    0    0  501 -0.00000000000E+00 -0.00000000000E+00 -0.13047810928E+03  0.13047810928E+03  0.00000000000E+00 0. -1.
          2    1    1    2  502    0 -0.17853773480E+02  0.10308384622E+02 -0.66866823451E+01  0.21673295591E+02  0.00000000000E+00 0. -1.
         -2    1    1    2    0  502  0.17853773480E+02 -0.10308384622E+02 -0.11538447696E+03  0.11721176367E+03  0.00000000000E+00 0. -1.
</event>
<event>
 4    1  0.5953944E+003  0.3036990E+02  0.7546771E-02  0.1416409E+00
          2   -1    0    0  501    0  0.00000000000E+00  0.00000000000E+00  0.13955526081E+04  0.13955526081E+04  0.00000000000E+00 0. -1.
         -2   -1    0    0    0  501 -0.00000000000E+00 -0.00000000000E+00 -0.45821094914E+01  0.45821094914E+01  0.00000000000E+00 0.  1.
          2    1    1    2  502    0 -0.26935499494E+02  0.14028884412E+02  0.13430999861E+04  0.13434433011E+04  0.00000000000E+00 0. -1.
         -2    1    1    2    0  502  0.26935499494E+02 -0.14028884412E+02  0.47870512511E+02  0.56691416448E+02  0.00000000000E+00 0.  1.
</event>
<event>
 4    1  0.5953944E+003  0.2729790E+02  0.7546771E-02  0.1444638E+00
          2   -1    0    0  501    0  0.00000000000E+00  0.00000000000E+00  0.11012068288E+03  0.11012068288E+03  0.00000000000E+00 0. -1.
         -2   -1    0    0    0  501 -0.00000000000E+00 -0.00000000000E+00 -0.29656110411E+02  0.29656110411E+02  0.00000000000E+00 0. -1.
          2    1    1    2  502    0 -0.21348904888E+02  0.17011754576E+02  0.10163158312E+03  0.10523380741E+03  0.00000000000E+00 0. -1.
         -2    1    1    2    0  502  0.21348904888E+02 -0.17011754576E+02 -0.21167010654E+02  0.34542985883E+02  0.00000000000E+00 0. -1.
</event>
<event>
 4    1  0.5953944E+003  0.4824438E+02  0.7546771E-02  0.1305969E+00
          2   -1    0    0  501    0  0.00000000000E+00  0.00000000000E+00  0.24618614927E+04  0.24618614927E+04  0.00000000000E+00 0.  1.
         -2   -1    0    0    0  501 -0.00000000000E+00 -0.00000000000E+00 -0.50640856100E+01  0.50640856100E+01  0.00000000000E+00 0. -1.
          2    1    1    2  502    0 -0.32186862084E+02  0.35937809865E+02  0.23407788207E+04  0.23412759358E+04  0.00000000000E+00 0.  1.
         -2    1    1    2    0  502  0.32186862084E+02 -0.35937809865E+02  0.11601858648E+03  0.12564964257E+03  0.00000000000E+00 0. -1.
</event>
<event>
 4    1  0.5953944E+003  0.2448893E+02  0.7546771E-02  0.1474603E+00
          2   -1    0    0  501    0  0.00000000000E+00  0.00000000000E+00  0.77259416665E+03  0.77259416665E+03  0.00000000000E+00 0.  1.
         -2   -1    0    0    0  501 -0.00000000000E+00 -0.00000000000E+00 -0.36424136394E+01  0.36424136394E+01  0.00000000000E+00 0.  1.
          2    1    1    2  502    0 -0.24314359086E+01  0.24367921999E+02  0.72876381189E+03  0.72917515113E+03  0.00000000000E+00 0.  1.
         -2    1    1    2    0  502  0.24314359086E+01 -0.24367921999E+02  0.40187941120E+02  0.47061429160E+02  0.00000000000E+00 0.  1.
</event>
<event>
 4    1  0.5953944E+003  0.2052405E+02  0.7546771E-02  0.1526170E+00
          2   -1    0    0  501    0  0.00000000000E+00  0.00000000000E+00  0.85136362936E+03  0.85136362936E+03  0.00000000000E+00 0.  1.
         -2   -1    0    0    0  501 -0.00000000000E+00 -0.00000000000E+00 -0.18864948822E+01  0.18864948822E+01  0.00000000000E+00 0.  1.
          2    1    1    2  502    0  0.20387543024E+02 -0.23631630246E+01  0.79117100597E+03  0.79143717194E+03  0.00000000000E+00 0.  1.
         -2    1    1    2    0  502 -0.20387543024E+02  0.23631630246E+01  0.58306128508E+02  0.61812952297E+02  0.00000000000E+00 0.  1.
</event>
<event>
 4    1  0.5953944E+003  0.8999836E+02  0.7546771E-02  0.1182367E+00
          2   -1    0    0  501    0  0.00000000000E+00  0.00000000000E+00  0.20583192607E+04  0.20583192607E+04  0.00000000000E+00 0.  1.
         -2   -1    0    0    0  501 -0.00000000000E+00 -0.00000000000E+00 -0.10566043608E+02  0.10566043608E+02  0.00000000000E+00 0. -1.
          2    1    1    2  502    0  0.13142828762E+02  0.89033540997E+02  0.18433553206E+04  0.18455510134E+04  0.00000000000E+00 0.  1.
         -2    1    1    2    0  502 -0.13142828762E+02 -0.89033540997E+02  0.20439789650E+03  0.22333429084E+03  0.00000000000E+00 0. -1.
</event>
<event>
 4    1  0.5953944E+003  0.3361568E+02  0.7546771E-02  0.1390565E+00
          2   -1    0    0  501    0  0.00000000000E+00  0.00000000000E+00  0.41782291128E+03  0.41782291128E+03  0.00000000000E+00 0.  1.
         -2   -1    0    0    0  501 -0.00000000000E+00 -0.00000000000E+00 -0.15939663698E+02  0.15939663698E+02  0.00000000000E+00 0.  1.
          2    1    1    2  502    0  0.31817528487E+02  0.10847060998E+02  0.39856881640E+03  0.39998389375E+03  0.00000000000E+00 0.  1.
         -2    1    1    2    0  502 -0.31817528487E+02 -0.10847060998E+02  0.33144311780E+01  0.33778681225E+02  0.00000000000E+00 0.  1.
</event>
<event>
 4    1  0.5953944E+003  0.2266944E+02  0.7546771E-02  0.1496691E+00
          2   -1    0    0  501    0  0.00000000000E+00  0.00000000000E+00  0.30712576978E+02  0.30712576978E+02  0.00000000000E+00 0.  1.
         -2   -1    0    0    0  501 -0.00000000000E+00 -0.00000000000E+00 -0.18821186321E+02  0.18821186321E+02  0.00000000000E+00 0.  1.
          2    1    1    2  502    0 -0.46686107969E+00  0.22664632038E+02  0.14195933126E+02  0.26747486275E+02  0.00000000000E+00 0.  1.
         -2    1    1    2    0  502  0.46686107969E+00 -0.22664632038E+02 -0.23045424691E+01  0.22786277025E+02  0.00000000000E+00 0.  1.
</event>
<event>
 4    1  0.5953944E+003  0.2176365E+02  0.7546771E-02  0.1508635E+00
          2   -1    0    0  501    0  0.00000000000E+00  0.00000000000E+00  0.79238684464E+03  0.79238684464E+03  0.00000000000E+00 0.  1.
         -2   -1    0    0    0  501 -0.00000000000E+00 -0.00000000000E+00 -0.24456307576E+02  0.24456307576E+02  0.00000000000E+00 0. -1.
          2    1    1    2  502    0  0.12986334588E+02 -0.17464575367E+02  0.78736466502E+03  0.78766539343E+03  0.00000000000E+00 0.  1.
         -2    1    1    2    0  502 -0.12986334588E+02  0.17464575367E+02 -0.19434127954E+02  0.29177758792E+02  0.00000000000E+00 0. -1.
</event>
<event>
 4    1  0.5953944E+003  0.2417208E+02  0.7546771E-02  0.1478282E+00
          2   -1    0    0  501    0  0.00000000000E+00  0.00000000000E+00  0.73655254285E+03  0.73655254285E+03  0.00000000000E+00 0. -1.
         -2   -1    0    0    0  501 -0.00000000000E+00 -0.00000000000E+00 -0.13557633975E+03  0.13557633975E+03  0.00000000000E+00 0.  1.
          2    1    1    2  502    0 -0.23940688342E+02  0.33365980927E+01  0.73527493445E+03  0.73567215434E+03  0.00000000000E+00 0. -1.
         -2    1    1    2    0  502  0.23940688342E+02 -0.33365980927E+01 -0.13429873135E+03  0.13645672826E+03  0.00000000000E+00 0.  1.
</event>
<event>
 4    1  0.5953944E+003  0.2069309E+02  0.7546771E-02  0.1523692E+00
          2   -1    0    0  501    0  0.00000000000E+00  0.00000000000E+00  0.18781662919E+02  0.18781662919E+02  0.00000000000E+00 0. -1.
         -2   -1    0    0    0  501 -0.00000000000E+00 -0.00000000000E+00 -0.13104584547E+03  0.13104584547E+03  0.00000000000E+00 0.  1.
          2    1    1    2  502    0 -0.15750578850E+02 -0.13420992539E+02  0.11953856765E+02  0.23897666547E+02  0.00000000000E+00 0. -1.
         -2    1    1    2    0  502  0.15750578850E+02  0.13420992539E+02 -0.12421803931E+03  0.12592984184E+03  0.00000000000E+00 0.  1.
</event>
<event>
 4    1  0.5953944E+003  0.6297072E+02  0.7546771E-02  0.1250060E+00
          2   -1    0    0  501    0  0.00000000000E+00  0.00000000000E+00  0.12395020046E+04  0.12395020046E+04  0.00000000000E+00 0.  1.
         -2   -1    0    0    0  501 -0.00000000000E+00 -0.00000000000E+00 -0.29128968973E+02  0.29128968973E+02  0.00000000000E+00 0.  1.
          2    1    1    2  502    0 -0.47434117182E+02  0.41416367884E+02  0.12036570667E+04  0.12053031342E+04  0.00000000000E+00 0.  1.
         -2    1    1    2    0  502  0.47434117182E+02 -0.41416367884E+02  0.67159688871E+01  0.63327839373E+02  0.00000000000E+00 0.  1.
</event>
<event>
 4    1  0.5953944E+003  0.2074571E+02  0.7546771E-02  0.1522927E+00
          2   -1    0    0  501    0  0.00000000000E+00  0.00000000000E+00  0.12467138060E+04  0.12467138060E+04  0.00000000000E+00 0. -1.
         -2   -1    0    0    0  501 -0.00000000000E+00 -0.00000000000E+00 -0.91985834239E+00  0.91985834239E+00  0.00000000000E+00 0. -1.
          2    1    1    2  502    0 -0.20630426443E+02  0.21838956209E+01  0.12984133766E+03  0.13148823849E+03  0.00000000000E+00 0. -1.
         -2    1    1    2    0  502  0.20630426443E+02 -0.21838956209E+01  0.11159526100E+04  0.11161454258E+04  0.00000000000E+00 0. -1.
</event>
<event>
 4    1  0.5953944E+003  0.3779911E+02  0.7546771E-02  0.1361889E+00
          2   -1    0    0  501    0  0.00000000000E+00  0.00000000000E+00  0.54059516432E+03  0.54059516432E+03  0.00000000000E+00 0. -1.
         -2   -1    0    0    0  501 -0.00000000000E+00 -0.00000000000E+00 -0.51054521468E+01  0.51054521468E+01  0.00000000000E+00 0. -1.
          2    1    1    2  502    0 -0.37772880777E+02  0.14079666052E+01  0.45723844741E+03  0.45879818078E+03  0.00000000000E+00 0. -1.
         -2    1    1    2    0  502  0.37772880777E+02 -0.14079666052E+01  0.78251264760E+02  0.86902435690E+02  0.00000000000E+00 0. -1.
</event>
<event>
 4    1  0.5953944E+003  0.3517265E+02  0.7546771E-02  0.1379354E+00
          2   -1    0    0  501    0  0.00000000000E+00  0.00000000000E+00  0.90333985885E+02  0.90333985885E+02  0.00000000000E+00 0. -1.
         -2   -1    0    0    0  501 -0.00000000000E+00 -0.00000000000E+00 -0.22148536772E+02  0.22148536772E+02  0.00000000000E+00 0. -1.
          2    1    1    2  502    0  0.13267788780E+02 -0.32574235711E+02  0.68838681866E+02  0.77303810852E+02  0.00000000000E+00 0. -1.
         -2    1    1    2    0  502 -0.13267788780E+02  0.32574235711E+02 -0.65323275293E+00  0.35178711805E+02  0.00000000000E+00 0. -1.
</event>
<event>
 4    1  0.5953944E+003  0.2360673E+02  0.7546771E-02  0.1485017E+00
          2   -1    0    0  501    0  0.00000000000E+00  0.00000000000E+00  0.33081138563E+02  0.33081138563E+02  0.00000000000E+00 0. -1.
         -2   -1    0    0    0  501 -0.00000000000E+00 -0.00000000000E+00 -0.23574665808E+02  0.23574665808E+02  0.00000000000E+00 0. -1.
          2    1    1    2  502    0 -0.35289195675E+01  0.23341472101E+02  0.19887566756E+02  0.30867343660E+02  0.00000000000E+00 0. -1.
         -2    1    1    2    0  502  0.35289195675E+01 -0.23341472101E+02 -0.10381094001E+02  0.25788460710E+02  0.00000000000E+00 0. -1.
</event>
<event>
 4    1  0.5953944E+003  0.2366583E+02  0.7546771E-02  0.1484302E+00
          2   -1    0    0  501    0  0.00000000000E+00  0.00000000000E+00  0.18735436099E+02  0.18735436099E+02  0.00000000000E+00 0. -1.
         -2   -1    0    0    0  501 -0.00000000000E+00 -0.00000000000E+00 -0.83832943094E+02  0.83832943094E+02  0.00000000000E+00 0. -1.
          2    1    1    2  502    0 -0.15629612582E+02  0.17770385602E+02  0.85878649592E+01  0.25175837990E+02  0.00000000000E+00 0. -1.
         -2    1    1    2    0  502  0.15629612582E+02 -0.17770385602E+02 -0.73685371954E+02  0.77392541203E+02  0.00000000000E+00 0. -1.
</event>
<event>
 4    1  0.9705126E+003  0.2676561E+02  0.7546771E-02  0.1449977E+00
          2   -1    0    0  501    0  0.00000000000E+00  0.00000000000E+00  0.15037217082E+04  0.15037217082E+04  0.00000000000E+00 0.  1.
         -2   -1    0    0    0  501 -0.00000000000E+00 -0.00000000000E+00 -0.41204824526E+03  0.41204824526E+03  0.00000000000E+00 0. -1.
          2    1    1    2  502    0  0.20146847433E+02  0.17621083860E+02  0.15031677872E+04  0.15034060644E+04  0.00000000000E+00 0.  1.
         -2    1    1    2    0  502 -0.20146847433E+02 -0.17621083860E+02 -0.41149432428E+03  0.41236388902E+03  0.00000000000E+00 0. -1.
</event>
<event>
 4    1  0.5953944E+003  0.2170443E+02  0.7546771E-02  0.1509441E+00
          2   -1    0    0  501    0  0.00000000000E+00  0.00000000000E+00  0.55329488869E+02  0.55329488869E+02  0.00000000000E+00 0.  1.
         -2   -1    0    0    0  501 -0.00000000000E+00 -0.00000000000E+00 -0.13836848330E+03  0.13836848330E+03  0.00000000000E+00 0. -1.
          2    1    1    2  502    0 -0.20416916775E+02  0.73642122484E+01  0.52302517692E+02  0.56627161942E+02  0.00000000000E+00 0.  1.
         -2    1    1    2    0  502  0.20416916775E+02 -0.73642122484E+01 -0.13534151212E+03  0.13707081022E+03  0.00000000000E+00 0. -1.
</event>
<event>
 4    1  0.5953944E+003  0.2236952E+02  0.7546771E-02  0.1500571E+00
          2   -1    0    0  501    0  0.00000000000E+00  0.00000000000E+00  0.50961234965E+03  0.50961234965E+03  0.00000000000E+00 0.  1.
         -2   -1    0    0    0  501 -0.00000000000E+00 -0.00000000000E+00 -0.13420526112E+01  0.13420526112E+01  0.00000000000E+00 0.  1.
          2    1    1    2  502    0 -0.35863744602E+00  0.22366645945E+02  0.38647853883E+03  0.38712537562E+03  0.00000000000E+00 0.  1.
         -2    1    1    2    0  502  0.35863744602E+00 -0.22366645945E+02  0.12179175821E+03  0.12382902664E+03  0.00000000000E+00 0.  1.
</event>
<event>
 4    1  0.5953944E+003  0.4971408E+02  0.7546771E-02  0.1299417E+00
          2   -1    0    0  501    0  0.00000000000E+00  0.00000000000E+00  0.72004603368E+03  0.72004603368E+03  0.00000000000E+00 0.  1.
         -2   -1    0    0    0  501 -0.00000000000E+00 -0.00000000000E+00 -0.36210715499E+01  0.36210715499E+01  0.00000000000E+00 0.  1.
          2    1    1    2  502    0  0.26001950160E+02 -0.42371998030E+02  0.27561992683E+03  0.28006754845E+03  0.00000000000E+00 0.  1.
         -2    1    1    2    0  502 -0.26001950160E+02  0.42371998030E+02  0.44080503530E+03  0.44359955678E+03  0.00000000000E+00 0.  1.
</event>
<event>
 4    1  0.5953944E+003  0.2340719E+02  0.7546771E-02  0.1487447E+00
          2   -1    0    0  501    0  0.00000000000E+00  0.00000000000E+00  0.35969242757E+03  0.35969242757E+03  0.00000000000E+00 0. -1.
         -2   -1    0    0    0  501 -0.00000000000E+00 -0.00000000000E+00 -0.33648177799E+02  0.33648177799E+02  0.00000000000E+00 0. -1.
          2    1    1    2  502    0  0.17698980868E+02  0.15318041551E+02  0.35518929220E+03  0.35595973033E+03  0.00000000000E+00 0. -1.
         -2    1    1    2    0  502 -0.17698980868E+02 -0.15318041551E+02 -0.29145042430E+02  0.37380875043E+02  0.00000000000E+00 0. -1.
</event>
<event>
 4    1  0.5953944E+003  0.2295653E+02  0.7546771E-02  0.1493045E+00
          2   -1    0    0  501    0  0.00000000000E+00  0.00000000000E+00  0.50706107040E+03  0.50706107040E+03  0.00000000000E+00 0. -1.
         -2   -1    0    0    0  501 -0.00000000000E+00 -0.00000000000E+00 -0.32401946864E+01  0.32401946864E+01  0.00000000000E+00 0.  1.
          2    1    1    2  502    0  0.19151940181E+02  0.12657226988E+02  0.46219533095E+03  0.46276508745E+03  0.00000000000E+00 0. -1.
         -2    1    1    2    0  502 -0.19151940181E+02 -0.12657226988E+02  0.41625544764E+02  0.47536177640E+02  0.00000000000E+00 0.  1.
</event>
<event>
 4    1  0.5953944E+003  0.2483491E+02  0.7546771E-02  0.1470659E+00
          2   -1    0    0  501    0  0.00000000000E+00  0.00000000000E+00  0.63581770778E+02  0.63581770778E+02  0.00000000000E+00 0. -1.
         -2   -1    0    0    0  501 -0.00000000000E+00 -0.00000000000E+00 -0.67910835471E+02  0.67910835471E+02  0.00000000000E+00 0. -1.
          2    1    1    2  502    0 -0.10225125982E+02 -0.22632266137E+02  0.58705283351E+02  0.63742316911E+02  0.00000000000E+00 0. -1.
         -2    1    1    2    0  502  0.10225125982E+02  0.22632266137E+02 -0.63034348044E+02  0.67750289337E+02  0.00000000000E+00 0. -1.
</event>
<event>
 4    1  0.5953944E+003  0.4124858E+02  0.7546771E-02  0.1341320E+00
          2   -1    0    0  501    0  0.00000000000E+00  0.00000000000E+00  0.17432129929E+04  0.17432129929E+04  0.00000000000E+00 0.  1.
         -2   -1    0    0    0  501 -0.00000000000E+00 -0.00000000000E+00 -0.31747557708E+01  0.31747557708E+01  0.00000000000E+00 0. -1.
          2    1    1    2  502    0 -0.34685269076E+02 -0.22324373136E+02  0.15966938690E+04  0.15972265828E+04  0.00000000000E+00 0.  1.
         -2    1    1    2    0  502  0.34685269076E+02  0.22324373136E+02  0.14334436810E+03  0.14916116583E+03  0.00000000000E+00 0. -1.
</event>
<event>
 4    1  0.5953944E+003  0.2624697E+02  0.7546771E-02  0.1455323E+00
          2   -1    0    0  501    0  0.00000000000E+00  0.00000000000E+00  0.73412196862E+03  0.73412196862E+03  0.00000000000E+00 0.  1.
         -2   -1    0    0    0  501 -0.00000000000E+00 -0.00000000000E+00 -0.35086981969E+01  0.35086981969E+01  0.00000000000E+00 0. -1.
          2    1    1    2  502    0  0.91409970596E+01 -0.24603775942E+02  0.68097227203E+03  0.68147790785E+03  0.00000000000E+00 0.  1.
         -2    1    1    2    0  502 -0.91409970596E+01  0.24603775942E+02  0.49640998397E+02  0.56152758967E+02  0.00000000000E+00 0. -1.
</event>
<event>
 4    1  0.5953944E+003  0.2069016E+02  0.7546771E-02  0.1523735E+00
          2   -1    0    0  501    0  0.00000000000E+00  0.00000000000E+00  0.54762475457E+03  0.54762475457E+03  0.00000000000E+00 0.  1.
         -2   -1    0    0    0  501 -0.00000000000E+00 -0.00000000000E+00 -0.92750817741E+01  0.92750817741E+01  0.00000000000E+00 0. -1.
          2    1    1    2  502    0  0.37323417558E+01  0.20350732756E+02  0.53563257464E+03  0.53603203049E+03  0.00000000000E+00 0.  1.
         -2    1    1    2    0  502 -0.37323417558E+01 -0.20350732756E+02  0.27170981566E+01  0.20867805852E+02  0.00000000000E+00 0. -1.
</event>
<event>
 4    1  0.5953944E+003  0.4305926E+02  0.7546771E-02  0.1331435E+00
          2   -1    0    0  501    0  0.00000000000E+00  0.00000000000E+00  0.22432201890E+03  0.22432201890E+03  0.00000000000E+00 0.  1.
         -2   -1    0    0    0  501 -0.00000000000E+00 -0.00000000000E+00 -0.28498076084E+02  0.28498076084E+02  0.00000000000E+00 0.  1.
          2    1    1    2  502    0  0.37027720404E+02 -0.21978343543E+02  0.20442458482E+03  0.20891029305E+03  0.00000000000E+00 0.  1.
         -2    1    1    2    0  502 -0.37027720404E+02  0.21978343543E+02 -0.86006420020E+01  0.43909801936E+02  0.00000000000E+00 0.  1.
</event>
<event>
 4    1  0.5953944E+003  0.4534256E+02  0.7546771E-02  0.1319735E+00
          2   -1    0    0  501    0  0.00000000000E+00  0.00000000000E+00  0.58647756179E+02  0.58647756179E+02  0.00000000000E+00 0.  1.
         -2   -1    0    0    0  501 -0.00000000000E+00 -0.00000000000E+00 -0.10233432018E+03  0.10233432018E+03  0.00000000000E+00 0. -1.
          2    1    1    2  502    0  0.22875676675E+02  0.39149091208E+02  0.43420896282E+02  0.62779950300E+02  0.00000000000E+00 0.  1.
         -2    1    1    2    0  502 -0.22875676675E+02 -0.39149091208E+02 -0.87107460281E+02  0.98202126058E+02  0.00000000000E+00 0. -1.
</event>
<event>
 4    1  0.5953944E+003  0.2369414E+02  0.7546771E-02  0.1483961E+00
          2   -1    0    0  501    0  0.00000000000E+00  0.00000000000E+00  0.12613980449E+03  0.12613980449E+03  0.00000000000E+00 0.  1.
         -2   -1    0    0    0  501 -0.00000000000E+00 -0.00000000000E+00 -0.44507626694E+01  0.44507626694E+01  0.00000000000E+00 0. -1.
          2    1    1    2  502    0  0.34591337386E+01 -0.23440277862E+02  0.61059759592E+02  0.65495850814E+02  0.00000000000E+00 0.  1.
         -2    1    1    2    0  502 -0.34591337386E+01  0.23440277862E+02  0.60629282226E+02  0.65094716342E+02  0.00000000000E+00 0. -1.
</event>
<event>
 4    1  0.5953944E+003  0.2020701E+02  0.7546771E-02  0.1530894E+00
          2   -1    0    0  501    0  0.00000000000E+00  0.00000000000E+00  0.15021459181E+04  0.15021459181E+04  0.00000000000E+00 0. -1.
         -2   -1    0    0    0  501 -0.00000000000E+00 -0.00000000000E+00 -0.13327698678E+01  0.13327698678E+01  0.00000000000E+00 0.  1.
          2    1    1    2  502    0  0.14187434672E+02  0.14388880884E+02  0.14211181186E+04  0.14212617740E+04  0.00000000000E+00 0. -1.
         -2    1    1    2    0  502 -0.14187434672E+02 -0.14388880884E+02  0.79695029615E+02  0.82216913960E+02  0.00000000000E+00 0.  1.
</event>
<event>
 4    1  0.5953944E+003  0.2089250E+02  0.7546771E-02  0.1520805E+00
          2   -1    0    0  501    0  0.00000000000E+00  0.00000000000E+00  0.11839162681E+04  0.11839162681E+04  0.00000000000E+00 0.  1.
         -2   -1    0    0    0  501 -0.00000000000E+00 -0.00000000000E+00 -0.38319797595E+01  0.38319797595E+01  0.00000000000E+00 0.  1.
          2    1    1    2  502    0 -0.11844900577E+02  0.17210319126E+02  0.11546244779E+04  0.11548134835E+04  0.00000000000E+00 0.  1.
         -2    1    1    2    0  502  0.11844900577E+02 -0.17210319126E+02  0.25459810419E+02  0.32934764318E+02  0.00000000000E+00 0.  1.
</event>
<event>
 4    1  0.5953944E+003  0.2028970E+02  0.7546771E-02  0.1529652E+00
          2   -1    0    0  501    0  0.00000000000E+00  0.00000000000E+00  0.21876974589E+03  0.21876974589E+03  0.00000000000E+00 0. -1.
         -2   -1    0    0    0  501 -0.00000000000E+00 -0.00000000000E+00 -0.25937732640E+01  0.25937732640E+01  0.00000000000E+00 0.  1.
          2    1    1    2  502    0  0.57473709357E+01  0.19458670254E+02  0.16607812439E+03  0.16731292694E+03  0.00000000000E+00 0. -1.
         -2    1    1    2    0  502 -0.57473709357E+01 -0.19458670254E+02  0.50097848239E+02  0.54050592216E+02  0.00000000000E+00 0.  1.
</event>
<event>
 4    1  0.5953944E+003  0.3214945E+02  0.7546771E-02  0.1401793E+00
          2   -1    0    0  501    0  0.00000000000E+00  0.00000000000E+00  0.62468215552E+03  0.62468215552E+03  0.00000000000E+00 0. -1.
         -2   -1    0    0    0  501 -0.00000000000E+00 -0.00000000000E+00 -0.23944460038E+01  0.23944460038E+01  0.00000000000E+00 0. -1.
          2    1    1    2  502    0  0.63568274562E+00 -0.32143163637E+02  0.48543061471E+03  0.48649405830E+03  0.00000000000E+00 0. -1.
         -2    1    1    2    0  502 -0.63568274562E+00  0.32143163637E+02  0.13685709481E+03  0.14058254323E+03  0.00000000000E+00 0. -1.
</event>
<event>
 4    1  0.5953944E+003  0.2700368E+02  0.7546771E-02  0.1447571E+00
          2   -1    0    0  501    0  0.00000000000E+00  0.00000000000E+00  0.92887661962E+03  0.92887661962E+03  0.00000000000E+00 0.  1.
         -2   -1    0    0    0  501 -0.00000000000E+00 -0.00000000000E+00 -0.99519630866E+01  0.99519630866E+01  0.00000000000E+00 0.  1.
          2    1    1    2  502    0 -0.20747654191E+02 -0.17283903868E+02  0.90998214303E+03  0.91038272123E+03  0.00000000000E+00 0.  1.
         -2    1    1    2    0  502  0.20747654191E+02  0.17283903868E+02  0.89425135077E+01  0.28445861477E+02  0.00000000000E+00 0.  1.
</event>
<event>
 4    1  0.5953944E+003  0.2874575E+02  0.7546771E-02  0.1430818E+00
          2   -1    0    0  501    0  0.00000000000E+00  0.00000000000E+00  0.24974004955E+03  0.24974004955E+03  0.00000000000E+00 0.  1.
         -2   -1    0    0    0  501 -0.00000000000E+00 -0.00000000000E+00 -0.22916299213E+02  0.22916299213E+02  0.00000000000E+00 0.  1.
          2    1    1    2  502    0  0.20536446003E+02 -0.20113990470E+02  0.23951488140E+03  0.24123369714E+03  0.00000000000E+00 0.  1.
         -2    1    1    2    0  502 -0.20536446003E+02  0.20113990470E+02 -0.12691131061E+02  0.31422651617E+02  0.00000000000E+00 0.  1.
</event>
<event>
 4    1  0.5953944E+003  0.2403522E+02  0.7546771E-02  0.1479892E+00
          2   -1    0    0  501    0  0.00000000000E+00  0.00000000000E+00  0.32484205973E+03  0.32484205973E+03  0.00000000000E+00 0.  1.
         -2   -1    0    0    0  501 -0.00000000000E+00 -0.00000000000E+00 -0.13258689816E+03  0.13258689816E+03  0.00000000000E+00 0.  1.
          2    1    1    2  502    0  0.23972825341E+02 -0.17307454204E+01  0.32330301694E+03  0.32419520754E+03  0.00000000000E+00 0.  1.
         -2    1    1    2    0  502 -0.23972825341E+02  0.17307454204E+01 -0.13104785537E+03  0.13323375034E+03  0.00000000000E+00 0.  1.
</event>
<event>
 4    1  0.5953944E+003  0.2215556E+02  0.7546771E-02  0.1503383E+00
          2   -1    0    0  501    0  0.00000000000E+00  0.00000000000E+00  0.23011117773E+02  0.23011117773E+02  0.00000000000E+00 0. -1.
         -2   -1    0    0    0  501 -0.00000000000E+00 -0.00000000000E+00 -0.30649827245E+03  0.30649827245E+03  0.00000000000E+00 0.  1.
          2    1    1    2  502    0  0.17014762354E+01  0.22090133135E+02  0.17174389948E+02  0.28032635862E+02  0.00000000000E+00 0. -1.
         -2    1    1    2    0  502 -0.17014762354E+01 -0.22090133135E+02 -0.30066154462E+03  0.30147675436E+03  0.00000000000E+00 0.  1.
</event>
<event>
 4    1  0.5953944E+003  0.2746175E+02  0.7546771E-02  0.1443024E+00
          2   -1    0    0  501    0  0.00000000000E+00  0.00000000000E+00  0.58874419386E+03  0.58874419386E+03  0.00000000000E+00 0.  1.
         -2   -1    0    0    0  501 -0.00000000000E+00 -0.00000000000E+00 -0.14185950720E+01  0.14185950720E+01  0.00000000000E+00 0.  1.
          2    1    1    2  502    0 -0.21392586403E+02  0.17219317642E+02  0.38558157916E+03  0.38655827742E+03  0.00000000000E+00 0.  1.
         -2    1    1    2    0  502  0.21392586403E+02 -0.17219317642E+02  0.20174401963E+03  0.20360451151E+03  0.00000000000E+00 0.  1.
</event>
<event>
 4    1  0.5953944E+003  0.4254807E+02  0.7546771E-02  0.1334168E+00
          2   -1    0    0  501    0  0.00000000000E+00  0.00000000000E+00  0.51075022616E+02  0.51075022616E+02  0.00000000000E+00 0. -1.
         -2   -1    0    0    0  501 -0.00000000000E+00 -0.00000000000E+00 -0.14666080903E+04  0.14666080903E+04  0.00000000000E+00 0. -1.
          2    1    1    2  502    0  0.80395387668E+01  0.41781619812E+02  0.41849176436E+02  0.59679908731E+02  0.00000000000E+00 0. -1.
         -2    1    1    2    0  502 -0.80395387668E+01 -0.41781619812E+02 -0.14573822441E+04  0.14580032042E+04  0.00000000000E+00 0. -1.
</event>
<event>
 4    1  0.5953944E+003  0.2660096E+02  0.7546771E-02  0.1451658E+00
          2   -1    0    0  501    0  0.00000000000E+00  0.00000000000E+00  0.12360053524E+04  0.12360053524E+04  0.00000000000E+00 0.  1.
         -2   -1    0    0    0  501 -0.00000000000E+00 -0.00000000000E+00 -0.21741078401E+02  0.21741078401E+02  0.00000000000E+00 0. -1.
          2    1    1    2  502    0 -0.17052067734E+02  0.20416605835E+02  0.12276701951E+04  0.12279583538E+04  0.00000000000E+00 0.  1.
         -2    1    1    2    0  502  0.17052067734E+02 -0.20416605835E+02 -0.13405921114E+02  0.29788076956E+02  0.00000000000E+00 0. -1.
</event>
<event>
 4    1  0.5953944E+003  0.3585848E+02  0.7546771E-02  0.1374626E+00
          2   -1    0    0  501    0  0.00000000000E+00  0.00000000000E+00  0.99150164438E+03  0.99150164438E+03  0.00000000000E+00 0.  1.
         -2   -1    0    0    0  501 -0.00000000000E+00 -0.00000000000E+00 -0.17085547140E+02  0.17085547140E+02  0.00000000000E+00 0.  1.
          2    1    1    2  502    0 -0.34806156512E+02  0.86233443549E+01  0.97198518730E+03  0.97264640797E+03  0.00000000000E+00 0.  1.
         -2    1    1    2    0  502  0.34806156512E+02 -0.86233443549E+01  0.24309099351E+01  0.35940783549E+02  0.00000000000E+00 0.  1.
</event>
<event>
 4    1  0.5953944E+003  0.3648265E+02  0.7546771E-02  0.1370429E+00
          2   -1    0    0  501    0  0.00000000000E+00  0.00000000000E+00  0.62051722676E+03  0.62051722676E+03  0.00000000000E+00 0.  1.
         -2   -1    0    0    0  501 -0.00000000000E+00 -0.00000000000E+00 -0.97410275495E+01  0.97410275495E+01  0.00000000000E+00 0. -1.
          2    1    1    2  502    0 -0.33100213590E+02  0.15341426028E+02  0.58366722020E+03  0.58480629907E+03  0.00000000000E+00 0.  1.
         -2    1    1    2    0  502  0.33100213590E+02 -0.15341426028E+02  0.27108979008E+02  0.45451955240E+02  0.00000000000E+00 0. -1.
</event>
<event>
 4    1  0.5953944E+003  0.2678955E+02  0.7546771E-02  0.1449734E+00
          2   -1    0    0  501    0  0.00000000000E+00  0.00000000000E+00  0.17444963051E+03  0.17444963051E+03  0.00000000000E+00 0. -1.
         -2   -1    0    0    0  501 -0.00000000000E+00 -0.00000000000E+00 -0.79258674764E+02  0.79258674764E+02  0.00000000000E+00 0.  1.
          2    1    1    2  502    0 -0.26198197713E+02 -0.55977092581E+01  0.17111354505E+03  0.17319793651E+03  0.00000000000E+00 0. -1.
         -2    1    1    2    0  502  0.26198197713E+02  0.55977092581E+01 -0.75922589301E+02  0.80510368764E+02  0.00000000000E+00 0.  1.
</event>
<event>
 4    1  0.5953944E+003  0.2844591E+02  0.7546771E-02  0.1433600E+00
          2   -1    0    0  501    0  0.00000000000E+00  0.00000000000E+00  0.14666381827E+04  0.14666381827E+04  0.00000000000E+00 0. -1.
         -2   -1    0    0    0  501 -0.00000000000E+00 -0.00000000000E+00 -0.55026587480E+01  0.55026587480E+01  0.00000000000E+00 0.  1.
          2    1    1    2  502    0 -0.16248121877E+02 -0.23348837073E+02  0.14287631418E+04  0.14290462851E+04  0.00000000000E+00 0. -1.
         -2    1    1    2    0  502  0.16248121877E+02  0.23348837073E+02  0.32372382083E+02  0.43094556256E+02  0.00000000000E+00 0.  1.
</event>
<event>
 4    1  0.5953944E+003  0.2370056E+02  0.7546771E-02  0.1483884E+00
          2   -1    0    0  501    0  0.00000000000E+00  0.00000000000E+00  0.16530888545E+03  0.16530888545E+03  0.00000000000E+00 0. -1.
         -2   -1    0    0    0  501 -0.00000000000E+00 -0.00000000000E+00 -0.28610406397E+02  0.28610406397E+02  0.00000000000E+00 0. -1.
          2    1    1    2  502    0  0.17919325273E+02 -0.15511748951E+02  0.15936913118E+03  0.16112180655E+03  0.00000000000E+00 0. -1.
         -2    1    1    2    0  502 -0.17919325273E+02  0.15511748951E+02 -0.22670652127E+02  0.32797485294E+02  0.00000000000E+00 0. -1.
</event>
<event>
 4    1  0.5953944E+003  0.3329729E+02  0.7546771E-02  0.1392946E+00
          2   -1    0    0  501    0  0.00000000000E+00  0.00000000000E+00  0.21030320604E+03  0.21030320604E+03  0.00000000000E+00 0. -1.
         -2   -1    0    0    0  501 -0.00000000000E+00 -0.00000000000E+00 -0.93457908268E+01  0.93457908268E+01  0.00000000000E+00 0.  1.
          2    1    1    2  502    0  0.10359770330E+02 -0.31644661600E+02  0.17298786490E+03  0.17616330734E+03  0.00000000000E+00 0. -1.
         -2    1    1    2    0  502 -0.10359770330E+02  0.31644661600E+02  0.27969550308E+02  0.43485689525E+02  0.00000000000E+00 0.  1.
</event>
<event>
 4    1  0.5953944E+003  0.3143942E+02  0.7546771E-02  0.1407487E+00
          2   -1    0    0  501    0  0.00000000000E+00  0.00000000000E+00  0.76259131597E+03  0.76259131597E+03  0.00000000000E+00 0. -1.
         -2   -1    0    0    0  501 -0.00000000000E+00 -0.00000000000E+00 -0.31404051980E+02  0.31404051980E+02  0.00000000000E+00 0. -1.
          2    1    1    2  502    0  0.26634526326E+02 -0.16704466129E+02  0.75431224288E+03  0.75496714957E+03  0.00000000000E+00 0. -1.
         -2    1    1    2    0  502 -0.26634526326E+02  0.16704466129E+02 -0.23124978886E+02  0.39028218378E+02  0.00000000000E+00 0. -1.
</event>
<event>
 4    1  0.5953944E+003  0.2159762E+02  0.7546771E-02  0.1510901E+00
          2   -1    0    0  501    0  0.00000000000E+00  0.00000000000E+00  0.67866329734E+01  0.67866329734E+01  0.00000000000E+00 0.  1.
         -2   -1    0    0    0  501 -0.00000000000E+00 -0.00000000000E+00 -0.70797021883E+02  0.70797021883E+02  0.00000000000E+00 0.  1.
          2    1    1    2  502    0  0.14241225796E+02 -0.16237126869E+02 -0.38630820706E+02  0.44258299895E+02  0.00000000000E+00 0.  1.
         -2    1    1    2    0  502 -0.14241225796E+02  0.16237126869E+02 -0.25379568204E+02  0.33325354962E+02  0.00000000000E+00 0.  1.
</event>
<event>
 4    1  0.5953944E+003  0.2189725E+02  0.7546771E-02  0.1506830E+00
          2   -1    0    0  501    0  0.00000000000E+00  0.00000000000E+00  0.15897257663E+03  0.15897257663E+03  0.00000000000E+00 0.  1.
         -2   -1    0    0    0  501 -0.00000000000E+00 -0.00000000000E+00 -0.50796743117E+02  0.50796743117E+02  0.00000000000E+00 0. -1.
          2    1    1    2  502    0  0.13128219674E+02  0.17525392105E+02  0.15581103933E+03  0.15734220507E+03  0.00000000000E+00 0.  1.
         -2    1    1    2    0  502 -0.13128219674E+02 -0.17525392105E+02 -0.47635205815E+02  0.52427114676E+02  0.00000000000E+00 0. -1.
</event>
<event>
 4    1  0.5953944E+003  0.3976872E+02  0.7546771E-02  0.1349846E+00
          2   -1    0    0  501    0  0.00000000000E+00  0.00000000000E+00  0.20325197477E+03  0.20325197477E+03  0.00000000000E+00 0. -1.
         -2   -1    0    0    0  501 -0.00000000000E+00 -0.00000000000E+00 -0.15945973348E+02  0.15945973348E+02  0.00000000000E+00 0. -1.
          2    1    1    2  502    0 -0.16338771526E+02 -0.36257354924E+02  0.17207756704E+03  0.17661325069E+03  0.00000000000E+00 0. -1.
         -2    1    1    2    0  502  0.16338771526E+02  0.36257354924E+02  0.15228434378E+02  0.42584697424E+02  0.00000000000E+00 0. -1.
</event>
<event>
 4    1  0.5953944E+003  0.2335561E+02  0.7546771E-02  0.1488080E+00
          2   -1    0    0  501    0  0.00000000000E+00  0.00000000000E+00  0.52200674634E+03  0.52200674634E+03  0.00000000000E+00 0.  1.
         -2   -1    0    0    0  501 -0.00000000000E+00 -0.00000000000E+00 -0.84313410830E+01  0.84313410830E+01  0.00000000000E+00 0.  1.
          2    1    1    2  502    0 -0.60570107452E+01 -0.22556533538E+02  0.50502769927E+03  0.50556746495E+03  0.00000000000E+00 0.  1.
         -2    1    1    2    0  502  0.60570107452E+01  0.22556533538E+02  0.85477059805E+01  0.24870622468E+02  0.00000000000E+00 0.  1.
</event>
<event>
 4    1  0.5953944E+003  0.2307526E+02  0.7546771E-02  0.1491555E+00
          2   -1    0    0  501    0  0.00000000000E+00  0.00000000000E+00  0.20975139405E+03  0.20975139405E+03  0.00000000000E+00 0. -1.
         -2   -1    0    0    0  501 -0.00000000000E+00 -0.00000000000E+00 -0.10521531814E+03  0.10521531814E+03  0.00000000000E+00 0. -1.
          2    1    1    2  502    0  0.23017056196E+02 -0.16379248531E+01  0.20783996712E+03  0.20911699980E+03  0.00000000000E+00 0. -1.
         -2    1    1    2    0  502 -0.23017056196E+02  0.16379248531E+01 -0.10330389120E+03  0.10584971238E+03  0.00000000000E+00 0. -1.
</event>
<event>
 4    1  0.5953944E+003  0.2267405E+02  0.7546771E-02  0.1496632E+00
          2   -1    0    0  501    0  0.00000000000E+00  0.00000000000E+00  0.12600172531E+04  0.12600172531E+04  0.00000000000E+00 0. -1.
         -2   -1    0    0    0  501 -0.00000000000E+00 -0.00000000000E+00 -0.39763464339E+01  0.39763464339E+01  0.00000000000E+00 0.  1.
          2    1    1    2  502    0  0.16901860293E+02 -0.15114226083E+02  0.12267146351E+04  0.12269241658E+04  0.00000000000E+00 0. -1.
         -2    1    1    2    0  502 -0.16901860293E+02  0.15114226083E+02  0.29326271551E+02  0.37069433696E+02  0.00000000000E+00 0.  1.
</event>
<event>
 4    1  0.5953944E+003  0.2308294E+02  0.7546771E-02  0.1491459E+00
          2   -1    0    0  501    0  0.00000000000E+00  0.00000000000E+00  0.16672345473E+02  0.16672345473E+02  0.00000000000E+00 0. -1.
         -2   -1    0    0    0  501 -0.00000000000E+00 -0.00000000000E+00 -0.21689581244E+03  0.21689581244E+03  0.00000000000E+00 0. -1.
          2    1    1    2  502    0  0.17594735931E+01 -0.23015787661E+02  0.77259108647E+01  0.24341567897E+02  0.00000000000E+00 0. -1.
         -2    1    1    2    0  502 -0.17594735931E+01  0.23015787661E+02 -0.20794937783E+03  0.20922659001E+03  0.00000000000E+00 0. -1.
</event>
<event>
 4    1  0.5953944E+003  0.4053820E+02  0.7546771E-02  0.1345360E+00
          2   -1    0    0  501    0  0.00000000000E+00  0.00000000000E+00  0.53023482981E+03  0.53023482981E+03  0.00000000000E+00 0. -1.
         -2   -1    0    0    0  501 -0.00000000000E+00 -0.00000000000E+00 -0.13745761809E+02  0.13745761809E+02  0.00000000000E+00 0. -1.
          2    1    1    2  502    0  0.40156704239E+02 -0.55484360420E+01  0.49761582765E+03  0.49926431674E+03  0.00000000000E+00 0. -1.
         -2    1    1    2    0  502 -0.40156704239E+02  0.55484360420E+01  0.18873240345E+02  0.44716274878E+02  0.00000000000E+00 0. -1.
</event>
<event>
 4    1  0.5953944E+003  0.2005006E+02  0.7546771E-02  0.1533272E+00
          2   -1    0    0  501    0  0.00000000000E+00  0.00000000000E+00  0.57211975771E+02  0.57211975771E+02  0.00000000000E+00 0.  1.
         -2   -1    0    0    0  501 -0.00000000000E+00 -0.00000000000E+00 -0.70424188187E+01  0.70424188187E+01  0.00000000000E+00 0.  1.
          2    1    1    2  502    0  0.34380990596E+01  0.19753083130E+02  0.26608139885E+02  0.33316631379E+02  0.00000000000E+00 0.  1.
         -2    1    1    2    0  502 -0.34380990596E+01 -0.19753083130E+02  0.23561417067E+02  0.30937763211E+02  0.00000000000E+00 0.  1.
</event>
<event>
 4    1  0.5953944E+003  0.2404341E+02  0.7546771E-02  0.1479796E+00
          2   -1    0    0  501    0  0.00000000000E+00  0.00000000000E+00  0.47126331290E+03  0.47126331290E+03  0.00000000000E+00 0.  1.
         -2   -1    0    0    0  501 -0.00000000000E+00 -0.00000000000E+00 -0.14488908880E+02  0.14488908880E+02  0.00000000000E+00 0.  1.
          2    1    1    2  502    0  0.93772524922E+01  0.22139391860E+02  0.46075468241E+03  0.46138158058E+03  0.00000000000E+00 0.  1.
         -2    1    1    2    0  502 -0.93772524922E+01 -0.22139391860E+02 -0.39802783935E+01  0.24370641197E+02  0.00000000000E+00 0.  1.
</event>
<event>
 4    1  0.5953944E+003  0.2764655E+02  0.7546771E-02  0.1441219E+00
          2   -1    0    0  501    0  0.00000000000E+00  0.00000000000E+00  0.10901841704E+04  0.10901841704E+04  0.00000000000E+00 0.  1.
         -2   -1    0    0    0  501 -0.00000000000E+00 -0.00000000000E+00 -0.27038911013E+01  0.27038911013E+01  0.00000000000E+00 0.  1.
          2    1    1    2  502    0  0.24682545312E+02 -0.12454070810E+02  0.10140331633E+04  0.10144099705E+04  0.00000000000E+00 0.  1.
         -2    1    1    2    0  502 -0.24682545312E+02  0.12454070810E+02  0.73447115991E+02  0.78478091021E+02  0.00000000000E+00 0.  1.
</event>
<event>
 4    1  0.5953944E+003  0.4089277E+02  0.7546771E-02  0.1343332E+00
          2   -1    0    0  501    0  0.00000000000E+00  0.00000000000E+00  0.21710980972E+02  0.21710980972E+02  0.00000000000E+00 0.  1.
         -2   -1    0    0    0  501 -0.00000000000E+00 -0.00000000000E+00 -0.32161733301E+03  0.32161733301E+03  0.00000000000E+00 0. -1.
          2    1    1    2  502    0  0.37769672457E+02  0.15673878636E+02 -0.24891180985E+00  0.40893527435E+02  0.00000000000E+00 0.  1.
         -2    1    1    2    0  502 -0.37769672457E+02 -0.15673878636E+02 -0.29965744023E+03  0.30243478655E+03  0.00000000000E+00 0. -1.
</event>
<event>
 4    1  0.5953944E+003  0.2598629E+02  0.7546771E-02  0.1458066E+00
          2   -1    0    0  501    0  0.00000000000E+00  0.00000000000E+00  0.87166137525E+02  0.87166137525E+02  0.00000000000E+00 0.  1.
         -2   -1    0    0    0  501 -0.00000000000E+00 -0.00000000000E+00 -0.78020955438E+01  0.78020955438E+01  0.00000000000E+00 0. -1.
          2    1    1    2  502    0  0.23459694936E+02  0.11177219747E+02  0.43667514977E+02  0.50814755653E+02  0.00000000000E+00 0.  1.
         -2    1    1    2    0  502 -0.23459694936E+02 -0.11177219747E+02  0.35696527004E+02  0.44153477416E+02  0.00000000000E+00 0. -1.
</event>
<event>
 4    1  0.5953944E+003  0.3518285E+02  0.7546771E-02  0.1379282E+00
          2   -1    0    0  501    0  0.00000000000E+00  0.00000000000E+00  0.31574021741E+03  0.31574021741E+03  0.00000000000E+00 0. -1.
         -2   -1    0    0    0  501 -0.00000000000E+00 -0.00000000000E+00 -0.17226310556E+02  0.17226310556E+02  0.00000000000E+00 0.  1.
          2    1    1    2  502    0  0.27028012503E+02  0.22523753479E+02  0.29557452615E+03  0.29766110502E+03  0.00000000000E+00 0. -1.
         -2    1    1    2    0  502 -0.27028012503E+02 -0.22523753479E+02  0.29393807024E+01  0.35305422948E+02  0.00000000000E+00 0.  1.
</event>
<event>
 4    1  0.5953944E+003  0.2088068E+02  0.7546771E-02  0.1520975E+00
          2   -1    0    0  501    0  0.00000000000E+00  0.00000000000E+00  0.26525442587E+01  0.26525442587E+01  0.00000000000E+00 0.  1.
         -2   -1    0    0    0  501 -0.00000000000E+00 -0.00000000000E+00 -0.24818086403E+03  0.24818086403E+03  0.00000000000E+00 0.  1.
          2    1    1    2  502    0 -0.20624243735E+02  0.32624206624E+01 -0.49882647913E+02  0.54076625089E+02  0.00000000000E+00 0.  1.
         -2    1    1    2    0  502  0.20624243735E+02 -0.32624206624E+01 -0.19564567186E+03  0.19675678320E+03  0.00000000000E+00 0.  1.
</event>
<event>
 4    1  0.5953944E+003  0.3733471E+02  0.7546771E-02  0.1364854E+00
          2   -1    0    0  501    0  0.00000000000E+00  0.00000000000E+00  0.17417809473E+04  0.17417809473E+04  0.00000000000E+00 0.  1.
         -2   -1    0    0    0  501 -0.00000000000E+00 -0.00000000000E+00 -0.12113138169E+01  0.12113138169E+01  0.00000000000E+00 0. -1.
          2    1    1    2  502    0 -0.36563658081E+02 -0.75484784460E+01  0.13779595636E+04  0.13784652478E+04  0.00000000000E+00 0.  1.
         -2    1    1    2    0  502  0.36563658081E+02  0.75484784460E+01  0.36261006990E+03  0.36452701328E+03  0.00000000000E+00 0. -1.
</event>
<event>
 4    1  0.5953944E+003  0.2069340E+02  0.7546771E-02  0.1523688E+00
          2   -1    0    0  501    0  0.00000000000E+00  0.00000000000E+00  0.79508946781E+03  0.79508946781E+03  0.00000000000E+00 0.  1.
         -2   -1    0    0    0  501 -0.00000000000E+00 -0.00000000000E+00 -0.89058306606E+00  0.89058306606E+00  0.00000000000E+00 0.  1.
          2    1    1    2  502    0  0.10292176573E+02 -0.17952375604E+02  0.64731263794E+03  0.64764331845E+03  0.00000000000E+00 0.  1.
         -2    1    1    2    0  502 -0.10292176573E+02  0.17952375604E+02  0.14688624680E+03  0.14833673243E+03  0.00000000000E+00 0.  1.
</event>
<event>
 4    1  0.5953944E+003  0.3023858E+02  0.7546771E-02  0.1417534E+00
          2   -1    0    0  501    0  0.00000000000E+00  0.00000000000E+00  0.18120396446E+02  0.18120396446E+02  0.00000000000E+00 0.  1.
         -2   -1    0    0    0  501 -0.00000000000E+00 -0.00000000000E+00 -0.39100830323E+03  0.39100830323E+03  0.00000000000E+00 0.  1.
          2    1    1    2  502    0 -0.21096141077E+02  0.21663896413E+02  0.44647571285E+01  0.30566413469E+02  0.00000000000E+00 0.  1.
         -2    1    1    2    0  502  0.21096141077E+02 -0.21663896413E+02 -0.37735266391E+03  0.37856228620E+03  0.00000000000E+00 0.  1.
</event>
<event>
 4    1  0.5953944E+003  0.2073316E+02  0.7546771E-02  0.1523109E+00
          2   -1    0    0  501    0  0.00000000000E+00  0.00000000000E+00  0.90181122392E+03  0.90181122392E+03  0.00000000000E+00 0.  1.
         -2   -1    0    0    0  501 -0.00000000000E+00 -0.00000000000E+00 -0.45187607787E+01  0.45187607787E+01  0.00000000000E+00 0.  1.
          2    1    1    2  502    0 -0.11710123921E+02  0.17109556074E+02  0.87724394956E+03  0.87748892355E+03  0.00000000000E+00 0.  1.
         -2    1    1    2    0  502  0.11710123921E+02 -0.17109556074E+02  0.20048513572E+02  0.28841061141E+02  0.00000000000E+00 0.  1.
</event>
<event>
 4    1  0.5953944E+003  0.2495564E+02  0.7546771E-02  0.1469300E+00
          2   -1    0    0  501    0  0.00000000000E+00  0.00000000000E+00  0.12367889800E+02  0.12367889800E+02  0.00000000000E+00 0.  1.
         -2   -1    0    0    0  501 -0.00000000000E+00 -0.00000000000E+00 -0.11104561047E+03  0.11104561047E+03  0.00000000000E+00 0.  1.
          2    1    1    2  502    0  0.30821069132E+01  0.24764581428E+02 -0.37201418783E+01  0.25231395759E+02  0.00000000000E+00 0.  1.
         -2    1    1    2    0  502 -0.30821069132E+01 -0.24764581428E+02 -0.94957578788E+02  0.98182104508E+02  0.00000000000E+00 0.  1.
</event>
<event>
 4    1  0.5953944E+003  0.5206331E+02  0.7546771E-02  0.1289466E+00
          2   -1    0    0  501    0  0.00000000000E+00  0.00000000000E+00  0.89612988324E+03  0.89612988324E+03  0.00000000000E+00 0. -1.
         -2   -1    0    0    0  501 -0.00000000000E+00 -0.00000000000E+00 -0.23652163043E+02  0.23652163043E+02  0.00000000000E+00 0.  1.
          2    1    1    2  502    0 -0.38015238750E+02 -0.35572884405E+02  0.86571758240E+03  0.86728168490E+03  0.00000000000E+00 0. -1.
         -2    1    1    2    0  502  0.38015238750E+02  0.35572884405E+02  0.67601377921E+01  0.52500361380E+02  0.00000000000E+00 0.  1.
</event>
<event>
 4    1  0.5953944E+003  0.2937842E+02  0.7546771E-02  0.1425076E+00
          2   -1    0    0  501    0  0.00000000000E+00  0.00000000000E+00  0.29509274611E+03  0.29509274611E+03  0.00000000000E+00 0.  1.
         -2   -1    0    0    0  501 -0.00000000000E+00 -0.00000000000E+00 -0.44688476868E+01  0.44688476868E+01  0.00000000000E+00 0.  1.
          2    1    1    2  502    0 -0.16099970598E+02  0.24574019505E+02  0.23335330097E+03  0.23519535404E+03  0.00000000000E+00 0.  1.
         -2    1    1    2    0  502  0.16099970598E+02 -0.24574019505E+02  0.57270597448E+02  0.64366239753E+02  0.00000000000E+00 0.  1.
</event>
<event>
 4    1  0.5953944E+003  0.2963740E+02  0.7546771E-02  0.1422774E+00
          2   -1    0    0  501    0  0.00000000000E+00  0.00000000000E+00  0.99550142450E+03  0.99550142450E+03  0.00000000000E+00 0. -1.
         -2   -1    0    0    0  501 -0.00000000000E+00 -0.00000000000E+00 -0.31797901013E+01  0.31797901013E+01  0.00000000000E+00 0.  1.
          2    1    1    2  502    0  0.19651524013E+01 -0.29572180408E+02  0.92060465459E+03  0.92108159559E+03  0.00000000000E+00 0. -1.
         -2    1    1    2    0  502 -0.19651524013E+01  0.29572180408E+02  0.71716979799E+02  0.77599619004E+02  0.00000000000E+00 0.  1.
</event>
<event>
 4    1  0.5953944E+003  0.2473337E+02  0.7546771E-02  0.1471808E+00
          2   -1    0    0  501    0  0.00000000000E+00  0.00000000000E+00  0.72397255865E+03  0.72397255865E+03  0.00000000000E+00 0.  1.
         -2   -1    0    0    0  501 -0.00000000000E+00 -0.00000000000E+00 -0.73192205869E+01  0.73192205869E+01  0.00000000000E+00 0.  1.
          2    1    1    2  502    0  0.18250375783E+02 -0.16693213547E+02  0.70221926179E+03  0.70265470270E+03  0.00000000000E+00 0.  1.
         -2    1    1    2    0  502 -0.18250375783E+02  0.16693213547E+02  0.14434076269E+02  0.28637076535E+02  0.00000000000E+00 0.  1.
</event>
<event>
 4    1  0.5953944E+003  0.2055519E+02  0.7546771E-02  0.1525711E+00
          2   -1    0    0  501    0  0.00000000000E+00  0.00000000000E+00  0.65480192601E+02  0.65480192601E+02  0.00000000000E+00 0. -1.
         -2   -1    0    0    0  501 -0.00000000000E+00 -0.00000000000E+00 -0.10426352758E+02  0.10426352758E+02  0.00000000000E+00 0.  1.
          2    1    1    2  502    0 -0.19463924623E+02 -0.66084492794E+01  0.50957590552E+02  0.54947174618E+02  0.00000000000E+00 0. -1.
         -2    1    1    2    0  502  0.19463924623E+02  0.66084492794E+01  0.40962492911E+01  0.20959370741E+02  0.00000000000E+00 0.  1.
</event>
<event>
 4    1  0.5953944E+003  0.4674219E+02  0.7546771E-02  0.1312951E+00
          2   -1    0    0  501    0  0.00000000000E+00  0.00000000000E+00  0.26756147694E+03  0.26756147694E+03  0.00000000000E+00 0. -1.
         -2   -1    0    0    0  501 -0.00000000000E+00 -0.00000000000E+00 -0.31889477793E+03  0.31889477793E+03  0.00000000000E+00 0. -1.
          2    1    1    2  502    0 -0.45081168520E+02 -0.12349929267E+02  0.26378288459E+03  0.26789222219E+03  0.00000000000E+00 0. -1.
         -2    1    1    2    0  502  0.45081168520E+02  0.12349929267E+02 -0.31511618558E+03  0.31856403269E+03  0.00000000000E+00 0. -1.
</event>
<event>
 4    1  0.5953944E+003  0.2011925E+02  0.7546771E-02  0.1532221E+00
          2   -1    0    0  501    0  0.00000000000E+00  0.00000000000E+00  0.43508921860E+03  0.43508921860E+03  0.00000000000E+00 0.  1.
         -2   -1    0    0    0  501 -0.00000000000E+00 -0.00000000000E+00 -0.93445168116E+00  0.93445168116E+00  0.00000000000E+00 0.  1.
          2    1    1    2  502    0  0.14303234318E+02 -0.14149269589E+02  0.23152491387E+03  0.23239743993E+03  0.00000000000E+00 0.  1.
         -2    1    1    2    0  502 -0.14303234318E+02  0.14149269589E+02  0.20262985304E+03  0.20362623035E+03  0.00000000000E+00 0.  1.
</event>
<event>
 4    1  0.5953944E+003  0.2013960E+02  0.7546771E-02  0.1531912E+00
          2   -1    0    0  501    0  0.00000000000E+00  0.00000000000E+00  0.16113907958E+03  0.16113907958E+03  0.00000000000E+00 0. -1.
         -2   -1    0    0    0  501 -0.00000000000E+00 -0.00000000000E+00 -0.10840153718E+02  0.10840153718E+02  0.00000000000E+00 0.  1.
          2    1    1    2  502    0 -0.67836094582E+00  0.20128171086E+02  0.15049709319E+03  0.15183865945E+03  0.00000000000E+00 0. -1.
         -2    1    1    2    0  502  0.67836094582E+00 -0.20128171086E+02 -0.19816732350E+00  0.20140573853E+02  0.00000000000E+00 0.  1.
</event>
<event>
 4    1  0.5953944E+003  0.2085574E+02  0.7546771E-02  0.1521335E+00
          2   -1    0    0  501    0  0.00000000000E+00  0.00000000000E+00  0.10244447662E+03  0.10244447662E+03  0.00000000000E+00 0. -1.
         -2   -1    0    0    0  501 -0.00000000000E+00 -0.00000000000E+00 -0.38958822443E+02  0.38958822443E+02  0.00000000000E+00 0. -1.
          2    1    1    2  502    0 -0.14265580935E+02 -0.15213642733E+02  0.98480747400E+02  0.10066488630E+03  0.00000000000E+00 0. -1.
         -2    1    1    2    0  502  0.14265580935E+02  0.15213642733E+02 -0.34995093225E+02  0.40738412764E+02  0.00000000000E+00 0. -1.
</event>
<event>
 4    1  0.5953944E+003  0.3442597E+02  0.7546771E-02  0.1384644E+00
          2   -1    0    0  501    0  0.00000000000E+00  0.00000000000E+00  0.37473016279E+03  0.37473016279E+03  0.00000000000E+00 0.  1.
         -2   -1    0    0    0  501 -0.00000000000E+00 -0.00000000000E+00 -0.37015260239E+01  0.37015260239E+01  0.00000000000E+00 0.  1.
          2    1    1    2  502    0  0.34260750944E+02 -0.33687440068E+01  0.25770877414E+03  0.25999799954E+03  0.00000000000E+00 0.  1.
         -2    1    1    2    0  502 -0.34260750944E+02  0.33687440068E+01  0.11331986262E+03  0.11843368928E+03  0.00000000000E+00 0.  1.
</event>
<event>
 4    1  0.5953944E+003  0.2748027E+02  0.7546771E-02  0.1442842E+00
          2   -1    0    0  501    0  0.00000000000E+00  0.00000000000E+00  0.93987103144E+03  0.93987103144E+03  0.00000000000E+00 0. -1.
         -2   -1    0    0    0  501 -0.00000000000E+00 -0.00000000000E+00 -0.92457051215E+00  0.92457051215E+00  0.00000000000E+00 0. -1.
          2    1    1    2  502    0 -0.26570377526E+02 -0.70128726713E+01  0.63971047423E+03  0.64030044212E+03  0.00000000000E+00 0. -1.
         -2    1    1    2    0  502  0.26570377526E+02  0.70128726713E+01  0.29923598670E+03  0.30049515983E+03  0.00000000000E+00 0. -1.
</event>
<event>
 4    1  0.5953944E+003  0.2962231E+02  0.7546771E-02  0.1422907E+00
          2   -1    0    0  501    0  0.00000000000E+00  0.00000000000E+00  0.50338685465E+01  0.50338685465E+01  0.00000000000E+00 0. -1.
         -2   -1    0    0    0  501 -0.00000000000E+00 -0.00000000000E+00 -0.42632924133E+03  0.42632924133E+03  0.00000000000E+00 0.  1.
          2    1    1    2  502    0 -0.27950284681E+02  0.98113564441E+01 -0.44821700673E+02  0.53725840898E+02  0.00000000000E+00 0. -1.
         -2    1    1    2    0  502  0.27950284681E+02 -0.98113564441E+01 -0.37647367211E+03  0.37763726897E+03  0.00000000000E+00 0.  1.
</event>
<event>
 4    1  0.5953944E+003  0.2487045E+02  0.7546771E-02  0.1470258E+00
          2   -1    0    0  501    0  0.00000000000E+00  0.00000000000E+00  0.82542733869E+03  0.82542733869E+03  0.00000000000E+00 0. -1.
         -2   -1    0    0    0  501 -0.00000000000E+00 -0.00000000000E+00 -0.42873627721E+01  0.42873627721E+01  0.00000000000E+00 0. -1.
          2    1    1    2  502    0 -0.24293234867E+02  0.53271014593E+01  0.78743253403E+03  0.78782519312E+03  0.00000000000E+00 0. -1.
         -2    1    1    2    0  502  0.24293234867E+02 -0.53271014593E+01  0.33707441887E+02  0.41889508338E+02  0.00000000000E+00 0. -1.
</event>
<event>
 4    1  0.5953944E+003  0.2726469E+02  0.7546771E-02  0.1444967E+00
          2   -1    0    0  501    0  0.00000000000E+00  0.00000000000E+00  0.53808476571E+03  0.53808476571E+03  0.00000000000E+00 0.  1.
         -2   -1    0    0    0  501 -0.00000000000E+00 -0.00000000000E+00 -0.13192938222E+02  0.13192938222E+02  0.00000000000E+00 0. -1.
          2    1    1    2  502    0 -0.27131248848E+02  0.26941728354E+01  0.52325402211E+03  0.52396386792E+03  0.00000000000E+00 0.  1.
         -2    1    1    2    0  502  0.27131248848E+02 -0.26941728354E+01  0.16378053793E+01  0.27313836013E+02  0.00000000000E+00 0. -1.
</event>
<event>
 4    1  0.5953944E+003  0.3397027E+02  0.7546771E-02  0.1387951E+00
          2   -1    0    0  501    0  0.00000000000E+00  0.00000000000E+00  0.20114260082E+03  0.20114260082E+03  0.00000000000E+00 0.  1.
         -2   -1    0    0    0  501 -0.00000000000E+00 -0.00000000000E+00 -0.57193828722E+02  0.57193828722E+02  0.00000000000E+00 0. -1.
          2    1    1    2  502    0 -0.32703864048E+02  0.91889400677E+01  0.19449299916E+03  0.19743734719E+03  0.00000000000E+00 0.  1.
         -2    1    1    2    0  502  0.32703864048E+02 -0.91889400677E+01 -0.50544227056E+02  0.60899082357E+02  0.00000000000E+00 0. -1.
</event>
<event>
 4    1  0.5953944E+003  0.4257805E+02  0.7546771E-02  0.1334007E+00
          2   -1    0    0  501    0  0.00000000000E+00  0.00000000000E+00  0.28211904871E+03  0.28211904871E+03  0.00000000000E+00 0. -1.
         -2   -1    0    0    0  501 -0.00000000000E+00 -0.00000000000E+00 -0.31900466513E+03  0.31900466513E+03  0.00000000000E+00 0. -1.
          2    1    1    2  502    0  0.75881806616E+01  0.41896417771E+02  0.27907641447E+03  0.28230574812E+03  0.00000000000E+00 0. -1.
         -2    1    1    2    0  502 -0.75881806616E+01 -0.41896417771E+02 -0.31596203089E+03  0.31881796573E+03  0.00000000000E+00 0. -1.
</event>
<event>
 4    1  0.5953944E+003  0.2298867E+02  0.7546771E-02  0.1492640E+00
          2   -1    0    0  501    0  0.00000000000E+00  0.00000000000E+00  0.36177928845E+03  0.36177928845E+03  0.00000000000E+00 0.  1.
         -2   -1    0    0    0  501 -0.00000000000E+00 -0.00000000000E+00 -0.35847520296E+01  0.35847520296E+01  0.00000000000E+00 0. -1.
          2    1    1    2  502    0  0.56583076013E+01  0.22281436853E+02  0.31971527794E+03  0.32054069604E+03  0.00000000000E+00 0.  1.
         -2    1    1    2    0  502 -0.56583076013E+01 -0.22281436853E+02  0.38479258487E+02  0.44823344441E+02  0.00000000000E+00 0. -1.
</event>
<event>
 4    1  0.5953944E+003  0.2060509E+02  0.7546771E-02  0.1524978E+00
          2   -1    0    0  501    0  0.00000000000E+00  0.00000000000E+00  0.16590961561E+04  0.16590961561E+04  0.00000000000E+00 0.  1.
         -2   -1    0    0    0  501 -0.00000000000E+00 -0.00000000000E+00 -0.86236429043E+00  0.86236429043E+00  0.00000000000E+00 0.  1.
          2    1    1    2  502    0  0.35436334807E+01 -0.20298091939E+02  0.15251388332E+04  0.15252780174E+04  0.00000000000E+00 0.  1.
         -2    1    1    2    0  502 -0.35436334807E+01  0.20298091939E+02  0.13309495865E+03  0.13468050302E+03  0.00000000000E+00 0.  1.
</event>
<event>
 4    1  0.5953944E+003  0.2186294E+02  0.7546771E-02  0.1507292E+00
          2   -1    0    0  501    0  0.00000000000E+00  0.00000000000E+00  0.59936505170E+03  0.59936505170E+03  0.00000000000E+00 0. -1.
         -2   -1    0    0    0  501 -0.00000000000E+00 -0.00000000000E+00 -0.12998203195E+01  0.12998203195E+01  0.00000000000E+00 0. -1.
          2    1    1    2  502    0 -0.21765757289E+02  0.20591330073E+01  0.48573714451E+03  0.48622891910E+03  0.00000000000E+00 0. -1.
         -2    1    1    2    0  502  0.21765757289E+02 -0.20591330073E+01  0.11232808688E+03  0.11443595292E+03  0.00000000000E+00 0. -1.
</event>
<event>
 4    1  0.5953944E+003  0.3324354E+02  0.7546771E-02  0.1393351E+00
          2   -1    0    0  501    0  0.00000000000E+00  0.00000000000E+00  0.94166705177E+03  0.94166705177E+03  0.00000000000E+00 0.  1.
         -2   -1    0    0    0  501 -0.00000000000E+00 -0.00000000000E+00 -0.32629959251E+01  0.32629959251E+01  0.00000000000E+00 0.  1.
          2    1    1    2  502    0  0.25902945574E+02 -0.20836752782E+02  0.84727236798E+03  0.84792428813E+03  0.00000000000E+00 0.  1.
         -2    1    1    2    0  502 -0.25902945574E+02  0.20836752782E+02  0.91131687862E+02  0.97005759564E+02  0.00000000000E+00 0.  1.
</event>
<event>
 4    1  0.5953944E+003  0.3352547E+02  0.7546771E-02  0.1391237E+00
          2   -1    0    0  501    0  0.00000000000E+00  0.00000000000E+00  0.15308201745E+04  0.15308201745E+04  0.00000000000E+00 0.  1.
         -2   -1    0    0    0  501 -0.00000000000E+00 -0.00000000000E+00 -0.54245032575E+02  0.54245032575E+02  0.00000000000E+00 0.  1.
          2    1    1    2  502    0 -0.52425493979E+01  0.33113032386E+02  0.15254383458E+04  0.15258067060E+04  0.00000000000E+00 0.  1.
         -2    1    1    2    0  502  0.52425493979E+01 -0.33113032386E+02 -0.48863203962E+02  0.59258500988E+02  0.00000000000E+00 0.  1.
</event>
<event>
 4    1  0.5953944E+003  0.2322020E+02  0.7546771E-02  0.1489751E+00
          2   -1    0    0  501    0  0.00000000000E+00  0.00000000000E+00  0.18771317366E+03  0.18771317366E+03  0.00000000000E+00 0.  1.
         -2   -1    0    0    0  501 -0.00000000000E+00 -0.00000000000E+00 -0.18402730919E+02  0.18402730919E+02  0.00000000000E+00 0.  1.
          2    1    1    2  502    0  0.50349722499E+01  0.22667742180E+02  0.17932938099E+03  0.18082644819E+03  0.00000000000E+00 0.  1.
         -2    1    1    2    0  502 -0.50349722499E+01 -0.22667742180E+02 -0.10018938240E+02  0.25289456391E+02  0.00000000000E+00 0.  1.
</event>
<event>
 4    1  0.5953944E+003  0.2156128E+02  0.7546771E-02  0.1511400E+00
          2   -1    0    0  501    0  0.00000000000E+00  0.00000000000E+00  0.17009253590E+04  0.17009253590E+04  0.00000000000E+00 0.  1.
         -2   -1    0    0    0  501 -0.00000000000E+00 -0.00000000000E+00 -0.86343146811E+00  0.86343146811E+00  0.00000000000E+00 0. -1.
          2    1    1    2  502    0  0.12790562001E+02 -0.17357715520E+02  0.15534765649E+04  0.15536261862E+04  0.00000000000E+00 0.  1.
         -2    1    1    2    0  502 -0.12790562001E+02  0.17357715520E+02  0.14658536259E+03  0.14816260423E+03  0.00000000000E+00 0. -1.
</event>
<event>
 4    1  0.5953944E+003  0.2100475E+02  0.7546771E-02  0.1519197E+00
          2   -1    0    0  501    0  0.00000000000E+00  0.00000000000E+00  0.42254795037E+03  0.42254795037E+03  0.00000000000E+00 0. -1.
         -2   -1    0    0    0  501 -0.00000000000E+00 -0.00000000000E+00 -0.36045246906E+03  0.36045246906E+03  0.00000000000E+00 0. -1.
          2    1    1    2  502    0 -0.14973893056E+02  0.14730314970E+02  0.42198049983E+03  0.42250294897E+03  0.00000000000E+00 0. -1.
         -2    1    1    2    0  502  0.14973893056E+02 -0.14730314970E+02 -0.35988501852E+03  0.36049747046E+03  0.00000000000E+00 0. -1.
</event>
<event>
 4    1  0.5953944E+003  0.4444207E+02  0.7546771E-02  0.1324253E+00
          2   -1    0    0  501    0  0.00000000000E+00  0.00000000000E+00  0.80440095298E+03  0.80440095298E+03  0.00000000000E+00 0. -1.
         -2   -1    0    0    0  501 -0.00000000000E+00 -0.00000000000E+00 -0.23862935218E+03  0.23862935218E+03  0.00000000000E+00 0.  1.
          2    1    1    2  502    0 -0.13668649656E+02 -0.42287892271E+02  0.80171096336E+03  0.80294182018E+03  0.00000000000E+00 0. -1.
         -2    1    1    2    0  502  0.13668649656E+02  0.42287892271E+02 -0.23593936256E+03  0.24008848499E+03  0.00000000000E+00 0.  1.
</event>
<event>
 4    1  0.5953944E+003  0.2490530E+02  0.7546771E-02  0.1469866E+00
          2   -1    0    0  501    0  0.00000000000E+00  0.00000000000E+00  0.24374787658E+03  0.24374787658E+03  0.00000000000E+00 0. -1.
         -2   -1    0    0    0  501 -0.00000000000E+00 -0.00000000000E+00 -0.21863005119E+02  0.21863005119E+02  0.00000000000E+00 0. -1.
          2    1    1    2  502    0 -0.24660429826E+02  0.34838736478E+01  0.23577992837E+03  0.23709164641E+03  0.00000000000E+00 0. -1.
         -2    1    1    2    0  502  0.24660429826E+02 -0.34838736478E+01 -0.13895056912E+02  0.28519235287E+02  0.00000000000E+00 0. -1.
</event>
<event>
 4    1  0.5953944E+003  0.2912033E+02  0.7546771E-02  0.1427398E+00
          2   -1    0    0  501    0  0.00000000000E+00  0.00000000000E+00  0.14339059306E+04  0.14339059306E+04  0.00000000000E+00 0. -1.
         -2   -1    0    0    0  501 -0.00000000000E+00 -0.00000000000E+00 -0.19370159980E+02  0.19370159980E+02  0.00000000000E+00 0. -1.
          2    1    1    2  502    0  0.13059073871E+02 -0.26027952244E+02  0.14227275124E+04  0.14230254981E+04  0.00000000000E+00 0. -1.
         -2    1    1    2    0  502 -0.13059073871E+02  0.26027952244E+02 -0.81917418261E+01  0.30250592433E+02  0.00000000000E+00 0. -1.
</event>
<event>
 4    1  0.5953944E+003  0.2412863E+02  0.7546771E-02  0.1478792E+00
          2   -1    0    0  501    0  0.00000000000E+00  0.00000000000E+00  0.49397678636E+01  0.49397678636E+01  0.00000000000E+00 0.  1.
         -2   -1    0    0    0  501 -0.00000000000E+00 -0.00000000000E+00 -0.29494456373E+03  0.29494456373E+03  0.00000000000E+00 0.  1.
          2    1    1    2  502    0 -0.23134427016E+02  0.68548605208E+01 -0.28818358932E+02  0.37585750460E+02  0.00000000000E+00 0.  1.
         -2    1    1    2    0  502  0.23134427016E+02 -0.68548605208E+01 -0.26118643694E+03  0.26229858114E+03  0.00000000000E+00 0.  1.
</event>
<event>
 4    1  0.5953944E+003  0.3387581E+02  0.7546771E-02  0.1388644E+00
          2   -1    0    0  501    0  0.00000000000E+00  0.00000000000E+00  0.37289805754E+02  0.37289805754E+02  0.00000000000E+00 0. -1.
         -2   -1    0    0    0  501 -0.00000000000E+00 -0.00000000000E+00 -0.31761141602E+03  0.31761141602E+03  0.00000000000E+00 0. -1.
          2    1    1    2  502    0 -0.79247707412E+01  0.32935819774E+02  0.28473943150E+02  0.44253086378E+02  0.00000000000E+00 0. -1.
         -2    1    1    2    0  502  0.79247707412E+01 -0.32935819774E+02 -0.30879555342E+03  0.31064813540E+03  0.00000000000E+00 0. -1.
</event>
<event>
 4    1  0.5953944E+003  0.2111476E+02  0.7546771E-02  0.1517633E+00
          2   -1    0    0  501    0  0.00000000000E+00  0.00000000000E+00  0.16920289834E+03  0.16920289834E+03  0.00000000000E+00 0.  1.
         -2   -1    0    0    0  501 -0.00000000000E+00 -0.00000000000E+00 -0.43999244802E+01  0.43999244802E+01  0.00000000000E+00 0.  1.
          2    1    1    2  502    0 -0.20221999743E+02  0.60748488705E+01  0.13737826587E+03  0.13899144216E+03  0.00000000000E+00 0.  1.
         -2    1    1    2    0  502  0.20221999743E+02 -0.60748488705E+01  0.27424707994E+02  0.34611380657E+02  0.00000000000E+00 0.  1.
</event>
<event>
 4    1  0.5953944E+003  0.3032534E+02  0.7546771E-02  0.1416790E+00
          2   -1    0    0  501    0  0.00000000000E+00  0.00000000000E+00  0.12080263064E+02  0.12080263064E+02  0.00000000000E+00 0.  1.
         -2   -1    0    0    0  501 -0.00000000000E+00 -0.00000000000E+00 -0.31977113461E+03  0.31977113461E+03  0.00000000000E+00 0. -1.
          2    1    1    2  502    0  0.19661085427E+02 -0.23088258422E+02 -0.90107391299E+01  0.31635729434E+02  0.00000000000E+00 0.  1.
         -2    1    1    2    0  502 -0.19661085427E+02  0.23088258422E+02 -0.29868013242E+03  0.30021566824E+03  0.00000000000E+00 0. -1.
</event>
<event>
 4    1  0.5953944E+003  0.2337786E+02  0.7546771E-02  0.1487807E+00
          2   -1    0    0  501    0  0.00000000000E+00  0.00000000000E+00  0.13805700115E+04  0.13805700115E+04  0.00000000000E+00 0. -1.
         -2   -1    0    0    0  501 -0.00000000000E+00 -0.00000000000E+00 -0.18412706400E+01  0.18412706400E+01  0.00000000000E+00 0.  1.
          2    1    1    2  502    0 -0.20696781460E+02  0.10870481237E+02  0.13017751301E+04  0.13019850281E+04  0.00000000000E+00 0. -1.
         -2    1    1    2    0  502  0.20696781460E+02 -0.10870481237E+02  0.76953610744E+02  0.80426253995E+02  0.00000000000E+00 0.  1.
</event>
<event>
 4    1  0.5953944E+003  0.2952297E+02  0.7546771E-02  0.1423788E+00
          2   -1    0    0  501    0  0.00000000000E+00  0.00000000000E+00  0.99026772931E+01  0.99026772931E+01  0.00000000000E+00 0. -1.
         -2   -1    0    0    0  501 -0.00000000000E+00 -0.00000000000E+00 -0.22887210605E+03  0.22887210605E+03  0.00000000000E+00 0. -1.
          2    1    1    2  502    0 -0.79089565318E+01  0.28443876811E+02 -0.15826030142E+02  0.33497297674E+02  0.00000000000E+00 0. -1.
         -2    1    1    2    0  502  0.79089565318E+01 -0.28443876811E+02 -0.20314339861E+03  0.20527748566E+03  0.00000000000E+00 0. -1.
</event>
<event>
 4    1  0.5953944E+003  0.2186933E+02  0.7546771E-02  0.1507206E+00
          2   -1    0    0  501    0  0.00000000000E+00  0.00000000000E+00  0.24819419807E+02  0.24819419807E+02  0.00000000000E+00 0. -1.
         -2   -1    0    0    0  501 -0.00000000000E+00 -0.00000000000E+00 -0.35346577787E+02  0.35346577787E+02  0.00000000000E+00 0.  1.
          2    1    1    2  502    0  0.18079079597E+02  0.12305052799E+02  0.15024725497E+02  0.26533183369E+02  0.00000000000E+00 0. -1.
         -2    1    1    2    0  502 -0.18079079597E+02 -0.12305052799E+02 -0.25551883477E+02  0.33632814225E+02  0.00000000000E+00 0.  1.
</event>
<event>
 4    1  0.5953944E+003  0.3000525E+02  0.7546771E-02  0.1419551E+00
          2   -1    0    0  501    0  0.00000000000E+00  0.00000000000E+00  0.33851414136E+02  0.33851414136E+02  0.00000000000E+00 0. -1.
         -2   -1    0    0    0  501 -0.00000000000E+00 -0.00000000000E+00 -0.26992510062E+02  0.26992510062E+02  0.00000000000E+00 0. -1.
          2    1    1    2  502    0  0.25779286177E+02 -0.15353937636E+02  0.71162353139E+01  0.30837571269E+02  0.00000000000E+00 0. -1.
         -2    1    1    2    0  502 -0.25779286177E+02  0.15353937636E+02 -0.25733123983E+00  0.30006352929E+02  0.00000000000E+00 0. -1.
</event>
<event>
 4    1  0.5953944E+003  0.3349036E+02  0.7546771E-02  0.1391499E+00
          2   -1    0    0  501    0  0.00000000000E+00  0.00000000000E+00  0.55231015672E+02  0.55231015672E+02  0.00000000000E+00 0. -1.
         -2   -1    0    0    0  501 -0.00000000000E+00 -0.00000000000E+00 -0.21132032765E+02  0.21132032765E+02  0.00000000000E+00 0. -1.
          2    1    1    2  502    0  0.15860802498E+01 -0.33452782924E+02  0.24591452233E+02  0.41549294324E+02  0.00000000000E+00 0. -1.
         -2    1    1    2    0  502 -0.15860802498E+01  0.33452782924E+02  0.95075306739E+01  0.34813754113E+02  0.00000000000E+00 0. -1.
</event>
<event>
 4    1  0.5953944E+003  0.2906026E+02  0.7546771E-02  0.1427942E+00
          2   -1    0    0  501    0  0.00000000000E+00  0.00000000000E+00  0.53525812892E+03  0.53525812892E+03  0.00000000000E+00 0. -1.
         -2   -1    0    0    0  501 -0.00000000000E+00 -0.00000000000E+00 -0.17754880077E+03  0.17754880077E+03  0.00000000000E+00 0.  1.
          2    1    1    2  502    0  0.16676742546E+02 -0.23798848547E+02  0.53367105172E+03  0.53446168279E+03  0.00000000000E+00 0. -1.
         -2    1    1    2    0  502 -0.16676742546E+02  0.23798848547E+02 -0.17596172356E+03  0.17834524690E+03  0.00000000000E+00 0.  1.
</event>
